data_201983-ICSD
#?2014 by Fachinformationszentrum Karlsruhe, and the U.S. Secretary of 
#Commerce on behalf of the United States.  All rights reserved.
_database_code_ICSD                201983
_audit_creation_date               1988/12/19
_chemical_name_systematic
;
Cesium Dipotassium Bismuth Hexachloride
;
_chemical_formula_structural       'Cs K2 Bi Cl6'
_chemical_formula_sum              'Bi1 Cl6 Cs1 K2'
_publ_section_title
;
Structural studies of Cs-K-Bi mixed chlorides relation to the crystal 
structures of A2 B M X6, A3 M X6 and A2 M X6
;
loop_
_citation_id
_citation_journal_abbrev
_citation_year
_citation_journal_volume
_citation_page_first
_citation_page_last
_citation_journal_id_ASTM
primary 'Journal of Solid State Chemistry' 1986 65 13 26 JSSCBI
_publ_author_name
;
Benachenhou, F.;Mairesse, G.;Novogorocki, G.;Thomas, D.
;
_cell_length_a                     25.653(13)
_cell_length_b                     7.799(5)
_cell_length_c                     12.874(9)
_cell_angle_alpha                  90.
_cell_angle_beta                   99.24(8)
_cell_angle_gamma                  90.
_cell_volume                       2542.25
_cell_formula_units_Z              8
_symmetry_space_group_name_H-M     'C 1 2/c 1'
_symmetry_Int_Tables_number        15
_refine_ls_R_factor_all            .044
loop_
_symmetry_equiv_pos_site_id
_symmetry_equiv_pos_as_xyz
  1	'x, -y, z+.5'
  2	'-x, -y, -z'
  3	'-x, y, -z+.5'
  4	'x, y, z'
  5	'x+.5, -y+.5, z+.5'
  6	'-x+.5, -y+.5, -z'
  7	'-x+.5, y+.5, -z+.5'
  8	'x+.5, y+.5, z'
loop_
_atom_type_symbol
_atom_type_oxidation_number
Bi3+	3
Cl1-	-1
Cs1+	1
K1+	1
loop_
_atom_site_label
_atom_site_type_symbol
_atom_site_symmetry_multiplicity
_atom_site_Wyckoff_symbol
_atom_site_fract_x
_atom_site_fract_y
_atom_site_fract_z
_atom_site_occupancy
_atom_site_attached_hydrogens
Bi1 Bi3+ 4 d 0.25 0.25 0.5 1. 0 
Bi2 Bi3+ 4 e 0 0.7786(1) 0.25 1. 0 
Cs1 Cs1+ 8 f 0.0512(1) 0.7363(1) 0.9307(1) 1. 0 
K1 K1+ 8 f 0.1622(2) 0.8129(5) 0.3004(3) 1. 0 
K2 K1+ 8 f 0.3432(2) 0.1906(5) 0.8756(3) 1. 0 
Cl1 Cl1- 8 f 0.2503(2) 0.3906(6) 0.6939(6) 1. 0 
Cl2 Cl1- 8 f 0.3275(2) 0.4665(7) 0.4708(4) 1. 0 
Cl3 Cl1- 8 f 0.3267(2) 0.0274(7) 0.5771(5) 1. 0 
Cl4 Cl1- 8 f 0.0643(2) 0.5405(6) 0.1845(3) 1. 0 
Cl5 Cl1- 8 f -.0589(2) 0.7653(6) 0.0600(3) 1. 0 
Cl6 Cl1- 8 f 0.0642(2) 0.0310(5) 0.1991(4) 1. 0 

loop_
_atom_site_aniso_label
_atom_site_aniso_type_symbol
_atom_site_aniso_U_11
_atom_site_aniso_U_22
_atom_site_aniso_U_33
_atom_site_aniso_U_12
_atom_site_aniso_U_13
_atom_site_aniso_U_23
Bi1 Bi3+ 0.026(1) 0.029(1) 0.029(1) -.002(1) 0.006(1) 0.005(1)
Bi2 Bi3+ 0.026(1) 0.022(1) 0.022(1) 0 0.008(1) 0
Cs1 Cs1+ 0.042(1) 0.052(1) 0.043(1) 0.005(1) 0.008(1) 0.011(1)
K1 K1+ 0.039(3) 0.036(2) 0.072(2) 0.005(1) 0.008(2) 0.004(2)
K2 K1+ 0.045(3) 0.035(2) 0.063(2) 0.011(1) 0.018(2) -.003(1)
Cl1 Cl1- 0.062(3) 0.047(2) 0.034(2) -.009(1) 0.015(2) -.007(2)
Cl2 Cl1- 0.052(3) 0.063(3) 0.075(3) -.006(2) 0.010(3) 0.025(2)
Cl3 Cl1- 0.058(3) 0.062(3) 0.087(4) 0.005(2) 0.008(3) 0.035(3)
Cl4 Cl1- 0.055(3) 0.046(2) 0.043(2) 0.005(1) 0.008(1) -.008(2)
Cl5 Cl1- 0.042(3) 0.061(3) 0.031(2) 0.001(1) 0.002(1) -.001(2)
Cl6 Cl1- 0.039(3) 0.036(3) 0.056(2) -.011(1) 0.018(1) 0.013(2)
#End of data_201983-ICSD


