data_27808-ICSD
#?2014 by Fachinformationszentrum Karlsruhe, and the U.S. Secretary of 
#Commerce on behalf of the United States.  All rights reserved.
_database_code_ICSD                27808
_audit_creation_date               1980/01/01
_audit_update_record               2003/10/01
_chemical_name_systematic          'Diiron(III) Dicalcium Oxide'
_chemical_formula_structural       'Fe2 Ca2 O5'
_chemical_formula_sum              'Ca2 Fe2 O5'
_chemical_name_mineral             Srebrodolskite
_publ_section_title
;
La structure du ferrite dicalcique et de la brownmillerite, aussi 
bien que 'Errata'.
;
loop_
_citation_id
_citation_journal_abbrev
_citation_year
_citation_journal_volume
_citation_page_first
_citation_page_last
_citation_journal_id_ASTM
primary
;
Comptes Rendus Hebdomadaires des Seances de l`Academie des Sciences 
(1884 - 1965)
;
 1958 246 658 658 COREAF
2
;
Comptes Rendus Hebdomadaires des Seances de l`Academie des Sciences 
(1884 - 1965)
;
 1957 244 2944 2946 COREAF
_publ_author_name                  'Bertaut, F.;Blum, P.;Sagnieres, A.'
_cell_length_a                     5.64
_cell_length_b                     14.68
_cell_length_c                     5.39
_cell_angle_alpha                  90.
_cell_angle_beta                   90.
_cell_angle_gamma                  90.
_cell_volume                       446.27
_cell_formula_units_Z              4
_symmetry_space_group_name_H-M     'P c m n'
_symmetry_Int_Tables_number        62
loop_
_symmetry_equiv_pos_site_id
_symmetry_equiv_pos_as_xyz
  1	'-x+.5, y, z+.5'
  2	'x, -y+.5, z'
  3	'x+.5, y+.5, -z+.5'
  4	'-x, -y, -z'
  5	'x+.5, -y, -z+.5'
  6	'-x, y+.5, -z'
  7	'-x+.5, -y+.5, z+.5'
  8	'x, y, z'
loop_
_atom_type_symbol
_atom_type_oxidation_number
Ca2+	2
Fe3+	3
O2-	-2
loop_
_atom_site_label
_atom_site_type_symbol
_atom_site_symmetry_multiplicity
_atom_site_Wyckoff_symbol
_atom_site_fract_x
_atom_site_fract_y
_atom_site_fract_z
_atom_site_occupancy
_atom_site_attached_hydrogens
Fe1 Fe3+ 4 a 0 0 0 1. 0 
Fe2 Fe3+ 4 c -.072 0.25 -.055 1. 0 
Ca1 Ca2+ 8 d 0.028 0.112 0.48 1. 0 
O1 O2- 8 d 0.25 -.015 0.25 1. 0 
O2 O2- 8 d 0.055 0.133 0 1. 0 
O3 O2- 4 c -.143 0.25 0.63 1. 0 

#End of data_27808-ICSD


