data_96707-ICSD
#?2014 by Fachinformationszentrum Karlsruhe, and the U.S. Secretary of 
#Commerce on behalf of the United States.  All rights reserved.
_database_code_ICSD                96707
_audit_creation_date               2004/10/01
_chemical_name_systematic          'Calcium Tin(IV) Oxide Silicate'
_chemical_formula_structural       'Ca Sn O (Si O4)'
_chemical_formula_sum              'Ca1 O5 Si1 Sn1'
_chemical_name_mineral             Malayaite
_publ_section_title
;
Precision X-ray diffraction and Moessbauer studies and computer 
simulation of the structure and properties of malayaite Ca Sn O Si O4
;
loop_
_citation_id
_citation_journal_abbrev
_citation_year
_citation_journal_volume
_citation_journal_issue
_citation_page_first
_citation_page_last
_citation_journal_id_ASTM
primary Kristallografiya 2002 47 5 825 833 KRISAJ
2 'Crystallography Reports' 2002 47 5 759 767 CYSTE3
_publ_author_name
;
Eremin, N.N.;Urusov, V.S.;Rusakov, V.S.;Yakubovich, O.V.
;
_cell_length_a                     7.152(2)
_cell_length_b                     8.888(2)
_cell_length_c                     6.667(2)
_cell_angle_alpha                  90
_cell_angle_beta                   113.37(2)
_cell_angle_gamma                  90
_cell_volume                       389.03
_cell_formula_units_Z              4
_symmetry_space_group_name_H-M     'A 1 2/a 1'
_symmetry_Int_Tables_number        15
_refine_ls_R_factor_all            .0098
loop_
_symmetry_equiv_pos_site_id
_symmetry_equiv_pos_as_xyz
  1	'-x+.5, y, -z'
  2	'-x, -y, -z'
  3	'x+.5, -y, z'
  4	'x, y, z'
  5	'-x+.5, y+.5, -z+.5'
  6	'-x, -y+.5, -z+.5'
  7	'x+.5, -y+.5, z+.5'
  8	'x, y+.5, z+.5'
loop_
_atom_type_symbol
_atom_type_oxidation_number
Ca2+	2
O2-	-2
Si4+	4
Sn4+	4
loop_
_atom_site_label
_atom_site_type_symbol
_atom_site_symmetry_multiplicity
_atom_site_Wyckoff_symbol
_atom_site_fract_x
_atom_site_fract_y
_atom_site_fract_z
_atom_site_occupancy
_atom_site_attached_hydrogens
Ca1 Ca2+ 4 e 0.250 0.66295(5) 0.5 1. 0 
Sn1 Sn4+ 4 b 0.5 0.5 0 1. 0 
Si1 Si4+ 4 e 0.750 0.68203(8) 0.5 1. 0 
O1 O2- 4 e 0.750 0.58690(18) 0 1. 0 
O2 O2- 8 f 0.91293(20) 0.56796(12) 0.67555(19) 1. 0 
O3 O2- 8 f 0.37180(19) 0.71195(12) 0.89014(19) 1. 0 

loop_
_atom_site_aniso_label
_atom_site_aniso_type_symbol
_atom_site_aniso_B_11
_atom_site_aniso_B_22
_atom_site_aniso_B_33
_atom_site_aniso_B_12
_atom_site_aniso_B_13
_atom_site_aniso_B_23
Ca1 Ca2+ 2.63(4) 0.32(1) 0.50(1) 0. -0.14(1) 0.
Sn1 Sn4+ 0.26(1) 0.30(1) 0.30(1) -0.01(0) 0.11(0) 0.
Si1 Si4+ 0.35(2) 0.24(1) 0.26(2) 0. 0.11(1) 0.
O1 O2- 0.33(3) 0.46(3) 0.97(4) 0. 0.32(3) 0.
O2 O2- 0.73(2) 0.62(2) 0.41(2) 0.23(2) 0.14(2) 0.13(2)
O3 O2- 0.66(2) 0.46(2) 0.56(2) 0.20(2) 0.33(2) 0.06(1)
#End of data_96707-ICSD


