data_10318-ICSD
#?2014 by Fachinformationszentrum Karlsruhe, and the U.S. Secretary of 
#Commerce on behalf of the United States.  All rights reserved.
_database_code_ICSD                10318
_audit_creation_date               1980/01/01
_audit_update_record               1987/10/13
_chemical_name_systematic
;
Potassium Trithiooxotungstate Chloride
;
_chemical_formula_structural       'K3 W O S3 Cl'
_chemical_formula_sum              'Cl1 K3 O1 S3 W1'
_publ_section_title
;
Die Kristallstruktur von Kalium-trithiowolframat-chlorid K3 (W O S3) 
Cl
;
loop_
_citation_id
_citation_journal_abbrev
_citation_year
_citation_journal_volume
_citation_page_first
_citation_page_last
_citation_journal_id_ASTM
primary 'Zeitschrift fuer Anorganische und Allgemeine Chemie (1950) (DE)'
 1972 387 142 153 ZAACAB
2
;
Zeitschrift fuer Naturforschung, Teil B. Anorganische Chemie, 
Organische Chemie (2,1947-32,1977)
;
 1971 26 268 269 ZENBAX
_publ_author_name                  'Krebs, B.;Buss, B.;Ferwahnah, A.'
_cell_length_a                     12.507(8)
_cell_length_b                     6.317(5)
_cell_length_c                     12.371(8)
_cell_angle_alpha                  90.
_cell_angle_beta                   90.
_cell_angle_gamma                  90.
_cell_volume                       977.39
_cell_formula_units_Z              4
_symmetry_space_group_name_H-M     'P c a 21'
_symmetry_Int_Tables_number        29
_refine_ls_R_factor_all            .053
loop_
_symmetry_equiv_pos_site_id
_symmetry_equiv_pos_as_xyz
  1	'x+.5, -y, z'
  2	'-x+.5, y, z+.5'
  3	'-x, -y, z+.5'
  4	'x, y, z'
loop_
_atom_type_symbol
_atom_type_oxidation_number
Cl1-	-1
K1+	1
O2-	-2
S2-	-2
W6+	6
loop_
_atom_site_label
_atom_site_type_symbol
_atom_site_symmetry_multiplicity
_atom_site_Wyckoff_symbol
_atom_site_fract_x
_atom_site_fract_y
_atom_site_fract_z
_atom_site_occupancy
_atom_site_attached_hydrogens
W1 W6+ 4 a 0.00547(4) -.0032(1) 0.25 1. 0 
S1 S2- 4 a 0.1735(3) -.1026(8) 0.2705(5) 1. 0 
S2 S2- 4 a -.0058(3) 0.3419(9) 0.2695(6) 1. 0 
S3 S2- 4 a -.0489(4) -.0883(9) 0.0869(5) 1. 0 
O1 O2- 4 a -.0748(9) -.1322(21) 0.3464(10) 1. 0 
K1 K1+ 4 a 0.2646(3) 0.3970(7) 0.2595(6) 1. 0 
K2 K1+ 4 a 0.2040(3) -.0382(5) 0.0017(6) 1. 0 
K3 K1+ 4 a -.0206(3) 0.4150(7) -.0008(6) 1. 0 
Cl1 Cl1- 4 a 0.2314(4) 0.4734(8) 0.0122(7) 1. 0 

#End of data_10318-ICSD


