data_187000-ICSD
#?2014 by Fachinformationszentrum Karlsruhe, and the U.S. Secretary of 
#Commerce on behalf of the United States.  All rights reserved.
_database_code_ICSD                187000
_audit_creation_date               2013/08/01
_chemical_name_systematic          'Potassium Yttrium Tetrafluoride'
_chemical_formula_structural       'K Y F4'
_chemical_formula_sum              'F4 K1 Y1'
_publ_section_title
;
Crystal structures and stability of trigonal K Ln F4 fluorides (Ln = 
Y, Ho, Er, Tm, Yb)
;
loop_
_citation_id
_citation_journal_abbrev
_citation_year
_citation_journal_volume
_citation_journal_issue
_citation_page_first
_citation_page_last
_citation_journal_id_ASTM
primary 'Dalton Transactions' 2013 42 2 441 447 DTARAF
_publ_author_name
;
Grzechnik, Andrzej;Khaidukov, Nicholas;Friese, Karen
;
_cell_length_a                     14.006(2)
_cell_length_b                     14.006(2)
_cell_length_c                     10.0620(10)
_cell_angle_alpha                  90
_cell_angle_beta                   90
_cell_angle_gamma                  120
_cell_volume                       1709.4
_cell_formula_units_Z              18
_symmetry_space_group_name_H-M     'P 32'
_symmetry_Int_Tables_number        145
_refine_ls_R_factor_all            .073
loop_
_symmetry_equiv_pos_site_id
_symmetry_equiv_pos_as_xyz
  1	'-x+y, -x, z+.3333'
  2	'-y, x-y, z+.6667'
  3	'x, y, z'
loop_
_atom_type_symbol
_atom_type_oxidation_number
F1-	-1
K1+	1
Y3+	3
loop_
_atom_site_label
_atom_site_type_symbol
_atom_site_symmetry_multiplicity
_atom_site_Wyckoff_symbol
_atom_site_fract_x
_atom_site_fract_y
_atom_site_fract_z
_atom_site_occupancy
_atom_site_attached_hydrogens
_atom_site_U_iso_or_equiv
Y1 Y3+ 3 a 0.13331(13) 0.89179(15) 0.6661(2) 1 0 0.0120(3) 
Y2 Y3+ 3 a 0.28454(14) 0.73332(16) 0.6762(3) 1 0 0.0125(2) 
Y3 Y3+ 3 a 0.77952(15) 0.20568(16) 0.6537(2) 1 0 0.0120(3) 
Y4 Y3+ 3 a 0.94207(16) 0.0588(2) 0.6712(3) 1 0 0.0125(2) 
Y5 Y3+ 3 a 0.45206(17) 0.5437(2) 0.6736(2) 1 0 0.0120(3) 
Y6 Y3+ 3 a 0.60309(12) 0.38517(17) 0.6496(2) 1 0 0.0125(2) 
K1 K1+ 3 a 0.2681(4) 0.2190(4) 0.6451(7) 1 0 0.0174(8) 
K2 K1+ 3 a 0.7806(5) 0.7114(5) 0.6783(7) 1 0 0.0255(12) 
K3 K1+ 3 a 0.6117(5) 0.8763(4) 0.6499(5) 1 0 0.0174(8) 
K4 K1+ 3 a 0.1026(4) 0.3965(5) 0.6832(6) 1 0 0.0255(12) 
K5 K1+ 3 a 0.4585(4) 0.0652(4) 0.6831(7) 1 0 0.0255(12) 
K6 K1+ 3 a 0.9484(4) 0.5663(4) 0.6507(6) 1 0 0.0174(8) 
F1 F1- 3 a 0.1287(10) 0.9292(10) 0.8867(17) 1 0 0.0197(15) 
F2 F1- 3 a 0.0714(9) 0.8765(10) 0.4500(15) 1 0 0.0188(14) 
F3 F1- 3 a 0.2065(8) 0.5927(9) 0.5287(14) 1 0 0.0237(9) 
F4 F1- 3 a 0.3331(10) 0.7304(9) 0.3428(16) 1 0 0.0255(10) 
F5 F1- 3 a 0.7385(10) 0.1997(10) 0.4338(17) 1 0 0.0188(14) 
F6 F1- 3 a 0.7870(9) 0.2688(9) 0.8594(15) 1 0 0.0197(15) 
F7 F1- 3 a -0.0066(10) 0.0604(9) 0.3281(15) 1 0 0.0255(10) 
F8 F1- 3 a 0.0789(9) -0.0449(9) 1.1897(14) 1 0 0.0237(9) 
F9 F1- 3 a 0.3901(9) 0.5338(9) 0.4573(15) 1 0 0.0188(14) 
F10 F1- 3 a 0.4515(10) 0.5848(10) 0.8936(16) 1 0 0.0197(15) 
F11 F1- 3 a 0.5506(9) 0.2963(9) 0.4539(15) 1 0 0.0237(9) 
F12 F1- 3 a -0.2600(9) -0.6058(10) 1.3053(14) 1 0 0.0255(10) 
F13 F1- 3 a 0.7708(8) 0.7285(8) 0.9359(15) 1 0 0.0155(12) 
F14 F1- 3 a 0.8088(8) 0.7257(8) 0.4185(14) 1 0 0.0124(9) 
F15 F1- 3 a 0.2460(9) 0.2233(8) 0.3949(14) 1 0 0.0174(12) 
F16 F1- 3 a 0.8171(8) 0.0827(9) 1.5560(13) 1 0 0.0164(11) 
F17 F1- 3 a 0.1252(8) 0.3952(9) 0.4301(13) 1 0 0.0124(9) 
F18 F1- 3 a 0.0958(7) 0.4045(8) 0.9397(12) 1 0 0.0155(12) 
F19 F1- 3 a 0.1623(7) 0.7643(7) 0.5642(11) 1 0 0.0164(11) 
F20 F1- 3 a 0.5913(8) 0.8848(8) 0.4024(14) 1 0 0.0174(12) 
F21 F1- 3 a 0.9440(8) 0.5822(8) 0.3982(14) 1 0 0.0174(12) 
F22 F1- 3 a -0.4084(10) -0.9443(9) 1.2391(14) 1 0 0.0164(11) 
F23 F1- 3 a 0.4766(7) 0.0706(7) 1.4222(12) 1 0 0.0124(9) 
F24 F1- 3 a 0.4599(8) 0.0894(8) 0.9446(12) 1 0 0.0155(12) 

loop_
_atom_site_aniso_label
_atom_site_aniso_type_symbol
_atom_site_aniso_U_11
_atom_site_aniso_U_22
_atom_site_aniso_U_33
_atom_site_aniso_U_12
_atom_site_aniso_U_13
_atom_site_aniso_U_23
Y1 Y3+ 0.0078(3) 0.0140(4) 0.0165(3) 0.00713(18) -0.0020(2) 0.0010(3)
Y2 Y3+ 0.0040(3) 0.0148(4) 0.0198(3) 0.00555(16) -0.0023(2) 0.0041(3)
Y3 Y3+ 0.0078(3) 0.0140(4) 0.0165(3) 0.00713(18) -0.0020(2) 0.0010(3)
Y4 Y3+ 0.0040(3) 0.0148(4) 0.0198(3) 0.00555(16) -0.0023(2) 0.0041(3)
Y5 Y3+ 0.0078(3) 0.0140(4) 0.0165(3) 0.00713(18) -0.0020(2) 0.0010(3)
Y6 Y3+ 0.0040(3) 0.0148(4) 0.0198(3) 0.00555(16) -0.0023(2) 0.0041(3)
K1 K1+ 0.0188(10) 0.0119(8) 0.0168(15) 0.0042(8) 0.0036(9) 0.0018(8)
K2 K1+ 0.0206(11) 0.0336(15) 0.029(2) 0.0189(12) -0.0083(10) -0.0129(12)
K3 K1+ 0.0188(10) 0.0119(8) 0.0168(15) 0.0042(8) 0.0036(9) 0.0018(8)
K4 K1+ 0.0206(11) 0.0336(15) 0.029(2) 0.0189(12) -0.0083(10) -0.0129(12)
K5 K1+ 0.0206(11) 0.0336(15) 0.029(2) 0.0189(12) -0.0083(10) -0.0129(12)
K6 K1+ 0.0188(10) 0.0119(8) 0.0168(15) 0.0042(8) 0.0036(9) 0.0018(8)
#End of data_187000-ICSD


