data_261700-ICSD
#?2014 by Fachinformationszentrum Karlsruhe, and the U.S. Secretary of 
#Commerce on behalf of the United States.  All rights reserved.
_database_code_ICSD                261700
_audit_creation_date               2012/02/01
_chemical_name_systematic          'Dizinc Molybdate(VI) Tellurate(IV)'
_chemical_formula_structural       'Zn2 (Mo O4) (Te O3)'
_chemical_formula_sum              'Mo1 O7 Te1 Zn2'
_publ_section_title
;
Synthesis, characterization, and structure-property relationships in 
two new polar oxides: Zn2 (Mo O4) (Se O3) and Zn2 (Mo O4) (Te O3)
;
loop_
_citation_id
_citation_journal_abbrev
_citation_year
_citation_journal_volume
_citation_journal_issue
_citation_page_first
_citation_page_last
_citation_journal_id_ASTM
primary 'Inorganic Chemistry' 2011 50 11 5215 5233 INOCAJ
_publ_author_name
;
Nguyen Sau Doan;Kim Sang-Hwan;Halasyamani, P.S.
;
_cell_length_a                     5.178(4)
_cell_length_b                     8.409(6)
_cell_length_c                     7.241(5)
_cell_angle_alpha                  90
_cell_angle_beta                   99.351(8)
_cell_angle_gamma                  90
_cell_volume                       311.1
_cell_formula_units_Z              2
_symmetry_space_group_name_H-M     'P 1 21 1'
_symmetry_Int_Tables_number        4
_refine_ls_R_factor_all            .0209
loop_
_symmetry_equiv_pos_site_id
_symmetry_equiv_pos_as_xyz
  1	'-x, y+.5, -z'
  2	'x, y, z'
loop_
_atom_type_symbol
_atom_type_oxidation_number
Mo6+	6
O2-	-2
Te4+	4
Zn2+	2
loop_
_atom_site_label
_atom_site_type_symbol
_atom_site_symmetry_multiplicity
_atom_site_Wyckoff_symbol
_atom_site_fract_x
_atom_site_fract_y
_atom_site_fract_z
_atom_site_occupancy
_atom_site_attached_hydrogens
_atom_site_U_iso_or_equiv
Te1 Te4+ 2 a 0.51609(6) 0.25046(8) 0.35499(5) 1 0 0.00970(15) 
Mo1 Mo6+ 2 a 0.07776(9) 0.53137(7) 0.01575(7) 1 0 0.01031(16) 
Zn1 Zn2+ 2 a 0.94879(13) 0.53915(11) 0.48941(11) 1 0 0.01190(19) 
Zn2 Zn2+ 2 a 0.52197(14) 0.35956(12) 0.76052(9) 1 0 0.0117(2) 
O1 O2- 2 a 0.7038(9) 0.0582(6) 0.3655(7) 1 0 0.0136(10) 
O2 O2- 2 a 0.7551(9) 0.3479(7) 0.5461(7) 1 0 0.0121(10) 
O3 O2- 2 a 0.7916(9) 0.5559(7) 0.8427(7) 1 0 0.0156(10) 
O4 O2- 2 a 0.3115(9) 0.2093(6) 0.5433(7) 1 0 0.0138(10) 
O5 O2- 2 a 0.2767(9) 0.3781(7) 0.9490(7) 1 0 0.0173(11) 
O6 O2- 2 a 0.2561(10) 0.7076(7) 0.0501(7) 1 0 0.0198(12) 
O7 O2- 2 a 0.9939(10) 0.4721(9) 0.2319(7) 1 0 0.0231(14) 

loop_
_atom_site_aniso_label
_atom_site_aniso_type_symbol
_atom_site_aniso_U_11
_atom_site_aniso_U_22
_atom_site_aniso_U_33
_atom_site_aniso_U_12
_atom_site_aniso_U_13
_atom_site_aniso_U_23
Te1 Te4+ 0.0103(2) 0.0103(2) 0.00804(19) 0.00104(14) 0.00012(13) 
0.00023(15)
Mo1 Mo6+ 0.0100(2) 0.0128(3) 0.0075(2) 0.00011(19) -0.00060(19) -0.0005(2)
Zn1 Zn2+ 0.0095(3) 0.0141(5) 0.0117(3) -0.0004(3) 0.0004(3) -0.0016(3)
Zn2 Zn2+ 0.0121(4) 0.0129(5) 0.0099(4) 0.0016(3) 0.0017(3) 0.0002(3)
O1 O2- 0.009(2) 0.012(3) 0.018(2) 0.0028(16) -0.0025(16) -0.0053(19)
O2 O2- 0.012(2) 0.012(3) 0.013(2) -0.0036(18) 0.0014(15) -0.0003(19)
O3 O2- 0.011(2) 0.015(3) 0.019(2) -0.0002(18) -0.0032(18) -0.002(2)
O4 O2- 0.013(2) 0.013(3) 0.017(2) -0.0033(17) 0.0065(17) -0.0020(19)
O5 O2- 0.017(2) 0.019(3) 0.017(2) 0.007(2) 0.0074(18) 0.004(2)
O6 O2- 0.021(2) 0.019(3) 0.017(2) -0.0045(19) -0.0015(19) -0.004(2)
O7 O2- 0.027(3) 0.031(4) 0.013(2) -0.002(2) 0.007(2) -0.001(2)
#End of data_261700-ICSD


