data_157342-ICSD
#?2014 by Fachinformationszentrum Karlsruhe, and the U.S. Secretary of 
#Commerce on behalf of the United States.  All rights reserved.
_database_code_ICSD                157342
_audit_creation_date               2008/02/01
_chemical_name_systematic
;
Tetrasodium Uranium(IV) Tetrakis(molybdate)
;
_chemical_formula_structural       'Na4 U (Mo O4)4'
_chemical_formula_sum              'Mo4 Na4 O16 U1'
_publ_section_title
;
Structural and thermal studies on Na2 U (Mo O4)3 and Na4 U (Mo O4)4
;
loop_
_citation_id
_citation_journal_abbrev
_citation_year
_citation_journal_volume
_citation_page_first
_citation_page_last
_citation_journal_id_ASTM
primary 'Journal of Alloys and Compounds' 2007 440 145 149 JALCEU
_publ_author_name
;
Dahale, N.D.;Keskar, M.;Kulkarni, N.K.;Singh Mudher, K.D.
;
_cell_length_a                     11.1623(2)
_cell_length_b                     11.1623(2)
_cell_length_c                     12.2799(3)
_cell_angle_alpha                  90.
_cell_angle_beta                   90.
_cell_angle_gamma                  90.
_cell_volume                       1530.04
_cell_formula_units_Z              4
_symmetry_space_group_name_H-M     'I 41/a Z'
_symmetry_Int_Tables_number        88
_refine_ls_R_factor_all            .061
loop_
_symmetry_equiv_pos_site_id
_symmetry_equiv_pos_as_xyz
  1	'-y+.75, x+.75, -z+.75'
  2	'y+.25, -x+.75, -z+.75'
  3	'x, y+.5, -z'
  4	'-x, -y, -z'
  5	'y+.25, -x+.25, z+.25'
  6	'-y+.75, x+.25, z+.25'
  7	'-x, -y+.5, z'
  8	'x, y, z'
  9	'-y+.25, x+.25, -z+.25'
 10	'y+.75, -x+.25, -z+.25'
 11	'x+.5, y, -z+.5'
 12	'-x+.5, -y+.5, -z+.5'
 13	'y+.75, -x+.75, z+.75'
 14	'-y+.25, x+.75, z+.75'
 15	'-x+.5, -y, z+.5'
 16	'x+.5, y+.5, z+.5'
loop_
_atom_type_symbol
_atom_type_oxidation_number
Mo6+	6
Na1+	1
O2-	-2
U4+	4
loop_
_atom_site_label
_atom_site_type_symbol
_atom_site_symmetry_multiplicity
_atom_site_Wyckoff_symbol
_atom_site_fract_x
_atom_site_fract_y
_atom_site_fract_z
_atom_site_occupancy
_atom_site_attached_hydrogens
_atom_site_B_iso_or_equiv
Mo1 Mo6+ 16 f 0.5883(3) 0.4254(3) 0.1263(3) 1. 0 1.4(2) 
U1 U4+ 4 b 0.5 0.750 0.125 1. 0 1.1(1) 
Na1 Na1+ 16 f 0.726(1) 0.140(1) 0.094(1) 1. 0 0.9(3) 
O1 O2- 16 f 0.584(2) 0.565(2) 0.058(2) 1. 0 2.2(3) 
O2 O2- 16 f 0.464(2) 0.391(2) 0.204(1) 1. 0 2.2(3) 
O3 O2- 16 f 0.621(1) 0.314(2) 0.031(2) 1. 0 2.2(3) 
O4 O2- 16 f 0.714(2) 0.411(2) 0.218(2) 1. 0 2.2(3) 

#End of data_157342-ICSD


