data_14248-ICSD
#?2014 by Fachinformationszentrum Karlsruhe, and the U.S. Secretary of 
#Commerce on behalf of the United States.  All rights reserved.
_database_code_ICSD                14248
_audit_creation_date               1980/01/01
_audit_update_record               1988/05/03
_chemical_name_systematic          'Trisilver Iodide Bis(nitrate)'
_chemical_formula_structural       'Ag3 I (N O3)2'
_chemical_formula_sum              'Ag3 I1 N2 O6'
_publ_section_title
;
Strukturbestimmung von Ag I (Ag N O3)2
;
loop_
_citation_id
_citation_journal_abbrev
_citation_year
_citation_journal_volume
_citation_page_first
_citation_page_last
_citation_journal_id_ASTM
primary
;
Zeitschrift fuer Kristallographie, Kristallgeometrie, Kristallphysik, 
Kristallchemie (-144,1977)
;
 1970 132 87 98 ZEKGAX
_publ_author_name                  'Birnstock, R.;Britton, D.'
_cell_length_a                     7.53(1)
_cell_length_b                     12.47(2)
_cell_length_c                     7.86(1)
_cell_angle_alpha                  90.
_cell_angle_beta                   90.
_cell_angle_gamma                  90.
_cell_volume                       738.05
_cell_formula_units_Z              4
_symmetry_space_group_name_H-M     'P 21 21 21'
_symmetry_Int_Tables_number        19
_refine_ls_R_factor_all            .106
loop_
_symmetry_equiv_pos_site_id
_symmetry_equiv_pos_as_xyz
  1	'-x, y+.5, -z+.5'
  2	'x+.5, -y+.5, -z'
  3	'-x+.5, -y, z+.5'
  4	'x, y, z'
loop_
_atom_type_symbol
_atom_type_oxidation_number
Ag1+	1
I1-	-1
N5+	5
O2-	-2
loop_
_atom_site_label
_atom_site_type_symbol
_atom_site_symmetry_multiplicity
_atom_site_Wyckoff_symbol
_atom_site_fract_x
_atom_site_fract_y
_atom_site_fract_z
_atom_site_occupancy
_atom_site_attached_hydrogens
_atom_site_B_iso_or_equiv
I1 I1- 4 a 0.7235(4) 0.6112(3) 0.1510(5) 1. 0 0 
Ag1 Ag1+ 4 a 0.0557(6) 0.0634(4) 0.0283(8) 1. 0 0 
Ag2 Ag1+ 4 a 0.4453(6) 0.0461(5) 0.0242(9) 1. 0 0 
Ag3 Ag1+ 4 a 0.5878(8) 0.2230(7) 0.4500(7) 1. 0 0 
O1 O2- 4 a 0.936(5) 0.253(3) 0.043(5) 1. 0 1.82 
O2 O2- 4 a 0.815(8) 0.150(5) 0.234(9) 1. 0 5.25 
O3 O2- 4 a 0.712(5) 0.320(3) 0.240(5) 1. 0 1.59 
O4 O2- 4 a 0.253(7) 0.457(4) 0.084(6) 1. 0 2.49 
O5 O2- 4 a 0.083(5) 0.398(4) 0.290(6) 1. 0 2.04 
O6 O2- 4 a 0.391(8) 0.401(5) 0.319(9) 1. 0 4.84 
N1 N5+ 4 a 0.838(8) 0.246(6) 0.14(1) 1. 0 4.1 
N2 N5+ 4 a 0.234(5) 0.417(3) 0.230(5) 1. 0 0.44 

#End of data_14248-ICSD


