data_97630-ICSD
#?2014 by Fachinformationszentrum Karlsruhe, and the U.S. Secretary of 
#Commerce on behalf of the United States.  All rights reserved.
_database_code_ICSD                97630
_audit_creation_date               2004/10/01
_chemical_name_systematic
;
Potassium Gadolinium Cyclo-tetraphosphate(V)
;
_chemical_formula_structural       'K Gd (P O3)4'
_chemical_formula_sum              'Gd1 K1 O12 P4'
_publ_section_title
;
Synthesis and crystal structure of a new potassium-gadolinium 
cyclotetraphosphate, K Gd P4 O12
;
loop_
_citation_id
_citation_journal_abbrev
_citation_year
_citation_journal_volume
_citation_journal_issue
_citation_page_first
_citation_page_last
_citation_journal_id_ASTM
primary 'Crystal Growth and Design' 2003 3 4 599 602 CGDEFU
_publ_author_name                  'Ettis, H.;Naili, H.;Mhiri, T.'
_cell_length_a                     7.875(1)
_cell_length_b                     12.431(2)
_cell_length_c                     10.537(2)
_cell_angle_alpha                  90
_cell_angle_beta                   110.94(1)
_cell_angle_gamma                  90
_cell_volume                       963.38
_cell_formula_units_Z              4
_symmetry_space_group_name_H-M     'C 1 2/c 1'
_symmetry_Int_Tables_number        15
_refine_ls_R_factor_all            .0299
loop_
_symmetry_equiv_pos_site_id
_symmetry_equiv_pos_as_xyz
  1	'x, -y, z+.5'
  2	'-x, -y, -z'
  3	'-x, y, -z+.5'
  4	'x, y, z'
  5	'x+.5, -y+.5, z+.5'
  6	'-x+.5, -y+.5, -z'
  7	'-x+.5, y+.5, -z+.5'
  8	'x+.5, y+.5, z'
loop_
_atom_type_symbol
_atom_type_oxidation_number
Gd3+	3
K1+	1
O2-	-2
P5+	5
loop_
_atom_site_label
_atom_site_type_symbol
_atom_site_symmetry_multiplicity
_atom_site_Wyckoff_symbol
_atom_site_fract_x
_atom_site_fract_y
_atom_site_fract_z
_atom_site_occupancy
_atom_site_attached_hydrogens
_atom_site_U_iso_or_equiv
Gd1 Gd3+ 4 e 0.5 0.6196(1) 0.750 1. 0 0.0071(1) 
K1 K1+ 4 e 0.5 0.6837(1) 0.250 1. 0 0.0400(4) 
P1 P5+ 8 f 0.2174(1) 0.4770(1) 0.4403(1) 1. 0 0.0080(2) 
P2 P5+ 8 f 0.0417(1) 0.6707(1) 0.4982(1) 1. 0 0.0078(2) 
O1 O2- 8 f 0.2804(3) 0.4728(2) 0.3237(3) 1. 0 0.0123(4) 
O2 O2- 8 f 0.3508(3) 0.4875(2) 0.5818(3) 1. 0 0.0139(5) 
O3 O2- 8 f 0.0949(4) 0.3727(2) 0.4302(3) 1. 0 0.0128(5) 
O4 O2- 8 f 0.0689(3) 0.5713(2) 0.4119(2) 1. 0 0.0115(4) 
O5 O2- 8 f -0.0597(3) 0.7556(2) 0.4008(3) 1. 0 0.0141(5) 
O6 O2- 8 f 0.2108(3) 0.7001(2) 0.6137(2) 1. 0 0.0123(4) 

loop_
_atom_site_aniso_label
_atom_site_aniso_type_symbol
_atom_site_aniso_U_11
_atom_site_aniso_U_22
_atom_site_aniso_U_33
_atom_site_aniso_U_12
_atom_site_aniso_U_13
_atom_site_aniso_U_23
Gd1 Gd3+ 0.0072(2) 0.0054(2) 0.0072(2) 0. 0.0006(1) 0.
K1 K1+ 0.0864(3) 0.0131(5) 0.0209(6) 0. 0.0195(7) 0.
P1 P5+ 0.0069(3) 0.0074(3) 0.0088(4) -.0005(2) 0.0018(3) -.0009(2)
P2 P5+ 0.0073(3) 0.0060(3) 0.0091(3) 0.0001(2) 0.0013(3) 0.0011(2)
O1 O2- 0.0134(11) 0.0129(11) 0.0130(11) 0.0018(8) 0.0075(9) 0.0005(8)
O2 O2- 0.0125(11) 0.0126(10) 0.0132(11) -.0003(8) 0.0005(9) -.0019(8)
O3 O2- 0.0152(13) 0.0083(10) 0.0169(13) -.0044(8) 0.0080(11) -.0026(8)
O4 O2- 0.0117(10) 0.0095(10) 0.0115(10) 0.0025(8) 0.0020(8) -.0004(8)
O5 O2- 0.0120(10) 0.0114(11) 0.0176(12) 0.0027(8) 0.0036(9) 0.0068(9)
O6 O2- 0.0110(10) 0.0095(10) 0.0127(11) -.0008(8) -.0003(9) -.0004(8)
#End of data_97630-ICSD


