data_26073-ICSD
#?2014 by Fachinformationszentrum Karlsruhe, and the U.S. Secretary of 
#Commerce on behalf of the United States.  All rights reserved.
_database_code_ICSD                26073
_audit_creation_date               1980/01/01
_chemical_name_systematic          'Sodium Hexafluoroniccolate(III)'
_chemical_formula_structural       'Na3 Ni F6'
_chemical_formula_sum              'F6 Na3 Ni1'
_publ_section_title
;
Ueber Na3 Ni F6 und andere Kryolithe
;
loop_
_citation_id
_citation_journal_abbrev
_citation_year
_citation_journal_volume
_citation_page_first
_citation_page_last
_citation_journal_id_ASTM
primary 'Zeitschrift fuer Anorganische und Allgemeine Chemie (1950) (DE)'
 1969 364 253 260 ZAACAB
_publ_author_name                  'Henkel, H.;Hoppe, R.'
_cell_length_a                     5.44
_cell_length_b                     5.67
_cell_length_c                     7.85
_cell_angle_alpha                  90.
_cell_angle_beta                   90.1
_cell_angle_gamma                  90.
_cell_volume                       242.13
_cell_formula_units_Z              2
_symmetry_space_group_name_H-M     'P 1 21/n 1'
_symmetry_Int_Tables_number        14
loop_
_symmetry_equiv_pos_site_id
_symmetry_equiv_pos_as_xyz
  1	'-x+.5, y+.5, -z+.5'
  2	'-x, -y, -z'
  3	'x+.5, -y+.5, z+.5'
  4	'x, y, z'
loop_
_atom_type_symbol
_atom_type_oxidation_number
F1-	-1
Na1+	1
Ni3+	3
loop_
_atom_site_label
_atom_site_type_symbol
_atom_site_symmetry_multiplicity
_atom_site_Wyckoff_symbol
_atom_site_fract_x
_atom_site_fract_y
_atom_site_fract_z
_atom_site_occupancy
_atom_site_attached_hydrogens
Ni1 Ni3+ 2 a 0 0 0 1. 0 
Na1 Na1+ 2 b 0 0 0.5 1. 0 
Na2 Na1+ 4 e 0.5 -.055 0.24 1. 0 
F1 F1- 4 e 0.065 0.06 0.22 1. 0 
F2 F1- 4 e -.29 0.16 0.03 1. 0 
F3 F1- 4 e 0.15 0.28 -.06 1. 0 

#End of data_26073-ICSD


