data_414270-ICSD
#?2014 by Fachinformationszentrum Karlsruhe, and the U.S. Secretary of 
#Commerce on behalf of the United States.  All rights reserved.
_database_code_ICSD                414270
_audit_creation_date               2005/10/01
_audit_update_record               2008/02/01
_chemical_name_systematic
;
Tripotassium Catena-octaselenotriargentoditantalate
;
_chemical_formula_structural       'K3 (Ag3 Ta2 Se8)'
_chemical_formula_sum              'Ag3 K3 Se8 Ta2'
_publ_section_title
;
Low dimensional materials: syntheses structures, and optical 
properties of Rb2 Cu Ta S4, Rb2 Cu Ta Se4, Rb Cu2 Ta Se4, K3 Ag3 Ta2 
Se8, and Rb3 Ag Ta2 Se12
;
loop_
_citation_id
_citation_journal_abbrev
_citation_year
_citation_journal_volume
_citation_page_first
_citation_page_last
_citation_journal_id_ASTM
primary 'Zeitschrift fuer Naturforschung, B: Chemical Sciences'
 2004 59 1006 1014 ZNBSEN
_publ_author_name                  'Wu, Y.;Naether, C.;Bensch, W.'
_cell_length_a                     25.137(5)
_cell_length_b                     6.1007(12)
_cell_length_c                     14.403(3)
_cell_angle_alpha                  90.00
_cell_angle_beta                   119.70(3)
_cell_angle_gamma                  90.00
_cell_volume                       1918.59
_cell_formula_units_Z              4
_symmetry_space_group_name_H-M     'C 1 2/c 1'
_symmetry_Int_Tables_number        15
_refine_ls_R_factor_all            .0423
loop_
_symmetry_equiv_pos_site_id
_symmetry_equiv_pos_as_xyz
  1	'x, -y, z+.5'
  2	'-x, -y, -z'
  3	'-x, y, -z+.5'
  4	'x, y, z'
  5	'x+.5, -y+.5, z+.5'
  6	'-x+.5, -y+.5, -z'
  7	'-x+.5, y+.5, -z+.5'
  8	'x+.5, y+.5, z'
loop_
_atom_type_symbol
_atom_type_oxidation_number
Ag1+	1
K1+	1
Se2-	-2
Ta5+	5
loop_
_atom_site_label
_atom_site_type_symbol
_atom_site_symmetry_multiplicity
_atom_site_Wyckoff_symbol
_atom_site_fract_x
_atom_site_fract_y
_atom_site_fract_z
_atom_site_occupancy
_atom_site_attached_hydrogens
_atom_site_U_iso_or_equiv
Ta1 Ta5+ 8 f 0.129199(11) 0.69450(4) 0.28229(2) 1 0 0.00832(14) 
Ag1 Ag1+ 4 e 0.0000 0.69089(14) 0.2500 1 0 0.0212(2) 
Ag2 Ag1+ 8 f 0.12896(3) 0.19462(10) 0.29273(5) 1 0 0.01956(18) 
Se1 Se2- 8 f 0.15976(3) 0.92546(12) 0.18115(6) 1 0 0.01619(19) 
Se2 Se2- 8 f 0.04638(3) 0.46993(12) 0.14886(6) 1 0 0.01649(19) 
Se3 Se2- 8 f 0.21712(3) 0.48093(12) 0.39951(6) 1 0 0.01458(19) 
Se4 Se2- 8 f 0.09866(3) 0.90378(12) 0.39319(6) 1 0 0.01332(18) 
K1 K1+ 8 f 0.19436(8) 0.4266(3) 0.10740(14) 1 0 0.0240(4) 
K2 K1+ 4 a 0.0000 0.0000 0.0000 1 0 0.0216(5) 

loop_
_atom_site_aniso_label
_atom_site_aniso_type_symbol
_atom_site_aniso_U_11
_atom_site_aniso_U_22
_atom_site_aniso_U_33
_atom_site_aniso_U_12
_atom_site_aniso_U_13
_atom_site_aniso_U_23
Ta1 Ta5+ 0.01085(19) 0.0046(2) 0.01055(19) 0.00096(8) 0.00607(13) 
0.00032(8)
Ag1 Ag1+ 0.0129(4) 0.0235(5) 0.0283(5) 0.000 0.0111(3) 0.000
Ag2 Ag1+ 0.0260(3) 0.0064(4) 0.0275(3) -0.00020(18) 0.0141(3) 0.0001(2)
Se1 Se2- 0.0244(4) 0.0111(4) 0.0203(4) 0.0024(3) 0.0166(3) 0.0042(3)
Se2 Se2- 0.0165(3) 0.0113(4) 0.0158(4) 0.0005(3) 0.0035(3) -0.0041(3)
Se3 Se2- 0.0119(3) 0.0104(4) 0.0191(4) 0.0024(2) 0.0060(3) 0.0038(3)
Se4 Se2- 0.0167(3) 0.0114(4) 0.0153(3) -0.0010(2) 0.0105(3) -0.0029(2)
K1 K1+ 0.0288(8) 0.0248(10) 0.0216(8) 0.0033(7) 0.0150(7) -0.0035(7)
K2 K1+ 0.0215(11) 0.0178(12) 0.0219(12) -0.0029(9) 0.0080(10) -0.0019(9)
#End of data_414270-ICSD


