data_23523-ICSD
#?2014 by Fachinformationszentrum Karlsruhe, and the U.S. Secretary of 
#Commerce on behalf of the United States.  All rights reserved.
_database_code_ICSD                23523
_audit_creation_date               1980/01/01
_audit_update_record               2005/10/01
_chemical_name_systematic          'Calcium Germanium Nitride'
_chemical_formula_structural       'Ca Ge N2'
_chemical_formula_sum              'Ca1 Ge1 N2'
_publ_section_title
;
Etude structurale de Ca Ge N2 et Ca1-x Ge N2
;
loop_
_citation_id
_citation_journal_abbrev
_citation_year
_citation_journal_volume
_citation_page_first
_citation_page_last
_citation_journal_id_ASTM
primary
;
Bulletin de la Societe Francaise de Mineralogie et de 
Cristallographie (72,1949-100,1977)
;
 1971 94 347 352 BUFCAE
_publ_author_name
;
Maunaye, M.;Guyader, J.;Laurent, Y.;Lang, J.
;
_cell_length_a                     5.426
_cell_length_b                     5.426
_cell_length_c                     7.154
_cell_angle_alpha                  90.
_cell_angle_beta                   90.
_cell_angle_gamma                  90.
_cell_volume                       210.62
_cell_formula_units_Z              4
_symmetry_space_group_name_H-M     'I -4 2 d'
_symmetry_Int_Tables_number        122
_refine_ls_R_factor_all            .074
loop_
_symmetry_equiv_pos_site_id
_symmetry_equiv_pos_as_xyz
  1	'-y, -x+.5, z+.25'
  2	'y, -x, -z'
  3	'y, x+.5, z+.25'
  4	'-y, x, -z'
  5	'x, -y+.5, -z+.25'
  6	'-x, -y, z'
  7	'-x, y+.5, -z+.25'
  8	'x, y, z'
  9	'-y+.5, -x, z+.75'
 10	'y+.5, -x+.5, -z+.5'
 11	'y+.5, x, z+.75'
 12	'-y+.5, x+.5, -z+.5'
 13	'x+.5, -y, -z+.75'
 14	'-x+.5, -y+.5, z+.5'
 15	'-x+.5, y, -z+.75'
 16	'x+.5, y+.5, z+.5'
loop_
_atom_type_symbol
_atom_type_oxidation_number
Ca2+	2
Ge4+	4
N3-	-3
loop_
_atom_site_label
_atom_site_type_symbol
_atom_site_symmetry_multiplicity
_atom_site_Wyckoff_symbol
_atom_site_fract_x
_atom_site_fract_y
_atom_site_fract_z
_atom_site_occupancy
_atom_site_attached_hydrogens
Ca1 Ca2+ 4 b 0 0 0.5 1. 0 
Ge1 Ge4+ 4 a 0 0 0 1. 0 
N1 N3- 8 d 0.164 0.25 0.125 1. 0 

#End of data_23523-ICSD


