data_89033-ICSD
#?2014 by Fachinformationszentrum Karlsruhe, and the U.S. Secretary of 
#Commerce on behalf of the United States.  All rights reserved.
_database_code_ICSD                89033
_audit_creation_date               2001/07/16
_chemical_name_systematic
;
Disodium Bis(dioxouranium(VI)) Silicate Difluoride
;
_chemical_formula_structural       'Na2 (U O2)2 (Si O4) F2'
_chemical_formula_sum              'F2 Na2 O8 Si1 U2'
_publ_section_title
;
The crystal structure of Na2 (U O2)2 Si O4 F2, a compound 
structurally related to soddyite, and formed during uranyl silicate 
synthesis in Teflon-lined bombs
;
loop_
_citation_id
_citation_journal_abbrev
_citation_year
_citation_journal_volume
_citation_journal_issue
_citation_page_first
_citation_page_last
_citation_journal_id_ASTM
primary 'Neues Jahrbuch fuer Mineralogie. Monatshefte (Band=Jahr) (1950-)'
 1999 1999 6 253 264 NJMMAW
_publ_author_name
;
Blaton, N.;Vochten, R.;Peters, O.M.;van Springel, K.
;
_cell_length_a                     6.975(8)
_cell_length_b                     6.975(8)
_cell_length_c                     18.31(2)
_cell_angle_alpha                  90.
_cell_angle_beta                   90.
_cell_angle_gamma                  90.
_cell_volume                       890.79
_cell_formula_units_Z              4
_symmetry_space_group_name_H-M     'I 41/a m d Z'
_symmetry_Int_Tables_number        141
_refine_ls_R_factor_all            .03
loop_
_symmetry_equiv_pos_site_id
_symmetry_equiv_pos_as_xyz
  1	'y+.25, x+.75, -z+.25'
  2	'y+.25, -x+.75, -z+.25'
  3	'x, y+.5, -z'
  4	'x, -y, -z'
  5	'-y+.75, x+.75, -z+.25'
  6	'-y+.75, -x+.75, -z+.25'
  7	'-x, y+.5, -z'
  8	'-x, -y, -z'
  9	'-y+.75, -x+.25, z+.75'
 10	'-y+.75, x+.25, z+.75'
 11	'-x, -y+.5, z'
 12	'-x, y, z'
 13	'y+.25, -x+.25, z+.75'
 14	'y+.25, x+.25, z+.75'
 15	'x, -y+.5, z'
 16	'x, y, z'
 17	'y+.75, x+.25, -z+.75'
 18	'y+.75, -x+.25, -z+.75'
 19	'x+.5, y, -z+.5'
 20	'x+.5, -y+.5, -z+.5'
 21	'-y+.25, x+.25, -z+.75'
 22	'-y+.25, -x+.25, -z+.75'
 23	'-x+.5, y, -z+.5'
 24	'-x+.5, -y+.5, -z+.5'
 25	'-y+.25, -x+.75, z+.25'
 26	'-y+.25, x+.75, z+.25'
 27	'-x+.5, -y, z+.5'
 28	'-x+.5, y+.5, z+.5'
 29	'y+.75, -x+.75, z+.25'
 30	'y+.75, x+.75, z+.25'
 31	'x+.5, -y, z+.5'
 32	'x+.5, y+.5, z+.5'
loop_
_atom_type_symbol
_atom_type_oxidation_number
F1-	-1
Na1+	1
O2-	-2
Si4+	4
U6+	6
loop_
_atom_site_label
_atom_site_type_symbol
_atom_site_symmetry_multiplicity
_atom_site_Wyckoff_symbol
_atom_site_fract_x
_atom_site_fract_y
_atom_site_fract_z
_atom_site_occupancy
_atom_site_attached_hydrogens
_atom_site_U_iso_or_equiv
U1 U6+ 8 e 0.5 0.25 0.95147(2) 1. 0 0.0146(3) 
Si1 Si4+ 4 b 0.5 0.25 0.125 1. 0 0.0133(11) 
F1 F1- 8 e 0.5 0.25 0.8292(3) 1. 0 0.034(4) 
O1 O2- 16 h 0.2417(15) 0.25 -.0490(2) 1. 0 0.027(3) 
O2 O2- 16 h 0.6747(12) 0.25 0.1822(2) 1. 0 0.019(3) 
Na1 Na1+ 8 c 0 0 0 1. 0 0.045(3) 

#End of data_89033-ICSD


