data_74824-ICSD
#?2014 by Fachinformationszentrum Karlsruhe, and the U.S. Secretary of 
#Commerce on behalf of the United States.  All rights reserved.
_database_code_ICSD                74824
_audit_creation_date               1995/10/17
_audit_update_record               2011/02/01
_chemical_name_systematic
;
Tristrontium Catena-tetranitridodialuminate
;
_chemical_formula_structural       'Sr3 (Al2 N4)'
_chemical_formula_sum              'Al2 N4 Sr3'
_publ_section_title
;
Sr3 (Al2 N4): ein Nitridoaluminat mit gewellten Tetraederketten 1(Al 
N4/2(3-))
;
loop_
_citation_id
_citation_journal_abbrev
_citation_year
_citation_journal_volume
_citation_page_first
_citation_page_last
_citation_journal_id_ASTM
primary 'Zeitschrift fuer Naturforschung, B: Chemical Sciences'
 1994 49 501 505 ZNBSEN
_publ_author_name
;
Blase, W.;Cordier, G.;Ludwig, M.;Kniep, R.
;
_cell_length_a                     5.901(3)
_cell_length_b                     10.005(5)
_cell_length_c                     9.580(4)
_cell_angle_alpha                  90.
_cell_angle_beta                   90.
_cell_angle_gamma                  90.
_cell_volume                       565.6
_cell_formula_units_Z              4
_symmetry_space_group_name_H-M     'P n n a'
_symmetry_Int_Tables_number        52
_refine_ls_R_factor_all            .036
loop_
_symmetry_equiv_pos_site_id
_symmetry_equiv_pos_as_xyz
  1	'x+.5, -y+.5, z+.5'
  2	'-x, y+.5, z+.5'
  3	'x+.5, y, -z'
  4	'-x, -y, -z'
  5	'-x+.5, y+.5, -z+.5'
  6	'x, -y+.5, -z+.5'
  7	'-x+.5, -y, z'
  8	'x, y, z'
loop_
_atom_type_symbol
_atom_type_oxidation_number
Al3+	3
N3-	-3
Sr2+	2
loop_
_atom_site_label
_atom_site_type_symbol
_atom_site_symmetry_multiplicity
_atom_site_Wyckoff_symbol
_atom_site_fract_x
_atom_site_fract_y
_atom_site_fract_z
_atom_site_occupancy
_atom_site_attached_hydrogens
Sr1 Sr2+ 8 e 0.1169(1) 0.3445(1) 0.9152(1) 1. 0 
Sr2 Sr2+ 4 c 0.25 0 0.9043(1) 1. 0 
Al1 Al3+ 4 c 0.25 0 0.2300(3) 1. 0 
Al2 Al3+ 4 d 0.1690(5) 0.25 0.25 1. 0 
N1 N3- 8 e 0.3684(11) 0.1455(6) 0.1285(7) 1. 0 
N2 N3- 8 e 0.0206(13) 0.0968(7) 0.3309(8) 1. 0 

loop_
_atom_site_aniso_label
_atom_site_aniso_type_symbol
_atom_site_aniso_U_11
_atom_site_aniso_U_22
_atom_site_aniso_U_33
_atom_site_aniso_U_12
_atom_site_aniso_U_13
_atom_site_aniso_U_23
Sr1 Sr2+ 0.0078(3) 0.0078(3) 0.0086(3) -.0022(3) 0.0009(3) -.0016(3)
Sr2 Sr2+ 0.0093(5) 0.0093(4) 0.0070(4) 0.0024(4) 0 0
Al1 Al3+ 0.0036(13) 0.0063(13) 0.0055(13) 0.0008(11) 0 0
Al2 Al3+ 0.0025(13) 0.0043(13) 0.0056(13) 0 0 -.0005(11)
N1 N3- 0.0074(28) 0.0047(26) 0.0135(23) -.0044(23) 0.0031(25) -.0023(23)
N2 N3- 0.0133(32) 0.0093(39) 0.0135(31) -.0067(26) 0.0050(26) 0.0007(26)
#End of data_74824-ICSD


