data_28831-ICSD
#?2014 by Fachinformationszentrum Karlsruhe, and the U.S. Secretary of 
#Commerce on behalf of the United States.  All rights reserved.
_database_code_ICSD                28831
_audit_creation_date               1980/01/01
_chemical_name_systematic          'Sodium Bromate'
_chemical_formula_structural       'Na Br O3'
_chemical_formula_sum              'Br1 Na1 O3'
_publ_section_title
;
The Crystal Structures of Sodium Chlorate and Sodium Bromate
;
loop_
_citation_id
_citation_journal_abbrev
_citation_year
_citation_journal_volume
_citation_page_first
_citation_page_last
_citation_journal_id_ASTM
primary 'Journal of the American Chemical Society' 1921 43 2045 2055 JACSAT
_publ_author_name                  'Dickinson, R.G.;Goodhue, E.A.'
_cell_length_a                     6.71
_cell_length_b                     6.71
_cell_length_c                     6.71
_cell_angle_alpha                  90.
_cell_angle_beta                   90.
_cell_angle_gamma                  90.
_cell_volume                       302.11
_cell_formula_units_Z              4
_symmetry_space_group_name_H-M     'P 21 3'
_symmetry_Int_Tables_number        198
loop_
_symmetry_equiv_pos_site_id
_symmetry_equiv_pos_as_xyz
  1	'-z+.5, -x, y+.5'
  2	'-y+.5, -z, x+.5'
  3	'-x+.5, -y, z+.5'
  4	'-z, x+.5, -y+.5'
  5	'-y, z+.5, -x+.5'
  6	'-x, y+.5, -z+.5'
  7	'z+.5, -x+.5, -y'
  8	'y+.5, -z+.5, -x'
  9	'x+.5, -y+.5, -z'
 10	'z, x, y'
 11	'y, z, x'
 12	'x, y, z'
loop_
_atom_type_symbol
_atom_type_oxidation_number
Br5+	5
Na1+	1
O2-	-2
loop_
_atom_site_label
_atom_site_type_symbol
_atom_site_symmetry_multiplicity
_atom_site_Wyckoff_symbol
_atom_site_fract_x
_atom_site_fract_y
_atom_site_fract_z
_atom_site_occupancy
_atom_site_attached_hydrogens
Na1 Na1+ 4 a 0.09 0.09 0.09 1. 0 
Br1 Br5+ 4 a 0.41 0.41 0.41 1. 0 
O1 O2- 12 b 0.3 0.6 0.47 1. 0 

#End of data_28831-ICSD


