data_67236-ICSD
#?2014 by Fachinformationszentrum Karlsruhe, and the U.S. Secretary of 
#Commerce on behalf of the United States.  All rights reserved.
_database_code_ICSD                67236
_audit_creation_date               1990/12/27
_audit_update_record               2006/04/01
_chemical_name_systematic          'Dilithium Tungstate'
_chemical_formula_structural       'Li2 (W O4)'
_chemical_formula_sum              'Li2 O4 W1'
_publ_section_title
;
A uniform description of phenakite type structures as superstructures 
of beta-Si3 N4
;
loop_
_citation_id
_citation_journal_abbrev
_citation_year
_citation_journal_volume
_citation_page_first
_citation_page_last
_citation_journal_id_ASTM
primary 'Zeitschrift fuer Kristallographie (1979-2010)' 1989 187 139 143 ZEKRDZ
2 'Golden Book of Phase Transitions, Wroclaw' 2002 1 1 123 GBOPT5
_publ_author_name                  'Hartmann, P.'
_cell_length_a                     14.361
_cell_length_b                     14.361
_cell_length_c                     9.602
_cell_angle_alpha                  90.
_cell_angle_beta                   90.
_cell_angle_gamma                  120.
_cell_volume                       1714.99
_cell_formula_units_Z              18
_symmetry_space_group_name_H-M     'R -3 H'
_symmetry_Int_Tables_number        148
loop_
_symmetry_equiv_pos_site_id
_symmetry_equiv_pos_as_xyz
  1	'x-y, x, -z'
  2	'y, -x+y, -z'
  3	'-x, -y, -z'
  4	'-x+y, -x, z'
  5	'-y, x-y, z'
  6	'x, y, z'
  7	'x-y+.6666, x+.3333, -z+.3333'
  8	'x-y+.3333, x+.6666, -z+.6666'
  9	'y+.6666, -x+y+.3333, -z+.3333'
 10	'y+.3333, -x+y+.6666, -z+.6666'
 11	'-x+.6666, -y+.3333, -z+.3333'
 12	'-x+.3333, -y+.6666, -z+.6666'
 13	'-x+y+.6666, -x+.3333, z+.3333'
 14	'-x+y+.3333, -x+.6666, z+.6666'
 15	'-y+.6666, x-y+.3333, z+.3333'
 16	'-y+.3333, x-y+.6666, z+.6666'
 17	'x+.6666, y+.3333, z+.3333'
 18	'x+.3333, y+.6666, z+.6666'
loop_
_atom_type_symbol
_atom_type_oxidation_number
Li1+	1
O2-	-2
W6+	6
loop_
_atom_site_label
_atom_site_type_symbol
_atom_site_symmetry_multiplicity
_atom_site_Wyckoff_symbol
_atom_site_fract_x
_atom_site_fract_y
_atom_site_fract_z
_atom_site_occupancy
_atom_site_attached_hydrogens
W1 W6+ 18 f 0.2157 0.1954 0.2493 1. 0 
Li1 Li1+ 18 f 0.214 0.188 0.589 1. 0 
Li2 Li1+ 18 f 0.205 0.191 0.909 1. 0 
O1 O2- 18 f 0.3285 0.3275 0.2498 1. 0 
O2 O2- 18 f 0.2205 0.1235 0.0972 1. 0 
O3 O2- 18 f 0.2147 0.1238 0.4007 1. 0 
O4 O2- 18 f 0.2112 0.1117 0.75 1. 0 

#End of data_67236-ICSD


