data_79075-ICSD
#?2014 by Fachinformationszentrum Karlsruhe, and the U.S. Secretary of 
#Commerce on behalf of the United States.  All rights reserved.
_database_code_ICSD                79075
_audit_creation_date               1996/04/22
_audit_update_record               2013/08/01
_chemical_name_systematic
;
Potassium Hydrogensulfate(VI) Dihydrogenulfate(VI)
;
_chemical_formula_structural       'K (H S O4) (H2 S O4)'
_chemical_formula_sum              'H3 K1 O8 S2'
_publ_section_title
;
Kaliumhydrogensulfat-Dihydrogensulfat, K (H S O4) (H2 S O4) Synthese 
und Kristallstruktur
;
loop_
_citation_id
_citation_journal_abbrev
_citation_year
_citation_journal_volume
_citation_page_first
_citation_page_last
_citation_journal_id_ASTM
primary 'Zeitschrift fuer Anorganische und Allgemeine Chemie (1950) (DE)'
 1995 621 1075 1079 ZAACAB
_publ_author_name
;
Kemnitz, E.;Werner, C.;Worzala, H.;Troyanov, S.I.
;
_cell_length_a                     7.654(3)
_cell_length_b                     11.473(5)
_cell_length_c                     8.643(3)
_cell_angle_alpha                  90.
_cell_angle_beta                   112.43(3)
_cell_angle_gamma                  90.
_cell_volume                       701.56
_cell_formula_units_Z              4
_symmetry_space_group_name_H-M     'P 1 21/c 1'
_symmetry_Int_Tables_number        14
_refine_ls_R_factor_all            .034
loop_
_symmetry_equiv_pos_site_id
_symmetry_equiv_pos_as_xyz
  1	'x, -y+.5, z+.5'
  2	'-x, -y, -z'
  3	'-x, y+.5, -z+.5'
  4	'x, y, z'
loop_
_atom_type_symbol
_atom_type_oxidation_number
H1+	1
K1+	1
O2-	-2
S6+	6
loop_
_atom_site_label
_atom_site_type_symbol
_atom_site_symmetry_multiplicity
_atom_site_Wyckoff_symbol
_atom_site_fract_x
_atom_site_fract_y
_atom_site_fract_z
_atom_site_occupancy
_atom_site_attached_hydrogens
_atom_site_U_iso_or_equiv
K1 K1+ 4 e 0.8593(1) 0.2489(1) -.0541(1) 1. 0 0.029(1) 
S1 S6+ 4 e 0.0719(2) 0.4991(1) 0.2674(1) 1. 0 0.023(1) 
S2 S6+ 4 e 0.4324(2) 0.2949(1) 0.0702(1) 1. 0 0.023(1) 
O1 O2- 4 e -.0326(5) 0.6070(3) 0.2504(4) 1. 0 0.034(1) 
O2 O2- 4 e -.0400(5) 0.3954(3) 0.2291(4) 1. 0 0.036(1) 
O3 O2- 4 e 0.1974(5) 0.5096(3) 0.1772(4) 1. 0 0.038(1) 
O4 O2- 4 e 0.2000(5) 0.4978(3) 0.4580(4) 1. 0 0.036(1) 
O5 O2- 4 e 0.2669(4) 0.2277(3) 0.0483(4) 1. 0 0.032(1) 
O6 O2- 4 e 0.6018(5) 0.2334(3) 0.1007(4) 1. 0 0.039(1) 
O7 O2- 4 e 0.4717(5) 0.3794(3) 0.2130(4) 1. 0 0.035(1) 
O8 O2- 4 e 0.3943(5) 0.3702(3) -.0848(4) 1. 0 0.039(1) 
H1 H1+ 4 e 0.228(7) 0.423(5) 0.472(6) 1. 0 0.03(1) 
H2 H1+ 4 e 0.376(11) 0.393(9) 0.215(10) 1. 0 0.12(4) 
H3 H1+ 4 e 0.281(14) 0.389(10) 0.859(13) 1. 0 0.17(5) 

#End of data_79075-ICSD


