data_60510-ICSD
#?2014 by Fachinformationszentrum Karlsruhe, and the U.S. Secretary of 
#Commerce on behalf of the United States.  All rights reserved.
_database_code_ICSD                60510
_audit_creation_date               1986/12/03
_chemical_name_systematic
;
Tetrapotassium Tetrametaphosphate Tetrahydrate
;
_chemical_formula_structural       'K4 P4 O12 (H2 O)4'
_chemical_formula_sum              'H8 K4 O16 P4'
_publ_section_title
;
Structure of tetrapotassium tetrametaphosphate tetrahydrate
;
loop_
_citation_id
_citation_journal_abbrev
_citation_year
_citation_journal_volume
_citation_page_first
_citation_page_last
_citation_journal_id_ASTM
primary 'Acta Crystallographica, Section C: Crystal Structure Communications'
 1985 41 1564 1566 ACSCEE
_publ_author_name                  'Averbuch-Pouchot, M.T.;Durif, A.'
_cell_length_a                     9.061(3)
_cell_length_b                     9.061(3)
_cell_length_c                     10.284(5)
_cell_angle_alpha                  90.
_cell_angle_beta                   90.
_cell_angle_gamma                  90.
_cell_volume                       844.33
_cell_formula_units_Z              2
_symmetry_space_group_name_H-M     'I -4'
_symmetry_Int_Tables_number        82
_refine_ls_R_factor_all            .03
loop_
_symmetry_equiv_pos_site_id
_symmetry_equiv_pos_as_xyz
  1	'-y, x, -z'
  2	'y, -x, -z'
  3	'-x, -y, z'
  4	'x, y, z'
  5	'-y+.5, x+.5, -z+.5'
  6	'y+.5, -x+.5, -z+.5'
  7	'-x+.5, -y+.5, z+.5'
  8	'x+.5, y+.5, z+.5'
loop_
_atom_type_symbol
_atom_type_oxidation_number
H1+	1
K1+	1
O2-	-2
P5+	5
loop_
_atom_site_label
_atom_site_type_symbol
_atom_site_symmetry_multiplicity
_atom_site_Wyckoff_symbol
_atom_site_fract_x
_atom_site_fract_y
_atom_site_fract_z
_atom_site_occupancy
_atom_site_attached_hydrogens
K1 K1+ 8 g 0.45927(9) 0.2444(1) 0.13320(8) 1. 0 
P1 P5+ 8 g 0.07129(8) 0.21842(8) -.0005(1) 1. 0 
O1 O2- 8 g 0.8406(3) 0.7240(3) 0.1108(3) 1. 0 
O2 O2- 8 g 0.5367(3) 0.8180(3) 0.3895(3) 1. 0 
O3 O2- 8 g 0.9243(3) 0.1497(3) 0.0625(2) 1. 0 
O4 O2- 8 g 0.0488(4) 0.2078(4) 0.3613(3) 1. 0 
H1 H1+ 8 g 0.966(7) 0.263(7) 0.372(6) 1. 0 
H2 H1+ 8 g 0.106(9) 0.235(10) 0.285(8) 1. 0 

#End of data_60510-ICSD


