data_159567-ICSD
#?2014 by Fachinformationszentrum Karlsruhe, and the U.S. Secretary of 
#Commerce on behalf of the United States.  All rights reserved.
_database_code_ICSD                159567
_audit_creation_date               2008/08/01
_chemical_name_systematic          'Magnesium Catena-silicate'
_chemical_formula_structural       'Mg (Si O3)'
_chemical_formula_sum              'Mg1 O3 Si1'
_chemical_name_mineral             Protopyroxene
_publ_section_title
;
Model pyroxenes II: Structural variation as a function of tetrahedral 
rotation model
;
loop_
_citation_id
_citation_journal_abbrev
_citation_year
_citation_journal_volume
_citation_page_first
_citation_page_last
_citation_journal_id_ASTM
primary 'American Mineralogist' 2004 89 614 628 AMMIAY
_publ_author_name                  'Thompson, R.M.;Downs, R.T.'
_cell_length_a                     9.127
_cell_length_b                     8.877
_cell_length_c                     5.125
_cell_angle_alpha                  90
_cell_angle_beta                   90
_cell_angle_gamma                  90
_cell_volume                       415.23
_cell_formula_units_Z              8
_symmetry_space_group_name_H-M     'P 21 c n'
_symmetry_Int_Tables_number        33
loop_
_symmetry_equiv_pos_site_id
_symmetry_equiv_pos_as_xyz
  1	'x, -y+.5, z+.5'
  2	'x+.5, y+.5, -z+.5'
  3	'x+.5, -y, -z'
  4	'x, y, z'
loop_
_atom_type_symbol
_atom_type_oxidation_number
Mg2+	2
O2-	-2
Si4+	4
loop_
_atom_site_label
_atom_site_type_symbol
_atom_site_symmetry_multiplicity
_atom_site_Wyckoff_symbol
_atom_site_fract_x
_atom_site_fract_y
_atom_site_fract_z
_atom_site_occupancy
_atom_site_attached_hydrogens
Mg1 Mg2+ 4 a 0.00000 0.08333 0.70040 1. 0 
Mg2 Mg2+ 4 a 0.00000 0.25000 0.20040 1. 0 
Si1 Si4+ 4 a 0.30880 0.08333 0.05000 1. 0 
Si2 Si4+ 4 a 0.19200 0.58333 0.11670 1. 0 
O1 O2- 4 a 0.13240 0.08333 0.05000 1. 0 
O2 O2- 4 a 0.36760 0.25000 0.11670 1. 0 
O3 O2- 4 a 0.36760 -0.03340 0.26660 1. 0 
O4 O2- 4 a 0.37090 0.58333 0.11670 1. 0 
O5 O2- 4 a 0.13240 0.75000 0.03370 1. 0 
O6 O2- 4 a 0.13240 0.45850 -0.09180 1. 0 

#End of data_159567-ICSD


