data_15627-ICSD
#?2014 by Fachinformationszentrum Karlsruhe, and the U.S. Secretary of 
#Commerce on behalf of the United States.  All rights reserved.
_database_code_ICSD                15627
_audit_creation_date               1980/01/01
_audit_update_record               1998/06/26
_chemical_name_systematic          'Magnesium Silicate'
_chemical_formula_structural       'Mg2 Si O4'
_chemical_formula_sum              'Mg2 O4 Si1'
_chemical_name_mineral             'Forsterite, ferroan'
_publ_section_title
;
Beitraege zu Kristallstrukturen vom Olivin-Typ
;
loop_
_citation_id
_citation_journal_abbrev
_citation_year
_citation_journal_volume
_citation_page_first
_citation_page_last
_citation_journal_id_ASTM
primary 'Beitraege zur Mineralogie und Petrographie (-11,1965)'
 1965 11 535 558 BMUPA4
_publ_author_name                  'Hanke, K.'
_cell_length_a                     4.77(2)
_cell_length_b                     10.26(4)
_cell_length_c                     6.00(2)
_cell_angle_alpha                  90.
_cell_angle_beta                   90.
_cell_angle_gamma                  90.
_cell_volume                       293.64
_cell_formula_units_Z              4
_symmetry_space_group_name_H-M     'P b n m'
_symmetry_Int_Tables_number        62
_refine_ls_R_factor_all            .059
loop_
_symmetry_equiv_pos_site_id
_symmetry_equiv_pos_as_xyz
  1	'-x+.5, y+.5, z'
  2	'x, y, -z+.5'
  3	'x+.5, -y+.5, z+.5'
  4	'-x, -y, -z'
  5	'x+.5, -y+.5, -z'
  6	'-x, -y, z+.5'
  7	'-x+.5, y+.5, -z+.5'
  8	'x, y, z'
loop_
_atom_type_symbol
_atom_type_oxidation_number
Mg2+	2
O2-	-2
Si4+	4
loop_
_atom_site_label
_atom_site_type_symbol
_atom_site_symmetry_multiplicity
_atom_site_Wyckoff_symbol
_atom_site_fract_x
_atom_site_fract_y
_atom_site_fract_z
_atom_site_occupancy
_atom_site_attached_hydrogens
_atom_site_B_iso_or_equiv
Mg1 Mg2+ 4 a 0 0 0 1. 0 0.4 
Mg2 Mg2+ 4 c 0.010(1) 0.2775(6) 0.75 1. 0 0.4 
Si1 Si4+ 4 c 0.074(1) 0.4055(5) 0.25 1. 0 0.25 
O1 O2- 4 c 0.233(2) 0.092(1) 0.75 1. 0 0.25 
O2 O2- 4 c 0.281(2) 0.051(1) 0.25 1. 0 0.25 
O3 O2- 8 d 0.223(2) 0.337(1) 0.4635(16) 1. 0 0.25 

#End of data_15627-ICSD


