data_49024-ICSD
#?2014 by Fachinformationszentrum Karlsruhe, and the U.S. Secretary of 
#Commerce on behalf of the United States.  All rights reserved.
_database_code_ICSD                49024
_audit_creation_date               1985/07/17
_audit_update_record               1985/07/26
_chemical_name_systematic          'Octalithium Praseodymium(IV) Oxide'
_chemical_formula_structural       'Li8 Pr O6'
_chemical_formula_sum              'Li8 O6 Pr1'
_publ_section_title
;
Ueber Li8 Pr O6 und Li8 Tb O6 (mit einer Bemerkung ueber Li8 Ce O6)
;
loop_
_citation_id
_citation_journal_abbrev
_citation_year
_citation_journal_volume
_citation_page_first
_citation_page_last
_citation_journal_id_ASTM
primary 'Zeitschrift fuer Anorganische und Allgemeine Chemie (1950) (DE)'
 1985 522 39 47 ZAACAB
_publ_author_name                  'Wolf, R.;Hoppe, R.'
_cell_length_a                     5.6085(3)
_cell_length_b                     5.6085(3)
_cell_length_c                     15.9824(12)
_cell_angle_alpha                  90.
_cell_angle_beta                   90.
_cell_angle_gamma                  120.
_cell_volume                       435.38
_cell_formula_units_Z              3
_symmetry_space_group_name_H-M     'R -3 H'
_symmetry_Int_Tables_number        148
_refine_ls_R_factor_all            .026
loop_
_symmetry_equiv_pos_site_id
_symmetry_equiv_pos_as_xyz
  1	'x-y, x, -z'
  2	'y, -x+y, -z'
  3	'-x, -y, -z'
  4	'-x+y, -x, z'
  5	'-y, x-y, z'
  6	'x, y, z'
  7	'x-y+.6666, x+.3333, -z+.3333'
  8	'x-y+.3333, x+.6666, -z+.6666'
  9	'y+.6666, -x+y+.3333, -z+.3333'
 10	'y+.3333, -x+y+.6666, -z+.6666'
 11	'-x+.6666, -y+.3333, -z+.3333'
 12	'-x+.3333, -y+.6666, -z+.6666'
 13	'-x+y+.6666, -x+.3333, z+.3333'
 14	'-x+y+.3333, -x+.6666, z+.6666'
 15	'-y+.6666, x-y+.3333, z+.3333'
 16	'-y+.3333, x-y+.6666, z+.6666'
 17	'x+.6666, y+.3333, z+.3333'
 18	'x+.3333, y+.6666, z+.6666'
loop_
_atom_type_symbol
_atom_type_oxidation_number
Li1+	1
O2-	-2
Pr4+	4
loop_
_atom_site_label
_atom_site_type_symbol
_atom_site_symmetry_multiplicity
_atom_site_Wyckoff_symbol
_atom_site_fract_x
_atom_site_fract_y
_atom_site_fract_z
_atom_site_occupancy
_atom_site_attached_hydrogens
Pr1 Pr4+ 3 a 0 0 0 1. 0 
Li1 Li1+ 18 f 0.6211(15) 0.6427(15) 0.8760(4) 1. 0 
Li2 Li1+ 6 c 0 0 0.3487(15) 1. 0 
O1 O2- 18 f 0.6773(8) 0.6563(6) 0.4174(2) 1. 0 

loop_
_atom_site_aniso_label
_atom_site_aniso_type_symbol
_atom_site_aniso_U_11
_atom_site_aniso_U_22
_atom_site_aniso_U_33
_atom_site_aniso_U_12
_atom_site_aniso_U_13
_atom_site_aniso_U_23
Pr1 Pr4+ 0.0052(1) 0.0052(1) 0.0054(2) 0.0026(1) 0 0
Li1 Li1+ 0.0143(25) 0.0123(25) 0.0159(24) 0.0062(21) -.0001(21) -.0007(22)
Li2 Li1+ 0.0224(31) 0.0224(31) 0.0499(38) 0.0112(16) 0 0
O1 O2- 0.0091(11) 0.0087(11) 0.0104(9) 0.0043(9) 0.0019(9) -.0014(9)
#End of data_49024-ICSD


