data_36090-ICSD
#?2014 by Fachinformationszentrum Karlsruhe, and the U.S. Secretary of 
#Commerce on behalf of the United States.  All rights reserved.
_database_code_ICSD                36090
_audit_creation_date               1980/01/01
_audit_update_record               2012/08/01
_chemical_name_systematic          'Sodium Iron Tetraoxotitanate'
_chemical_formula_structural       'Na Fe Ti O4'
_chemical_formula_sum              'Fe1 Na1 O4 Ti1'
_publ_section_title
;
Non-stoichiometric sodium iron titanate, Nax Fex Ti2-x O4
;
loop_
_citation_id
_citation_journal_abbrev
_citation_year
_citation_journal_volume
_citation_page_first
_citation_page_last
_citation_journal_id_ASTM
primary 'Acta Crystallographica B (24,1968-38,1982)' 1968 24 625 631 ACBCAR
_publ_author_name                  'Mumme, W.G.;Reid, A.F.'
_cell_length_a                     9.175
_cell_length_b                     2.962
_cell_length_c                     10.741
_cell_angle_alpha                  90.
_cell_angle_beta                   90.
_cell_angle_gamma                  90.
_cell_volume                       291.9
_cell_formula_units_Z              4
_symmetry_space_group_name_H-M     'P n m a'
_symmetry_Int_Tables_number        62
_refine_ls_R_factor_all            .117
loop_
_symmetry_equiv_pos_site_id
_symmetry_equiv_pos_as_xyz
  1	'x+.5, y, -z+.5'
  2	'x, -y+.5, z'
  3	'-x+.5, y+.5, z+.5'
  4	'-x, -y, -z'
  5	'-x+.5, -y, z+.5'
  6	'-x, y+.5, -z'
  7	'x+.5, -y+.5, -z+.5'
  8	'x, y, z'
loop_
_atom_type_symbol
_atom_type_oxidation_number
Fe3+	3
Na1+	1
O2-	-2
Ti4+	4
loop_
_atom_site_label
_atom_site_type_symbol
_atom_site_symmetry_multiplicity
_atom_site_Wyckoff_symbol
_atom_site_fract_x
_atom_site_fract_y
_atom_site_fract_z
_atom_site_occupancy
_atom_site_attached_hydrogens
Na1 Na1+ 4 c 0.3925(24) 0.75 0.1082(16) 1. 0 
Fe1 Fe3+ 4 c 0.0185(5) 0.25 0.1206(4) 1. 0 
Ti1 Ti4+ 4 c 0.2296(6) 0.75 0.3404(4) 1. 0 
O1 O2- 4 c 0.1248(30) 0.75 0.1877(17) 1. 0 
O2 O2- 4 c 0.1240(27) 0.25 0.4059(18) 1. 0 
O3 O2- 4 c 0.3586(24) 0.25 0.2708(20) 1. 0 
O4 O2- 4 c 0.3918(21) 0.75 0.4626(19) 1. 0 

loop_
_atom_site_aniso_label
_atom_site_aniso_type_symbol
_atom_site_aniso_U_11
_atom_site_aniso_U_22
_atom_site_aniso_U_33
_atom_site_aniso_U_12
_atom_site_aniso_U_13
_atom_site_aniso_U_23
Na1 Na1+ 0.034(10) 0.136(25) 0.024(9) 0 0.007(8) 0
Fe1 Fe3+ 0.005(2) 0.013(4) 0.003(2) 0 -.003(2) 0
Ti1 Ti4+ 0.009(2) 0.018(4) 0.012(3) 0 -.002(2) 0
O1 O2- 0.028(12) 0.020(16) 0.014(8) 0 0.000(8) 0
O2 O2- 0.016(11) 0.016(17) 0.001(10) 0 -.002(9) 0
O3 O2- 0.006(10) 0.012(15) 0.013(10) 0 -.006(9) 0
O4 O2- 0.008(8) 0.023(18) 0.006(9) 0 0.006(8) 0
#End of data_36090-ICSD


