data_51507-ICSD
#?2014 by Fachinformationszentrum Karlsruhe, and the U.S. Secretary of 
#Commerce on behalf of the United States.  All rights reserved.
_database_code_ICSD                51507
_audit_creation_date               2003/04/01
_audit_update_record               2005/04/01
_chemical_name_systematic          'Silver Hexafluoropalladate'
_chemical_formula_structural       'Ag (Pd F6)'
_chemical_formula_sum              'Ag1 F6 Pd1'
_publ_section_title
;
Synthese und Kristallstruktur von Silber(II)-Fluoriden Ag M(IV) F6 
(M(IV) = Sn, Ti, Pb, Pd, Pt, Rh)
;
loop_
_citation_id
_citation_journal_abbrev
_citation_year
_citation_journal_volume
_citation_page_first
_citation_page_last
_citation_journal_id_ASTM
primary 'Zeitschrift fuer Anorganische und Allgemeine Chemie (1950) (DE)'
 2001 627 445 452 ZAACAB
_publ_author_name                  'Fischer, R.;Mueller, B.G.'
_cell_length_a                     5.023(3)
_cell_length_b                     5.085(3)
_cell_length_c                     9.976(5)
_cell_angle_alpha                  89.61(4)
_cell_angle_beta                   103.13(4)
_cell_angle_gamma                  120.90(4)
_cell_volume                       211.08
_cell_formula_units_Z              2
_symmetry_space_group_name_H-M     'P -1'
_symmetry_Int_Tables_number        2
_refine_ls_R_factor_all            .035
loop_
_symmetry_equiv_pos_site_id
_symmetry_equiv_pos_as_xyz
  1	'-x, -y, -z'
  2	'x, y, z'
loop_
_atom_type_symbol
_atom_type_oxidation_number
Ag2+	2
F1-	-1
Pd4+	4
loop_
_atom_site_label
_atom_site_type_symbol
_atom_site_symmetry_multiplicity
_atom_site_Wyckoff_symbol
_atom_site_fract_x
_atom_site_fract_y
_atom_site_fract_z
_atom_site_occupancy
_atom_site_attached_hydrogens
_atom_site_U_iso_or_equiv
Ag1 Ag2+ 1 a 0.0 0.0 0.0 1. 0 0.0125(2) 
Ag2 Ag2+ 1 g 0.0 0.5 0.5 1. 0 0.0126(2) 
Pd1 Pd4+ 2 i 0.48395(10) 0.70029(10) 0.25005(4) 1. 0 0.0113(2) 
F1 F1- 2 i 0.1081(10) 0.6546(9) 0.1375(4) 1. 0 0.0211(8) 
F2 F1- 2 i 0.7153(10) 0.9785(9) 0.1323(4) 1. 0 0.0202(8) 
F3 F1- 2 i 0.2490(10) 0.4270(9) 0.3679(4) 1. 0 0.0197(8) 
F4 F1- 2 i 0.8782(9) 0.7533(9) 0.3644(4) 1. 0 0.0188(8) 
F5 F1- 2 i 0.4167(9) 0.3599(9) 0.1337(4) 1. 0 0.0190(8) 
F6 F1- 2 i 0.5487(10) 0.0299(9) 0.3640(4) 1. 0 0.0219(8) 

loop_
_atom_site_aniso_label
_atom_site_aniso_type_symbol
_atom_site_aniso_U_11
_atom_site_aniso_U_22
_atom_site_aniso_U_33
_atom_site_aniso_U_12
_atom_site_aniso_U_13
_atom_site_aniso_U_23
Ag1 Ag2+ .0139(3) .0114(3) .0103(3) .0054(2) .0029(2) -.0009(2)
Ag2 Ag2+ .0141(3) .0126(3) .0102(3) .0070(2) .0014(2) -.0008(2)
Pd1 Pd4+ .0122(2) .0106(2) .0091(2) .0051(2) .0015(2) -.0007(1)
F1 F1- .018(2) .024(2) .017(2) .011(2) -.002(1) .002(1)
F2 F1- .022(2) .020(2) .020(2) .011(2) .009(1) .006(1)
F3 F1- .023(2) .018(2) .019(2) .010(2) .010(1) .007(1)
F4 F1- .014(2) .021(2) .017(2) .008(1) .000(1) .004(1)
F5 F1- .017(2) .017(2) .020(2) .008(1) .002(1) -.007(1)
F6 F1- .026(2) .017(2) .020(2) .010(2) .004(2) -.009(1)
#End of data_51507-ICSD


