data_181645-ICSD
#?2014 by Fachinformationszentrum Karlsruhe, and the U.S. Secretary of 
#Commerce on behalf of the United States.  All rights reserved.
_database_code_ICSD                181645
_audit_creation_date               2012/02/01
_chemical_name_systematic          'Potassium Calcium Trifluoride'
_chemical_formula_structural       'K Ca F3'
_chemical_formula_sum              'Ca1 F3 K1'
_publ_section_title
;
Centrosymmetric perovskite crystal structures with space group Pbnm: 
crystallographic parametrization of K Ca F3 between 100 and 400 K in 
terms of the amplitudes of symmetry-adapted basis vectors of the 
cubic aristotype phase
;
loop_
_citation_id
_citation_journal_abbrev
_citation_year
_citation_journal_volume
_citation_journal_issue
_citation_page_first
_citation_page_last
_citation_journal_id_ASTM
primary 'Canadian Mineralogist' 2011 49 3 793 808 CAMIA6
_publ_author_name                  'Knight, K.S.'
_cell_length_a                     6.139
_cell_length_b                     6.217
_cell_length_c                     8.735
_cell_angle_alpha                  90.
_cell_angle_beta                   90.
_cell_angle_gamma                  90.
_cell_volume                       333.38
_cell_formula_units_Z              4
_symmetry_space_group_name_H-M     'P b n m'
_symmetry_Int_Tables_number        62
loop_
_symmetry_equiv_pos_site_id
_symmetry_equiv_pos_as_xyz
  1	'-x+.5, y+.5, z'
  2	'x, y, -z+.5'
  3	'x+.5, -y+.5, z+.5'
  4	'-x, -y, -z'
  5	'x+.5, -y+.5, -z'
  6	'-x, -y, z+.5'
  7	'-x+.5, y+.5, -z+.5'
  8	'x, y, z'
loop_
_atom_type_symbol
_atom_type_oxidation_number
Ca2+	2
F1-	-1
K1+	1
loop_
_atom_site_label
_atom_site_type_symbol
_atom_site_symmetry_multiplicity
_atom_site_Wyckoff_symbol
_atom_site_fract_x
_atom_site_fract_y
_atom_site_fract_z
_atom_site_occupancy
_atom_site_attached_hydrogens
K1 K1+ 4 c 0.00795 0.5359 0.250 1. 0 
Ca1 Ca2+ 4 a 0 0 0 1. 0 
F1 F1- 4 c -0.0776 -0.0245 0.25 1. 0 
F2 F1- 8 d 0.2073 0.2917 0.0386 1. 0 

#End of data_181645-ICSD


