data_187790-ICSD
#?2014 by Fachinformationszentrum Karlsruhe, and the U.S. Secretary of 
#Commerce on behalf of the United States.  All rights reserved.
_database_code_ICSD                187790
_audit_creation_date               2013/08/01
_chemical_name_systematic          'Disodium Manganese Pyrophosphate'
_chemical_formula_structural       'Na2 Mn (P2 O7)'
_chemical_formula_sum              'Mn1 Na2 O7 P2'
_publ_section_title
;
A new polymorph of Na2 Mn P2 O7 as a 3.6 V cathode material for 
sodium-ion batteries
;
loop_
_citation_id
_citation_journal_abbrev
_citation_year
_citation_journal_volume
_citation_journal_issue
_citation_page_first
_citation_page_last
_citation_journal_id_ASTM
primary 'Journal of Materials Chemistry A' 2013 1 13 4194 4197 JMCAET
_publ_author_name
;
Prabeer Barpanda;Tian Ye;Maxim Avdeev;Sai-Cheong Chung;Atsuo Yamada
;
_cell_length_a                     9.922(3)
_cell_length_b                     11.083(4)
_cell_length_c                     12.473(2)
_cell_angle_alpha                  148.39(1)
_cell_angle_beta                   121.94(5)
_cell_angle_gamma                  68.42(3)
_cell_volume                       599.41
_cell_formula_units_Z              4
_symmetry_space_group_name_H-M     'P 1'
_symmetry_Int_Tables_number        1
_refine_ls_R_factor_all            .0848
loop_
_symmetry_equiv_pos_site_id
_symmetry_equiv_pos_as_xyz
  1	'x, y, z'
loop_
_atom_type_symbol
_atom_type_oxidation_number
Mn2+	2
Na1+	1
O2-	-2
P5+	5
loop_
_atom_site_label
_atom_site_type_symbol
_atom_site_symmetry_multiplicity
_atom_site_Wyckoff_symbol
_atom_site_fract_x
_atom_site_fract_y
_atom_site_fract_z
_atom_site_occupancy
_atom_site_attached_hydrogens
_atom_site_B_iso_or_equiv
Mn1 Mn2+ 1 a 0.4932 0.4294 0.1581 1. 0 1. 
Mn2 Mn2+ 1 a 0.9002 0.8627 0.6438 1. 0 1. 
Mn3 Mn2+ 1 a 0.4989 0.6015 0.8650 1. 0 1. 
Mn4 Mn2+ 1 a 0.1115 0.1906 0.4002 1. 0 1. 
P1 P5+ 1 a 0.1740 0.3380 0.1210 1. 0 1. 
P2 P5+ 1 a 0.7060 0.7310 0.2700 1. 0 1. 
P3 P5+ 1 a 0.1930 0.5310 0.4900 1. 0 1. 
P4 P5+ 1 a 0.4490 0.0040 0.3160 1. 0 1. 
P5 P5+ 1 a 0.8380 0.6890 0.9070 1. 0 1. 
P6 P5+ 1 a 0.2894 0.2510 0.7010 1. 0 1. 
P7 P5+ 1 a 0.8000 0.4660 0.5050 1. 0 1. 
P8 P5+ 1 a 0.5460 -0.0190 0.6620 1. 0 1. 
Na1 Na1+ 1 a 0.8470 0.1160 0.4540 1. 0 1. 
Na2 Na1+ 1 a 0.1420 0.9120 0.5780 1. 0 1. 
Na3 Na1+ 1 a 0.8550 0.1410 0.0490 1. 0 1. 
Na4 Na1+ 1 a 0.1540 0.7840 0.9260 1. 0 1. 
Na5 Na1+ 1 a 0.1740 0.6830 0.1490 1. 0 1. 
Na6 Na1+ 1 a 0.8140 0.3330 0.8570 1. 0 1. 
Na7 Na1+ 1 a 0.5340 -0.0070 -0.0200 1. 0 1. 
Na8 Na1+ 1 a 0.4830 0.2720 0.3170 1. 0 1. 
O1 O2- 1 a 0.2650 0.4410 0.3450 1. 0 1. 
O2 O2- 1 a 0.3210 0.6410 0.7030 1. 0 1. 
O3 O2- 1 a 0.0860 0.2940 0.3020 1. 0 1. 
O4 O2- 1 a 0.0960 0.7220 0.5730 1. 0 1. 
O5 O2- 1 a 0.3000 0.1950 0.0160 1. 0 1. 
O6 O2- 1 a 0.0650 0.4880 0.1300 1. 0 1. 
O7 O2- 1 a 0.0300 0.1570 -0.0360 1. 0 1. 
O8 O2- 1 a 0.5360 0.8190 0.2770 1. 0 1. 
O9 O2- 1 a 0.7290 0.5700 0.2540 1. 0 1. 
O10 O2- 1 a 0.8540 0.9530 0.5020 1. 0 1. 
O11 O2- 1 a 0.6800 0.6000 0.0500 1. 0 1. 
O12 O2- 1 a 0.4820 0.9710 0.1840 1. 0 1. 
O13 O2- 1 a 0.2700 0.9490 0.2380 1. 0 1. 
O14 O2- 1 a 0.5420 0.2620 0.5600 1. 0 1. 
O15 O2- 1 a 0.7420 0.5590 0.6650 1. 0 1. 
O16 O2- 1 a 0.6680 0.3630 0.3040 1. 0 1. 
O17 O2- 1 a 0.9230 0.3150 0.4910 1. 0 1. 
O18 O2- 1 a 0.8840 0.6700 0.6240 1. 0 1. 
O19 O2- 1 a 0.7110 0.7810 0.9990 1. 0 1. 
O20 O2- 1 a 0.8750 0.4720 0.8200 1. 0 1. 
O21 O2- 1 a 0.9360 0.9130 0.0570 1. 0 1. 
O22 O2- 1 a 0.4560 0.1490 0.6810 1. 0 1. 
O23 O2- 1 a 0.1490 0.0220 0.4620 1. 0 1. 
O24 O2- 1 a 0.2630 0.3730 0.8860 1. 0 1. 
O25 O2- 1 a 0.3100 0.4240 0.7490 1. 0 1. 
O26 O2- 1 a 0.7250 0.0570 0.7590 1. 0 1. 
O27 O2- 1 a 0.5180 0.0690 0.8290 1. 0 1. 
O28 O2- 1 a 0.4390 0.7370 0.4260 1. 0 1. 

#End of data_187790-ICSD


