data_417102-ICSD
#?2014 by Fachinformationszentrum Karlsruhe, and the U.S. Secretary of 
#Commerce on behalf of the United States.  All rights reserved.
_database_code_ICSD                417102
_audit_creation_date               2008/08/01
_audit_update_record               2012/02/01
_chemical_name_systematic          'Samarium Potassium Palladate'
_chemical_formula_structural       'Sm K (Pd O3)'
_chemical_formula_sum              'K1 O3 Pd1 Sm1'
_publ_section_title
;
Crystal growth and structural characterization of the new ordered 
palladates, Ln K Pd O3 (Ln= La, Pr, Nd, Sm - Gd) and the 
isostructural, partially Cu-substituted palladate, Pr K (Cu0.14 
Pd0.86) O3
;
loop_
_citation_id
_citation_journal_abbrev
_citation_year
_citation_journal_volume
_citation_journal_issue
_citation_page_first
_citation_page_last
_citation_journal_id_ASTM
primary 'Inorganic Chemistry' 2007 46 8 3116 3122 INOCAJ
_publ_author_name
;
Mugavero, S.J.;Smith, M.D.;zur Loye, H.C.
;
_cell_length_a                     13.1015(7)
_cell_length_b                     3.9281(2)
_cell_length_c                     7.3400(4)
_cell_angle_alpha                  90.00
_cell_angle_beta                   104.684(2)
_cell_angle_gamma                  90.00
_cell_volume                       365.41
_cell_formula_units_Z              4
_symmetry_space_group_name_H-M     'C 1 2/m 1'
_symmetry_Int_Tables_number        12
_refine_ls_R_factor_all            .0428
loop_
_symmetry_equiv_pos_site_id
_symmetry_equiv_pos_as_xyz
  1	'-x, y, -z'
  2	'-x, -y, -z'
  3	'x, -y, z'
  4	'x, y, z'
  5	'-x+.5, y+.5, -z'
  6	'-x+.5, -y+.5, -z'
  7	'x+.5, -y+.5, z'
  8	'x+.5, y+.5, z'
loop_
_atom_type_symbol
_atom_type_oxidation_number
K1+	1
O2-	-2
Pd2+	2
Sm3+	3
loop_
_atom_site_label
_atom_site_type_symbol
_atom_site_symmetry_multiplicity
_atom_site_Wyckoff_symbol
_atom_site_fract_x
_atom_site_fract_y
_atom_site_fract_z
_atom_site_occupancy
_atom_site_attached_hydrogens
_atom_site_U_iso_or_equiv
Sm1 Sm3+ 4 i 0.65042(3) 0.0000 0.07821(7) 1 0 0.00896(14) 
Pd1 Pd2+ 4 i 0.00683(5) 0.0000 0.77905(9) 1 0 0.00804(16) 
K1 K1+ 4 i 0.35682(17) 0.0000 0.4357(3) 1 0 0.0158(4) 
O1 O2- 4 i 0.8305(5) 0.0000 0.1299(9) 1 0 0.0114(13) 
O2 O2- 4 i 0.4943(5) 0.0000 0.1960(10) 1 0 0.0149(14) 
O3 O2- 4 i 0.1525(5) 0.0000 0.2761(9) 1 0 0.0117(13) 

loop_
_atom_site_aniso_label
_atom_site_aniso_type_symbol
_atom_site_aniso_U_11
_atom_site_aniso_U_22
_atom_site_aniso_U_33
_atom_site_aniso_U_12
_atom_site_aniso_U_13
_atom_site_aniso_U_23
Sm1 Sm3+ 0.0064(2) 0.0074(2) 0.0134(2) 0.000 0.00324(16) 0.000
Pd1 Pd2+ 0.0064(3) 0.0056(3) 0.0120(3) 0.000 0.0021(2) 0.000
K1 K1+ 0.0136(9) 0.0186(10) 0.0150(9) 0.000 0.0033(8) 0.000
O1 O2- 0.010(3) 0.011(3) 0.011(3) 0.000 0.000(2) 0.000
O2 O2- 0.018(3) 0.002(3) 0.026(4) 0.000 0.010(3) 0.000
O3 O2- 0.007(3) 0.012(3) 0.014(3) 0.000 -0.002(2) 0.000
#End of data_417102-ICSD


