data_38380-ICSD
#?2014 by Fachinformationszentrum Karlsruhe, and the U.S. Secretary of 
#Commerce on behalf of the United States.  All rights reserved.
_database_code_ICSD                38380
_audit_creation_date               1984/12/31
_chemical_name_systematic          'Silver Tecto-pentaoxodigermanate'
_chemical_formula_structural       'Ag2 Ge2 O5'
_chemical_formula_sum              'Ag2 Ge2 O5'
_publ_section_title
;
Die Kristallstruktur von Ag2 Ge2 O5: Eine neuartige Gerueststruktur 
von Ge2 O5(2-)
;
loop_
_citation_id
_citation_journal_abbrev
_citation_year
_citation_journal_volume
_citation_page_first
_citation_page_last
_citation_journal_id_ASTM
primary 'Zeitschrift fuer Anorganische und Allgemeine Chemie (1950) (DE)'
 1984 510 143 151 ZAACAB
_publ_author_name                  'Jansen, M.;Standke, B.'
_cell_length_a                     11.013(2)
_cell_length_b                     10.063(1)
_cell_length_c                     12.219(3)
_cell_angle_alpha                  90.
_cell_angle_beta                   94.6(1)
_cell_angle_gamma                  90.
_cell_volume                       1349.79
_cell_formula_units_Z              12
_symmetry_space_group_name_H-M     'P 1 21/c 1'
_symmetry_Int_Tables_number        14
_refine_ls_R_factor_all            .084
loop_
_symmetry_equiv_pos_site_id
_symmetry_equiv_pos_as_xyz
  1	'x, -y+.5, z+.5'
  2	'-x, -y, -z'
  3	'-x, y+.5, -z+.5'
  4	'x, y, z'
loop_
_atom_type_symbol
_atom_type_oxidation_number
Ag1+	1
Ge4+	4
O2-	-2
loop_
_atom_site_label
_atom_site_type_symbol
_atom_site_symmetry_multiplicity
_atom_site_Wyckoff_symbol
_atom_site_fract_x
_atom_site_fract_y
_atom_site_fract_z
_atom_site_occupancy
_atom_site_attached_hydrogens
_atom_site_U_iso_or_equiv
Ag1 Ag1+ 4 e 0.6385(1) 0.2962(2) 0.8280(1) 1. 0 0.0136(6) 
Ag2 Ag1+ 4 e 0.8204(2) 0.8475(2) 0.9796(1) 1. 0 0.0172(8) 
Ag3 Ag1+ 4 e 0.8811(2) 0.1390(1) 0.9046(1) 1. 0 0.0149(7) 
Ag4 Ag1+ 4 e 0.3838(2) 0.2116(2) 0.8487(2) 1. 0 0.0202(8) 
Ag5 Ag1+ 4 e 0.1469(1) 0.3300(2) 0.8130(1) 1. 0 0.0151(7) 
Ag6 Ag1+ 4 e 0.3996(2) 0.3370(2) 0.0835(2) 1. 0 0.032(1) 
Ge1 Ge4+ 4 e 0.8745(2) 0.0347(2) 0.1992(1) 1. 0 0.0028(7) 
Ge2 Ge4+ 4 e 0.3932(2) 0.9232(2) 0.9636(1) 1. 0 0.0033(7) 
Ge3 Ge4+ 4 e 0.5890(2) 0.9654(2) 0.7981(1) 1. 0 0.0034(7) 
Ge4 Ge4+ 4 e 0.0360(2) 0.8348(2) 0.3543(1) 1. 0 0.0035(7) 
Ge5 Ge4+ 4 e 0.7007(2) 0.3848(2) 0.1013(1) 1. 0 0.0031(7) 
Ge6 Ge4+ 4 e 0.1273(2) 0.9910(2) 0.5472(1) 1. 0 0.0030(7) 
O1 O2- 4 e 0.9800(11) 0.1583(13) 0.1714(10) 1. 0 0.0058(44) 
O2 O2- 4 e 0.4399(11) 0.0989(13) 0.9887(12) 1. 0 0.0091(46) 
O3 O2- 4 e 0.9576(12) 0.8844(14) 0.2114(10) 1. 0 0.0075(46) 
O4 O2- 4 e 0.7994(11) 0.0604(15) 0.3170(9) 1. 0 0.0078(45) 
O5 O2- 4 e 0.6566(11) 0.0808(15) 0.8916(10) 1. 0 0.0105(48) 
O6 O2- 4 e 0.5740(11) 0.4482(13) 0.1724(9) 1. 0 0.0052(44) 
O7 O2- 4 e 0.6193(12) 0.2556(13) 0.0334(10) 1. 0 0.0072(45) 
O8 O2- 4 e 0.5646(11) 0.4281(16) 0.6829(11) 1. 0 0.0109(49) 
O9 O2- 4 e 0.7265(11) 0.5202(14) 0.0164(10) 1. 0 0.0065(46) 
O10 O2- 4 e 0.8134(11) 0.1457(15) 0.7085(9) 1. 0 0.0072(44) 
O11 O2- 4 e 0.0338(11) 0.0198(13) 0.4004(10) 1. 0 0.0062(44) 
O12 O2- 4 e 0.7720(12) 0.0216(16) 0.0811(10) 1. 0 0.0114(49) 
O13 O2- 4 e 0.8678(13) 0.3211(13) 0.0118(11) 1. 0 0.0086(47) 
O14 O2- 4 e 0.1108(11) 0.1661(16) 0.5859(10) 1. 0 0.0108(48) 
O15 O2- 4 e 0.3217(13) 0.3250(16) 0.7115(11) 1. 0 0.0138(51) 

#End of data_38380-ICSD


