data_20295-ICSD
#?2014 by Fachinformationszentrum Karlsruhe, and the U.S. Secretary of 
#Commerce on behalf of the United States.  All rights reserved.
_database_code_ICSD                20295
_audit_creation_date               1980/01/01
_audit_update_record               2003/04/01
_chemical_name_systematic
;
Magnesium Diphosphate(V) - Beta, Ht
;
_chemical_formula_structural       'Mg2 (P2 O7)'
_chemical_formula_sum              'Mg2 O7 P2'
_publ_section_title
;
Crystal structure of beta-Mg2 P2 O7
;
loop_
_citation_id
_citation_journal_abbrev
_citation_year
_citation_journal_volume
_citation_page_first
_citation_page_last
_citation_journal_id_ASTM
primary 'Roczniki Chemii' 1961 35 31 35 ROCHAC
2 'Phase Transition' 1992 38 127 220 PHTRDP
_publ_author_name                  'Lukaszewicz, K.'
_cell_length_a                     6.49(2)
_cell_length_b                     8.28(2)
_cell_length_c                     4.51(1)
_cell_angle_alpha                  90.
_cell_angle_beta                   104.08(25)
_cell_angle_gamma                  90.
_cell_volume                       235.07
_cell_formula_units_Z              2
_symmetry_space_group_name_H-M     'C 1 2/m 1'
_symmetry_Int_Tables_number        12
_refine_ls_R_factor_all            .26
loop_
_symmetry_equiv_pos_site_id
_symmetry_equiv_pos_as_xyz
  1	'-x, y, -z'
  2	'-x, -y, -z'
  3	'x, -y, z'
  4	'x, y, z'
  5	'-x+.5, y+.5, -z'
  6	'-x+.5, -y+.5, -z'
  7	'x+.5, -y+.5, z'
  8	'x+.5, y+.5, z'
loop_
_atom_type_symbol
_atom_type_oxidation_number
Mg2+	2
O2-	-2
P5+	5
loop_
_atom_site_label
_atom_site_type_symbol
_atom_site_symmetry_multiplicity
_atom_site_Wyckoff_symbol
_atom_site_fract_x
_atom_site_fract_y
_atom_site_fract_z
_atom_site_occupancy
_atom_site_attached_hydrogens
Mg1 Mg2+ 4 h 0 0.306 0.5 1. 0 
P1 P5+ 4 i 0.217 0 0.895 1. 0 
O1 O2- 2 a 0 0 0 1. 0 
O2 O2- 4 i 0.405 0 0.222 1. 0 
O3 O2- 8 j 0.233 0.155 0.71 1. 0 

#End of data_20295-ICSD


