data_30926-ICSD
#?2014 by Fachinformationszentrum Karlsruhe, and the U.S. Secretary of 
#Commerce on behalf of the United States.  All rights reserved.
_database_code_ICSD                30926
_audit_creation_date               1986/04/14
_audit_update_record               2007/08/01
_chemical_name_systematic          'Calcium Copper Silicate Hydrate'
_chemical_formula_structural       'Ca Cu (Si O4) (H2 O)'
_chemical_formula_sum              'H2 Ca1 Cu1 O5 Si1'
_chemical_name_mineral             Stringhamite
_publ_section_title
;
The crystal structure of stringhamite
;
loop_
_citation_id
_citation_journal_abbrev
_citation_year
_citation_journal_volume
_citation_page_first
_citation_page_last
_citation_journal_id_ASTM
primary
;
TMPM. Tschermaks Mineralogische und Petrographische Mitteilungen 
(1979-)
;
 1985 34 15 24 TTMMDZ
_publ_author_name                  'Hawthorne, F.C.'
_cell_length_a                     5.030(2)
_cell_length_b                     16.1350(30)
_cell_length_c                     5.343(1)
_cell_angle_alpha                  90.
_cell_angle_beta                   102.96(1)
_cell_angle_gamma                  90.
_cell_volume                       422.59
_cell_formula_units_Z              4
_symmetry_space_group_name_H-M     'P 1 21/c 1'
_symmetry_Int_Tables_number        14
_refine_ls_R_factor_all            .037
loop_
_symmetry_equiv_pos_site_id
_symmetry_equiv_pos_as_xyz
  1	'x, -y+.5, z+.5'
  2	'-x, -y, -z'
  3	'-x, y+.5, -z+.5'
  4	'x, y, z'
loop_
_atom_type_symbol
_atom_type_oxidation_number
Ca2+	2
Cu2+	2
H1+	1
O2-	-2
Si4+	4
loop_
_atom_site_label
_atom_site_type_symbol
_atom_site_symmetry_multiplicity
_atom_site_Wyckoff_symbol
_atom_site_fract_x
_atom_site_fract_y
_atom_site_fract_z
_atom_site_occupancy
_atom_site_attached_hydrogens
_atom_site_U_iso_or_equiv
Ca1 Ca2+ 4 e 0.6496(2) 0.17671(6) 0.3464(2) 1. 0 0 
Cu1 Cu2+ 2 c 0 0 0.5 1. 0 0 
Cu2 Cu2+ 2 b 0.5 0 0 1. 0 0 
Si1 Si4+ 4 e 0.9802(3) 0.11123(9) -.0290(3) 1. 0 0 
O1 O2- 4 e 0.8995(8) 0.2058(2) 0.0268(7) 1. 0 0 
O2 O2- 4 e 0.8461(8) 0.0853(2) 0.6740(7) 1. 0 0 
O3 O2- 4 e 0.3129(7) 0.1023(2) 0.0383(7) 1. 0 0 
O4 O2- 4 e 0.8419(7) 0.0541(2) 0.1691(7) 1. 0 0 
O5 O2- 4 e 0.3525(9) 0.2094(3) 0.6257(8) 1. 0 0 
H1 H1+ 4 e 0.319(14) 0.316(5) 0.222(14) 1. 0 0.01 
H2 H1+ 4 e 0.184(14) 0.258(4) 0.081(13) 1. 0 0.01 

loop_
_atom_site_aniso_label
_atom_site_aniso_type_symbol
_atom_site_aniso_U_11
_atom_site_aniso_U_22
_atom_site_aniso_U_33
_atom_site_aniso_U_12
_atom_site_aniso_U_13
_atom_site_aniso_U_23
Ca1 Ca2+ 0.0093(4) 0.0102(4) 0.0074(4) 0.0004(4) 0.0027(3) 0.0001(4)
Cu1 Cu2+ 0.0108(4) 0.0102(4) 0.0062(4) 0.0016(3) 0.0019(3) -.0002(3)
Cu2 Cu2+ 0.0070(4) 0.009804 0.0107(4) 0.0002(3) 0.0013(3) -.0010(3)
Si1 Si4+ 0.0065(6) 0.0089(6) 0.0074(6) -.0001(5) 0.0022(5) -.0001(5)
O1 O2- 0.0109(17) 0.0124(17) 0.0096(16) 0.0001(14) 0.0033(13) -.0011(14)
O2 O2- 0.0160(18) 0.0117(17) 0.0109(17) 0.0065(15) 0.0037(14) -.0002(14)
O3 O2- 0.0066(15) 0.0118(17) 0.0117(17) -.0005(13) 0.0029(13) -.0028(14)
O4 O2- 0.0082(15) 0.0111(16) 0.0083(15) 0.0007(14) 0.0031(12) 0.0005(13)
O5 O2- 0.0160(18) 0.0138(19) 0.0136(18) -.0009(16) 0.0066(15) 0.0044(15)
#End of data_30926-ICSD


