data_91527-ICSD
#?2014 by Fachinformationszentrum Karlsruhe, and the U.S. Secretary of 
#Commerce on behalf of the United States.  All rights reserved.
_database_code_ICSD                91527
_audit_creation_date               2002/10/01
_audit_update_record               2009/02/01
_chemical_name_systematic
;
Potassium Nickel Tris(phosphate(V))
;
_chemical_formula_structural       'K Ni (P O3)3'
_chemical_formula_sum              'K1 Ni1 O9 P3'
_publ_section_title
;
Synthesis, IR spectra and structures of double metaphosphates M Ni (P 
O3)3 (M= Na or K)
;
loop_
_citation_id
_citation_journal_abbrev
_citation_year
_citation_journal_volume
_citation_journal_issue
_citation_page_first
_citation_page_last
_citation_journal_id_ASTM
primary Kristallografiya 2000 45 2 238 241 KRISAJ
2 'Crystallography Reports' 2000 45- 206 209 CYSTE3
3 'Powder Diffraction' 1989 4- 105 121 PODIE2
_publ_author_name
;
Kapshuk, A.A.;Nagornyi, P.G.;Petrenko, O.V.
;
_cell_length_a                     10.076(2)
_cell_length_b                     10.076(2)
_cell_length_c                     6.9623(5)
_cell_angle_alpha                  90.
_cell_angle_beta                   90.
_cell_angle_gamma                  120.
_cell_volume                       612.15
_cell_formula_units_Z              3
_symmetry_space_group_name_H-M     'R 3 H'
_symmetry_Int_Tables_number        146
_refine_ls_R_factor_all            .026
loop_
_symmetry_equiv_pos_site_id
_symmetry_equiv_pos_as_xyz
  1	'-x+y, -x, z'
  2	'-y, x-y, z'
  3	'x, y, z'
  4	'-x+y+.6666, -x+.3333, z+.3333'
  5	'-x+y+.3333, -x+.6666, z+.6666'
  6	'-y+.6666, x-y+.3333, z+.3333'
  7	'-y+.3333, x-y+.6666, z+.6666'
  8	'x+.6666, y+.3333, z+.3333'
  9	'x+.3333, y+.6666, z+.6666'
loop_
_atom_type_symbol
_atom_type_oxidation_number
K1+	1
Ni2+	2
O2-	-2
P5+	5
loop_
_atom_site_label
_atom_site_type_symbol
_atom_site_symmetry_multiplicity
_atom_site_Wyckoff_symbol
_atom_site_fract_x
_atom_site_fract_y
_atom_site_fract_z
_atom_site_occupancy
_atom_site_attached_hydrogens
_atom_site_U_iso_or_equiv
Ni1 Ni2+ 3 a 0 0 0 1. 0 0.006(1) 
K1 K1+ 3 a 0 0 0.4933(1) 1. 0 0.018(1) 
P1 P5+ 9 b 0.3435(1) 0.2386(1) 0.1360(2) 1. 0 0.007(1) 
O1 O2- 9 b 0.1875(1) 0.1092(5) 0.1778(3) 1. 0 0.011(1) 
O2 O2- 9 b 0.3530(4) 0.3004(4) -.0779(5) 1. 0 0.010(1) 
O3 O2- 9 b 0.4785(4) 0.2191(4) 0.1616(6) 1. 0 0.009(1) 

#End of data_91527-ICSD


