data_415377-ICSD
#?2014 by Fachinformationszentrum Karlsruhe, and the U.S. Secretary of 
#Commerce on behalf of the United States.  All rights reserved.
_database_code_ICSD                415377
_audit_creation_date               2007/08/01
_chemical_name_systematic
;
Dipotassium Sulfato(VI)trifluoromanganate(III) - Lt
;
_chemical_formula_structural       'K2 (Mn F3 (S O4))'
_chemical_formula_sum              'F3 K2 Mn1 O4 S1'
_publ_section_title
;
Jahn-Teller-Ordnung in Mangan(III)-fluoridsulfaten.  II. 
Phasen?bergang und Verzwillingung bei K2 (Mn F3 (S O4)) und 1D 
Magnetismus in Verbindungen A2 (Mn F3 (S O4)) (A = K, N H4, Rb, Cs)
;
loop_
_citation_id
_citation_journal_abbrev
_citation_year
_citation_journal_volume
_citation_page_first
_citation_page_last
_citation_journal_id_ASTM
primary 'Zeitschrift fuer Anorganische und Allgemeine Chemie (1950) (DE)'
 2005 631 1785 1792 ZAACAB
_publ_author_name
;
Klein, U.;Hahn, F.;Massa, W.;Pebler, J.
;
_cell_length_a                     7.2113(8)
_cell_length_b                     10.7251(13)
_cell_length_c                     8.4409(13)
_cell_angle_alpha                  90.00
_cell_angle_beta                   91.621(11)
_cell_angle_gamma                  90.00
_cell_volume                       652.57
_cell_formula_units_Z              4
_symmetry_space_group_name_H-M     'P 1 21/c 1'
_symmetry_Int_Tables_number        14
_refine_ls_R_factor_all            .022
loop_
_symmetry_equiv_pos_site_id
_symmetry_equiv_pos_as_xyz
  1	'x, -y+.5, z+.5'
  2	'-x, -y, -z'
  3	'-x, y+.5, -z+.5'
  4	'x, y, z'
loop_
_atom_type_symbol
_atom_type_oxidation_number
F1-	-1
K1+	1
Mn3+	3
O2-	-2
S6+	6
loop_
_atom_site_label
_atom_site_type_symbol
_atom_site_symmetry_multiplicity
_atom_site_Wyckoff_symbol
_atom_site_fract_x
_atom_site_fract_y
_atom_site_fract_z
_atom_site_occupancy
_atom_site_attached_hydrogens
_atom_site_U_iso_or_equiv
K1 K1+ 4 e 0.19275(4) 0.19103(3) 0.32770(3) 1 0 0.01778(7) 
K2 K1+ 4 e -0.30418(4) 0.30912(3) 0.17344(3) 1 0 0.01724(6) 
Mn1 Mn3+ 2 b 0.5000 0.0000 0.0000 1 0 0.00847(6) 
Mn2 Mn3+ 2 a 0.0000 0.0000 0.0000 1 0 0.00822(6) 
S1 S6+ 4 e 0.74928(4) -0.00048(3) 0.31193(3) 1 0 0.01104(6) 
F1 F1- 4 e 0.47619(11) 0.33767(7) 0.44117(9) 1 0 0.01419(14) 
F2 F1- 4 e -0.02658(11) 0.16209(7) 0.05373(10) 1 0 0.01424(14) 
F3 F1- 4 e 0.24211(11) 0.00076(8) 0.11017(9) 1 0 0.01410(14) 
O1 O2- 4 e 0.10934(13) 0.43860(9) 0.28735(11) 1 0 0.01448(17) 
O2 O2- 4 e 0.60659(13) 0.05950(9) 0.20123(10) 1 0 0.01329(16) 
O3 O2- 4 e 0.66098(15) -0.09542(11) 0.40571(13) 1 0 0.0223(2) 
O4 O2- 4 e 0.83262(14) 0.09974(11) 0.40468(12) 1 0 0.0212(2) 

loop_
_atom_site_aniso_label
_atom_site_aniso_type_symbol
_atom_site_aniso_U_11
_atom_site_aniso_U_22
_atom_site_aniso_U_33
_atom_site_aniso_U_12
_atom_site_aniso_U_13
_atom_site_aniso_U_23
K1 K1+ 0.02235(14) 0.01374(12) 0.01694(12) -0.00145(9) -0.00509(9) 
-0.00015(9)
K2 K1+ 0.02072(14) 0.01400(12) 0.01731(12) 0.00120(9) 0.00580(9) 
-0.00054(9)
Mn1 Mn3+ 0.00733(11) 0.00801(11) 0.01008(11) 0.00048(7) 0.00064(8) 
0.00044(8)
Mn2 Mn3+ 0.00722(11) 0.00778(11) 0.00970(11) 0.00066(7) 0.00075(8) 
-0.00055(8)
S1 S6+ 0.01075(12) 0.01330(13) 0.00909(12) -0.00102(9) 0.00062(9) 
0.00005(9)
F1 F1- 0.0165(3) 0.0095(3) 0.0165(3) -0.0013(3) -0.0009(3) -0.0018(3)
F2 F1- 0.0167(3) 0.0089(3) 0.0172(3) 0.0014(3) 0.0020(3) -0.0015(3)
F3 F1- 0.0102(3) 0.0185(4) 0.0137(3) 0.0004(2) 0.0014(2) 0.0002(3)
O1 O2- 0.0153(4) 0.0141(4) 0.0142(4) -0.0018(3) 0.0032(3) -0.0012(3)
O2 O2- 0.0151(4) 0.0123(4) 0.0123(4) 0.0019(3) -0.0017(3) -0.0004(3)
O3 O2- 0.0189(5) 0.0281(6) 0.0199(5) -0.0031(4) 0.0023(3) 0.0136(4)
O4 O2- 0.0181(5) 0.0254(5) 0.0201(5) -0.0023(4) -0.0022(3) -0.0111(4)
#End of data_415377-ICSD


