data_92353-ICSD
#?2014 by Fachinformationszentrum Karlsruhe, and the U.S. Secretary of 
#Commerce on behalf of the United States.  All rights reserved.
_database_code_ICSD                92353
_audit_creation_date               2002/10/01
_chemical_name_systematic
;
Calcium Iron(IV) Trioxide - Orthorhombic
;
_chemical_formula_structural       'Ca Fe O3'
_chemical_formula_sum              'Ca1 Fe1 O3'
_publ_section_title
;
Metal-semiconductor transition, charge disproportionation, and low-
temperature structure of Ca1-x Srx Fe O3 synthesized under high-
oxygen pressure
;
loop_
_citation_id
_citation_journal_abbrev
_citation_year
_citation_journal_volume
_citation_page_first
_citation_page_last
_citation_journal_id_ASTM
primary 'Solid State Sciences' 2000 2 673 687 SSSCFJ
_publ_author_name
;
Takeda, T.;Kanno, R.;Kawamoto, Y.;Takano, M.;Kawasaki, S.;Kamiyama, 
T.;Izumi, F.
;
_cell_length_a                     5.35161(16)
_cell_length_b                     7.54057(19)
_cell_length_c                     5.32700(15)
_cell_angle_alpha                  90.
_cell_angle_beta                   90.
_cell_angle_gamma                  90.
_cell_volume                       214.97
_cell_formula_units_Z              4
_symmetry_space_group_name_H-M     'P n m a'
_symmetry_Int_Tables_number        62
_refine_ls_R_factor_all            .027
loop_
_symmetry_equiv_pos_site_id
_symmetry_equiv_pos_as_xyz
  1	'x+.5, y, -z+.5'
  2	'x, -y+.5, z'
  3	'-x+.5, y+.5, z+.5'
  4	'-x, -y, -z'
  5	'-x+.5, -y, z+.5'
  6	'-x, y+.5, -z'
  7	'x+.5, -y+.5, -z+.5'
  8	'x, y, z'
loop_
_atom_type_symbol
_atom_type_oxidation_number
Ca2+	2
Fe4+	4
O2-	-2
loop_
_atom_site_label
_atom_site_type_symbol
_atom_site_symmetry_multiplicity
_atom_site_Wyckoff_symbol
_atom_site_fract_x
_atom_site_fract_y
_atom_site_fract_z
_atom_site_occupancy
_atom_site_attached_hydrogens
Ca1 Ca2+ 4 c 0.033(2) 0.25 -.008(5) 1. 0 
Fe1 Fe4+ 4 b 0.5 0 0 1. 0 
O1 O2- 8 d 0.2868(13) 0.0334(12) 0.7128(13) 1. 0 
O2 O2- 4 c 0.489(2) 0.25 0.067(3) 1. 0 

loop_
_atom_site_aniso_label
_atom_site_aniso_type_symbol
_atom_site_aniso_U_11
_atom_site_aniso_U_22
_atom_site_aniso_U_33
_atom_site_aniso_U_12
_atom_site_aniso_U_13
_atom_site_aniso_U_23
Ca1 Ca2+ 0.015(6) 0.005(8) 0.011(7) 0 -.001(7) 0
Fe1 Fe4+ 0.004(2) 0.003(4) 0.004(4) 0.001(3) 0.000(4) 0.006(4)
O1 O2- 0.008(4) 0.008(4) 0.006(3) 0.001(3) -.001(3) 0.000(3)
O2 O2- 0.005(6) 0.013(7) 0.011(7) 0 0.000(5) 0
#End of data_92353-ICSD


