data_72423-ICSD
#?2014 by Fachinformationszentrum Karlsruhe, and the U.S. Secretary of 
#Commerce on behalf of the United States.  All rights reserved.
_database_code_ICSD                72423
_audit_creation_date               1994/01/19
_audit_update_record               2006/04/01
_chemical_name_systematic          'Dilithium Tetrafluoroberyllate'
_chemical_formula_structural       'Li2 (Be F4)'
_chemical_formula_sum              'Be1 F4 Li2'
_publ_section_title
;
Estimation of ionicity coefficients in Li2 Be F4 crystals by X-ray 
diffraction
;
loop_
_citation_id
_citation_journal_abbrev
_citation_year
_citation_journal_volume
_citation_page_first
_citation_page_last
_citation_journal_id_ASTM
primary 'Acta Crystallographica, Section B: Structural Science'
 1993 49 223 235 ASBSDK
2 'Golden Book of Phase Transitions, Wroclaw' 2002 1 1 123 GBOPT5
_publ_author_name                  'Seiler, P.'
_cell_length_a                     13.281(2)
_cell_length_b                     13.281(2)
_cell_length_c                     8.888(1)
_cell_angle_alpha                  90.
_cell_angle_beta                   90.
_cell_angle_gamma                  120.
_cell_volume                       1357.68
_cell_formula_units_Z              18
_symmetry_space_group_name_H-M     'R -3 H'
_symmetry_Int_Tables_number        148
_refine_ls_R_factor_all            .017
loop_
_symmetry_equiv_pos_site_id
_symmetry_equiv_pos_as_xyz
  1	'x-y, x, -z'
  2	'y, -x+y, -z'
  3	'-x, -y, -z'
  4	'-x+y, -x, z'
  5	'-y, x-y, z'
  6	'x, y, z'
  7	'x-y+.6666, x+.3333, -z+.3333'
  8	'x-y+.3333, x+.6666, -z+.6666'
  9	'y+.6666, -x+y+.3333, -z+.3333'
 10	'y+.3333, -x+y+.6666, -z+.6666'
 11	'-x+.6666, -y+.3333, -z+.3333'
 12	'-x+.3333, -y+.6666, -z+.6666'
 13	'-x+y+.6666, -x+.3333, z+.3333'
 14	'-x+y+.3333, -x+.6666, z+.6666'
 15	'-y+.6666, x-y+.3333, z+.3333'
 16	'-y+.3333, x-y+.6666, z+.6666'
 17	'x+.6666, y+.3333, z+.3333'
 18	'x+.3333, y+.6666, z+.6666'
loop_
_atom_type_symbol
_atom_type_oxidation_number
Be2+	2
F1-	-1
Li1+	1
loop_
_atom_site_label
_atom_site_type_symbol
_atom_site_symmetry_multiplicity
_atom_site_Wyckoff_symbol
_atom_site_fract_x
_atom_site_fract_y
_atom_site_fract_z
_atom_site_occupancy
_atom_site_attached_hydrogens
F1 F1- 18 f 0.10541(1) 0.88942(1) 0.25185(1) 1. 0 
F2 F1- 18 f 0.32334(1) 0.00563(1) 0.24887(1) 1. 0 
F3 F1- 18 f 0.20410(1) 0.07550(1) 0.10393(1) 1. 0 
F4 F1- 18 f 0.20938(1) 0.08201(1) 0.39283(1) 1. 0 
Be1 Be2+ 18 f 0.21175(1) 0.01535(1) 0.24949(2) 1. 0 
Li1 Li1+ 18 f 0.21474(2) 0.02096(3) 0.58176(3) 1. 0 
Li2 Li1+ 18 f 0.20759(2) 0.01646(2) 0.91504(3) 1. 0 

loop_
_atom_site_aniso_label
_atom_site_aniso_type_symbol
_atom_site_aniso_U_11
_atom_site_aniso_U_22
_atom_site_aniso_U_33
_atom_site_aniso_U_12
_atom_site_aniso_U_13
_atom_site_aniso_U_23
F1 F1- 0.00581(1) 0.00542(1) 0.00615(1) 0.00116(1) -.00009(1) 0.00025(1)
F2 F1- 0.00518(1) 0.00609(1) 0.00775(2) 0.00306(1) -.00020(1) -.00025(1)
F3 F1- 0.00911(2) 0.00651(1) 0.00466(1) 0.00473(1) -.00007(1) 0.00054(1)
F4 F1- 0.00930(2) 0.00697(1) 0.00475(1) 0.00514(1) -.00025(1) -.00075(1)
Be1 Be2+ 0.00588(3) 0.00542(3) 0.00513(3) 0.00284(3) -.00010(3) -.00056(2)
Li1 Li1+ 0.00914(8) 0.00867(7) 0.00786(8) 0.00448(6) 0.00239(6) -.00010(6)
Li2 Li1+ 0.00889(8) 0.00841(7) 0.00794(8) 0.00438(6) 0.00005(6) 0.00015(6)
#End of data_72423-ICSD


