data_72329-ICSD
#?2014 by Fachinformationszentrum Karlsruhe, and the U.S. Secretary of 
#Commerce on behalf of the United States.  All rights reserved.
_database_code_ICSD                72329
_audit_creation_date               1994/01/19
_audit_update_record               2000/07/15
_chemical_name_systematic
;
Tetrabarium Dioxoargentate Tetraoxoaurate
;
_chemical_formula_structural       'Ba4 (Ag O2) (Au O4)'
_chemical_formula_sum              'Ag1 Au1 Ba4 O6'
_publ_section_title
;
Zur Kenntnis eines Oxoargentato(I)-aurats(III):Ba4 Ag Au O6
;
loop_
_citation_id
_citation_journal_abbrev
_citation_year
_citation_journal_volume
_citation_page_first
_citation_page_last
_citation_journal_id_ASTM
primary 'Zeitschrift fuer Anorganische und Allgemeine Chemie (1950) (DE)'
 1992 617 27 30 ZAACAB
_publ_author_name
;
Weinreich, J.;Mueller Buschbaum, H.
;
_cell_length_a                     13.2751(33)
_cell_length_b                     5.7820(15)
_cell_length_c                     11.3961(22)
_cell_angle_alpha                  90.
_cell_angle_beta                   90.
_cell_angle_gamma                  90.
_cell_volume                       874.73
_cell_formula_units_Z              4
_symmetry_space_group_name_H-M     'C m c m'
_symmetry_Int_Tables_number        63
_refine_ls_R_factor_all            .069
loop_
_symmetry_equiv_pos_site_id
_symmetry_equiv_pos_as_xyz
  1	'-x, y, -z+.5'
  2	'-x, -y, z+.5'
  3	'-x, y, z'
  4	'-x, -y, -z'
  5	'x, -y, z+.5'
  6	'x, y, -z+.5'
  7	'x, -y, -z'
  8	'x, y, z'
  9	'-x+.5, y+.5, -z+.5'
 10	'-x+.5, -y+.5, z+.5'
 11	'-x+.5, y+.5, z'
 12	'-x+.5, -y+.5, -z'
 13	'x+.5, -y+.5, z+.5'
 14	'x+.5, y+.5, -z+.5'
 15	'x+.5, -y+.5, -z'
 16	'x+.5, y+.5, z'
loop_
_atom_type_symbol
_atom_type_oxidation_number
Ag1+	1
Au3+	3
Ba2+	2
O2-	-2
loop_
_atom_site_label
_atom_site_type_symbol
_atom_site_symmetry_multiplicity
_atom_site_Wyckoff_symbol
_atom_site_fract_x
_atom_site_fract_y
_atom_site_fract_z
_atom_site_occupancy
_atom_site_attached_hydrogens
_atom_site_U_iso_or_equiv
Au1 Au3+ 4 a 0 0 0 1. 0 0 
Ag1 Ag1+ 4 c 0 0.5967(6) 0.75 1. 0 0 
Ba1 Ba2+ 8 e 0.3533(1) 0 0.5 1. 0 0 
Ba2 Ba2+ 8 g 0.3545(1) 0.4312(4) 0.25 1. 0 0 
O1 O2- 8 e 0.845(2) 0 0 1. 0 0.0112(39) 
O2 O2- 8 f 0 0.269(4) 0.609(2) 1. 0 0.0079(36) 
O3 O2- 8 g 0.162(2) 0.398(4) 0.25 1. 0 0.0097(40) 

loop_
_atom_site_aniso_label
_atom_site_aniso_type_symbol
_atom_site_aniso_U_11
_atom_site_aniso_U_22
_atom_site_aniso_U_33
_atom_site_aniso_U_12
_atom_site_aniso_U_13
_atom_site_aniso_U_23
Au1 Au3+ 0.0013(5) 0.0096(6) 0.0090(6) 0 0 0.0011(5)
Ag1 Ag1+ 0.0033(12) 0.0125(15) 0.0133(13) 0 0 0
Ba1 Ba2+ 0.0022(6) 0.0114(7) 0.0137(7) 0 0 0.0011(6)
Ba2 Ba2+ 0.0024(6) 0.0126(7) 0.0107(5) 0.0001(6) 0 0
#End of data_72329-ICSD


