data_85681-ICSD
#?2014 by Fachinformationszentrum Karlsruhe, and the U.S. Secretary of 
#Commerce on behalf of the United States.  All rights reserved.
_database_code_ICSD                85681
_audit_creation_date               1999/11/30
_chemical_name_systematic          'Dipotassium Gold Tetrathioarsenate'
_chemical_formula_structural       'K2 Au (As S4)'
_chemical_formula_sum              'As1 Au1 K2 S4'
_publ_section_title
;
K2 Au P S4, Tl2 Au P S4, K2 Au As S4 and K Au5 P2 S8: syntheses, 
structures, and properties of quaternary gold thiophosphate and 
thioarsenate compounds
;
loop_
_citation_id
_citation_journal_abbrev
_citation_year
_citation_journal_volume
_citation_page_first
_citation_page_last
_citation_journal_id_ASTM
primary 'European Journal of Inorganic Chemistry  (online)'
 1998 1998 283 289 EJICFO
_publ_author_name                  'Loeken, S.;Tremel, W.'
_cell_length_a                     6.555(1)
_cell_length_b                     6.859(1)
_cell_length_c                     9.533(2)
_cell_angle_alpha                  90.
_cell_angle_beta                   92.64(3)
_cell_angle_gamma                  90.
_cell_volume                       428.16
_cell_formula_units_Z              2
_symmetry_space_group_name_H-M     'P 1 21/m 1'
_symmetry_Int_Tables_number        11
_refine_ls_R_factor_all            .045
loop_
_symmetry_equiv_pos_site_id
_symmetry_equiv_pos_as_xyz
  1	'x, -y+.5, z'
  2	'-x, -y, -z'
  3	'-x, y+.5, -z'
  4	'x, y, z'
loop_
_atom_type_symbol
_atom_type_oxidation_number
As5+	5
Au1+	1
K1+	1
S2-	-2
loop_
_atom_site_label
_atom_site_type_symbol
_atom_site_symmetry_multiplicity
_atom_site_Wyckoff_symbol
_atom_site_fract_x
_atom_site_fract_y
_atom_site_fract_z
_atom_site_occupancy
_atom_site_attached_hydrogens
_atom_site_U_iso_or_equiv
Au1 Au1+ 2 a 0 0.5 0 1. 0 0.0190(3) 
As1 As5+ 2 e 0.2721(4) 0.25 0.2802(3) 1. 0 0.0145(8) 
K1 K1+ 2 e 0.7977(8) 0.25 0.4662(6) 1. 0 0.021(2) 
K2 K1+ 2 e 0.4537(10) 0.25 0.8373(7) 1. 0 0.030(2) 
S1 S2- 4 f 0.9079(6) 0.0125(8) 0.7653(5) 1. 0 0.025(1) 
S2 S2- 2 e 0.550(1) 0.25 0.1715(8) 1. 0 0.026(3) 
S3 S2- 2 e 0.3071(10) 0.25 0.5047(7) 1. 0 0.019(2) 

#End of data_85681-ICSD


