data_260759-ICSD
#?2014 by Fachinformationszentrum Karlsruhe, and the U.S. Secretary of 
#Commerce on behalf of the United States.  All rights reserved.
_database_code_ICSD                260759
_audit_creation_date               2010/08/01
_chemical_name_systematic
;
Tricesium Calcium Iron Bis(diphosphate)
;
_chemical_formula_structural       'Cs3 Ca Fe (P2 O7)2'
_chemical_formula_sum              'Ca1 Cs3 Fe1 O14 P4'
_publ_section_title
;
The triple pyrophosphate Cs3 Ca Fe (P2 O7)2
;
loop_
_citation_id
_citation_journal_abbrev
_citation_year
_citation_journal_volume
_citation_journal_issue
_citation_page_first
_citation_page_last
_citation_journal_id_ASTM
primary 'Acta Crystallographica, Section C: Crystal Structure Communications'
 2010 66 4 i39 i41 ACSCEE
_publ_author_name
;
Strutynska, N.Yu.;Baumer, V.N.;Zatovsky, I.V.;Babaryk, 
A.A.;Slobodyanik, N.S.
;
_cell_length_a                     9.3001(4)
_cell_length_b                     11.2399(5)
_cell_length_c                     15.1010(6)
_cell_angle_alpha                  90.00
_cell_angle_beta                   90.00
_cell_angle_gamma                  90.00
_cell_volume                       1578.54
_cell_formula_units_Z              4
_symmetry_space_group_name_H-M     'P 21 21 21'
_symmetry_Int_Tables_number        19
_refine_ls_R_factor_all            .0357
loop_
_symmetry_equiv_pos_site_id
_symmetry_equiv_pos_as_xyz
  1	'-x, y+.5, -z+.5'
  2	'x+.5, -y+.5, -z'
  3	'-x+.5, -y, z+.5'
  4	'x, y, z'
loop_
_atom_type_symbol
_atom_type_oxidation_number
Ca2+	2
Cs1+	1
Fe3+	3
O2-	-2
P5+	5
loop_
_atom_site_label
_atom_site_type_symbol
_atom_site_symmetry_multiplicity
_atom_site_Wyckoff_symbol
_atom_site_fract_x
_atom_site_fract_y
_atom_site_fract_z
_atom_site_occupancy
_atom_site_attached_hydrogens
_atom_site_U_iso_or_equiv
O1 O2- 4 a 0.4282(5) 0.2320(5) 0.0313(4) 1 0 0.0246(12) 
O2 O2- 4 a 0.5297(6) 0.0036(4) -0.2228(3) 1 0 0.0230(11) 
O3 O2- 4 a 0.5821(6) 0.5308(6) 0.2700(3) 1 0 0.0299(14) 
O4 O2- 4 a 0.7117(5) 0.5868(4) 0.1288(3) 1 0 0.0223(11) 
O5 O2- 4 a 0.5002(5) 0.1869(4) -0.1250(3) 1 0 0.0175(10) 
O6 O2- 4 a 0.5560(6) 0.2124(5) -0.2824(3) 1 0 0.0264(12) 
O7 O2- 4 a 0.4511(4) 0.6336(4) 0.1490(3) 1 0 0.0133(9) 
O8 O2- 4 a 0.4710(5) 0.0191(4) -0.0126(3) 1 0 0.0166(10) 
O9 O2- 4 a 0.5315(5) 0.4205(4) 0.1303(4) 1 0 0.0239(12) 
O10 O2- 4 a 0.2440(5) 0.3707(5) 0.1814(3) 1 0 0.0210(11) 
O11 O2- 4 a 0.6776(5) 0.1649(5) -0.0007(3) 1 0 0.0200(11) 
O12 O2- 4 a 0.2038(5) 0.6809(5) 0.0998(3) 1 0 0.0215(11) 
O13 O2- 4 a 0.4137(5) 0.7433(5) 0.0040(3) 1 0 0.0223(12) 
O14 O2- 4 a 0.3494(5) 0.5282(4) 0.0149(3) 1 0 0.0206(11) 
P1 P5+ 4 a 0.51962(17) 0.14486(16) -0.02141(11) 1 0 0.0115(4) 
P2 P5+ 4 a 0.58407(17) 0.12858(16) -0.20814(11) 1 0 0.0124(3) 
P3 P5+ 4 a 0.58060(17) 0.53843(17) 0.17165(11) 1 0 0.0120(4) 
P4 P5+ 4 a 0.34851(17) 0.64994(15) 0.06195(11) 1 0 0.0100(3) 
Ca1 Ca2+ 4 a 0.45553(12) -0.13533(11) -0.11675(8) 1 0 0.0071(2) 
Fe1 Fe3+ 4 a 0.34997(9) 0.37596(9) 0.07286(6) 1 0 0.01095(19) 
Cs1 Cs1+ 4 a 0.62755(4) -0.12957(4) 0.12997(3) 1 0 0.01818(11) 
Cs2 Cs1+ 4 a 0.72190(5) 0.21268(5) 0.19591(3) 1 0 0.02610(13) 
Cs3 Cs1+ 4 a 0.17569(5) -0.01048(6) 0.08968(4) 1 0 0.03815(16) 

loop_
_atom_site_aniso_label
_atom_site_aniso_type_symbol
_atom_site_aniso_U_11
_atom_site_aniso_U_22
_atom_site_aniso_U_33
_atom_site_aniso_U_12
_atom_site_aniso_U_13
_atom_site_aniso_U_23
O1 O2- 0.010(2) 0.028(3) 0.023(3) 0.003(2) -0.002(2) -0.009(2)
O2 O2- 0.036(3) 0.017(3) 0.016(2) -0.008(2) 0.000(2) 0.004(2)
O3 O2- 0.026(3) 0.053(4) 0.011(2) -0.004(3) -0.006(2) 0.011(3)
O4 O2- 0.011(2) 0.026(3) 0.030(3) -0.0038(19) 0.005(2) 0.001(2)
O5 O2- 0.020(2) 0.017(3) 0.015(2) 0.0110(19) 0.001(2) 0.002(2)
O6 O2- 0.034(3) 0.027(3) 0.019(3) 0.005(2) -0.003(2) 0.016(2)
O7 O2- 0.012(2) 0.014(2) 0.014(2) 0.003(2) -0.0050(17) 0.000(2)
O8 O2- 0.026(3) 0.008(2) 0.016(2) -0.001(2) 0.003(2) -0.003(2)
O9 O2- 0.011(2) 0.016(3) 0.045(3) 0.0053(19) -0.010(2) -0.005(3)
O10 O2- 0.012(2) 0.037(3) 0.014(2) 0.001(2) 0.0026(19) 0.001(2)
O11 O2- 0.010(2) 0.028(3) 0.023(3) 0.003(2) -0.002(2) -0.009(2)
O12 O2- 0.006(2) 0.035(3) 0.024(3) 0.0017(19) 0.0003(19) 0.001(2)
O13 O2- 0.024(3) 0.022(3) 0.021(3) -0.009(2) -0.002(2) 0.010(2)
O14 O2- 0.030(3) 0.013(3) 0.019(3) -0.003(2) -0.010(2) 0.000(2)
P1 P5+ 0.0084(7) 0.0116(9) 0.0146(8) 0.0018(6) 0.0013(6) -0.0030(7)
P2 P5+ 0.0122(7) 0.0140(8) 0.0109(8) -0.0010(7) -0.0015(6) 0.0048(8)
P3 P5+ 0.0074(7) 0.0131(9) 0.0156(9) -0.0008(6) -0.0023(6) 0.0042(7)
P4 P5+ 0.0080(8) 0.0103(9) 0.0117(8) -0.0015(6) -0.0018(6) 0.0028(7)
Ca1 Ca2+ 0.0073(5) 0.0070(6) 0.0070(6) 0.0000(5) 0.0004(4) -0.0010(5)
Fe1 Fe3+ 0.0088(4) 0.0097(5) 0.0144(4) 0.0004(4) 0.0012(3) -0.0025(4)
Cs1 Cs1+ 0.0175(2) 0.0198(2) 0.0172(2) -0.00091(18) -0.00198(18) -0.0005(2)
Cs2 Cs1+ 0.0228(2) 0.0385(3) 0.0171(2) -0.0069(2) 0.0014(2) 0.0032(2)
Cs3 Cs1+ 0.0235(2) 0.0640(4) 0.0269(3) 0.0006(2) -0.0019(2) 0.0035(3)
#End of data_260759-ICSD


