data_12127-ICSD
#?2014 by Fachinformationszentrum Karlsruhe, and the U.S. Secretary of 
#Commerce on behalf of the United States.  All rights reserved.
_database_code_ICSD                12127
_audit_creation_date               1986/08/08
_audit_update_record               2010/02/01
_chemical_name_systematic
;
Calcium Aluminium Silicate Hydroxide
;
_chemical_formula_structural       'Ca Al (Si O4) (O H)'
_chemical_formula_sum              'H1 Al1 Ca1 O5 Si1'
_chemical_name_mineral             Vuagnatite
_publ_section_title
;
The crystal structure of vuagnatite, Ca Al (O H) Si O4
;
loop_
_citation_id
_citation_journal_abbrev
_citation_year
_citation_journal_volume
_citation_page_first
_citation_page_last
_citation_journal_id_ASTM
primary 'American Mineralogist' 1976 61 831 838 AMMIAY
2 'American Mineralogist' 1976 61 825 830 AMMIAY
_publ_author_name
;
McNear, E.;Vincent, M.G.;Parthe, E.
;
_cell_length_a                     7.055(6)
_cell_length_b                     8.542(7)
_cell_length_c                     5.683(5)
_cell_angle_alpha                  90.
_cell_angle_beta                   90.
_cell_angle_gamma                  90.
_cell_volume                       342.48
_cell_formula_units_Z              4
_symmetry_space_group_name_H-M     'P 21 21 21'
_symmetry_Int_Tables_number        19
_refine_ls_R_factor_all            .043
loop_
_symmetry_equiv_pos_site_id
_symmetry_equiv_pos_as_xyz
  1	'-x, y+.5, -z+.5'
  2	'x+.5, -y+.5, -z'
  3	'-x+.5, -y, z+.5'
  4	'x, y, z'
loop_
_atom_type_symbol
_atom_type_oxidation_number
Al3+	3
Ca2+	2
H1+	1
O2-	-2
Si4+	4
loop_
_atom_site_label
_atom_site_type_symbol
_atom_site_symmetry_multiplicity
_atom_site_Wyckoff_symbol
_atom_site_fract_x
_atom_site_fract_y
_atom_site_fract_z
_atom_site_occupancy
_atom_site_attached_hydrogens
_atom_site_U_iso_or_equiv
Ca1 Ca2+ 4 a 0.3627(1) 0.6646(1) 0.0282(1) 1. 0 0 
Al1 Al3+ 4 a 0.2610(1) 0.9951(2) 0.7429(2) 1. 0 0 
Si1 Si4+ 4 a 0.6198(1) 0.8095(1) 0.5120(2) 1. 0 0 
O1 O2- 4 a 0.4293(2) 0.9287(2) 0.4909(4) 1. 0 0 
O2 O2- 4 a 0.7885(3) 0.9314(3) 0.5699(4) 1. 0 0 
O3 O2- 4 a 0.6468(3) 0.7106(3) 0.2677(4) 1. 0 0 
O4 O2- 4 a 0.6133(3) 0.6934(3) 0.7417(4) 1. 0 0 
O5 O2- 4 a 0.3955(2) 0.9356(3) 0.0043(4) 1. 0 0 
H1 H1+ 4 a 0.514(7) 0.984(7) 0.032(10) 1. 0 0.034(16) 

loop_
_atom_site_aniso_label
_atom_site_aniso_type_symbol
_atom_site_aniso_U_11
_atom_site_aniso_U_22
_atom_site_aniso_U_33
_atom_site_aniso_U_12
_atom_site_aniso_U_13
_atom_site_aniso_U_23
Ca1 Ca2+ 0.081(2) 0.051(2) 0.047(2) 0.002(1) 0.003(2) 0.000(2)
Al1 Al3+ 0.076(3) 0.043(4) 0.024(4) -.003(2) -.004(3) 0.007(3)
Si1 Si4+ 0.0063(2) 0.048(4) 0.023(3) 0.003(2) 0.001(2) 0.000(3)
O1 O2- 0.076(7) 0.037(9) 0.047(9) 0.009(5) -.008(6) -.003(7)
O2 O2- 0.075(7) 0.088(11) 0.060(9) -.016(6) -.001(7) 0.011(8)
O3 O2- 0.089(7) 0.059(9) 0.030(8) 0.011(7) -.005(6) -.004(7)
O4 O2- 0.103(8) 0.061(11) 0.018(8) 0.009(6) 0.004(6) 0.000(7)
O5 O2- 0.066(6) 0.050(9) 0.041(9) -.010(5) -.006(6) 0.008(8)
#End of data_12127-ICSD


