data_50541-ICSD
#?2014 by Fachinformationszentrum Karlsruhe, and the U.S. Secretary of 
#Commerce on behalf of the United States.  All rights reserved.
_database_code_ICSD                50541
_audit_creation_date               1999/11/30
_chemical_name_systematic
;
Dipotassium Tricopper Tetrakis(selenate(IV))
;
_chemical_formula_structural       'K2 Cu3 (Se O3)4'
_chemical_formula_sum              'Cu3 K2 O12 Se4'
_publ_section_title
;
New copper selenites. Part A: K2 Cu2 (Se O3)3 and K2 Cu3 (Se O3)4
;
loop_
_citation_id
_citation_journal_abbrev
_citation_year
_citation_journal_volume
_citation_page_first
_citation_page_last
_citation_journal_id_ASTM
primary 'Zeitschrift fuer Kristallographie (1979-2010)' 1998 213 266 269 ZEKRDZ
_publ_author_name                  'Giester, G.'
_cell_length_a                     5.443(1)
_cell_length_b                     7.158(2)
_cell_length_c                     8.369(3)
_cell_angle_alpha                  95.26(2)
_cell_angle_beta                   108.58(2)
_cell_angle_gamma                  92.17(2)
_cell_volume                       306.99
_cell_formula_units_Z              1
_symmetry_space_group_name_H-M     'P -1'
_symmetry_Int_Tables_number        2
_refine_ls_R_factor_all            .035
loop_
_symmetry_equiv_pos_site_id
_symmetry_equiv_pos_as_xyz
  1	'-x, -y, -z'
  2	'x, y, z'
loop_
_atom_type_symbol
_atom_type_oxidation_number
Cu2+	2
K1+	1
O2-	-2
Se4+	4
loop_
_atom_site_label
_atom_site_type_symbol
_atom_site_symmetry_multiplicity
_atom_site_Wyckoff_symbol
_atom_site_fract_x
_atom_site_fract_y
_atom_site_fract_z
_atom_site_occupancy
_atom_site_attached_hydrogens
K1 K1+ 2 i 0.15153(17) 0.58690(11) 0.29553(15) 1. 0 
Cu1 Cu2+ 1 a 0 0 0 1. 0 
Cu2 Cu2+ 2 i 0.39478(7) 0.73470(6) 0.77943(5) 1. 0 
Se1 Se4+ 2 i 0.79850(6) 0.86678(4) 0.58377(4) 1. 0 
Se2 Se4+ 2 i 0.57135(6) 0.80742(5) 0.12871(4) 1. 0 
O1 O2- 2 i 0.0493(4) 0.7267(3) 0.6135(3) 1. 0 
O2 O2- 2 i 0.5612(5) 0.7228(3) 0.6078(3) 1. 0 
O3 O2- 2 i 0.8824(5) 0.0293(3) 0.7564(3) 1. 0 
O4 O2- 2 i 0.6256(5) 0.6153(4) 0.2257(4) 1. 0 
O5 O2- 2 i 0.2705(4) 0.7613(4) -.0246(3) 1. 0 
O6 O2- 2 i 0.7254(4) 0.7864(4) -.0264(3) 1. 0 

loop_
_atom_site_aniso_label
_atom_site_aniso_type_symbol
_atom_site_aniso_U_11
_atom_site_aniso_U_22
_atom_site_aniso_U_33
_atom_site_aniso_U_12
_atom_site_aniso_U_13
_atom_site_aniso_U_23
K1 K1+ 0.0206(3) 0.0212(3) 0.0534(6) 0.0040(2) 0.0166(4) 0.0132(3)
Cu1 Cu2+ 0.01010(19) 0.0147(2) 0.00895(19) -.00058(14) 0.00277(15) 
0.00170(16)
Cu2 Cu2+ 0.00960(15) 0.02347(17) 0.01077(15) -.00004(11) 0.00349(11) 
-.00073(13)
Se1 Se4+ 0.01080(11) 0.01487(12) 0.00795(11) 0.00063(8) 0.00233(8) 
0.00210(9)
Se2 Se4+ 0.01213(13) 0.02062(13) 0.00979(12) 0.00099(9) 0.00337(9) 
0.00246(10)
O1 O2- 0.0101(9) 0.0229(10) 0.0178(10) 0.0027(7) 0.0021(7) -.0012(8)
O2 O2- 0.0147(9) 0.023(1) 0.0156(10) -.0053(7) 0.0085(8) -.0038(8)
O3 O2- 0.0184(10) 0.0151(8) 0.0096(8) -.0003(7) 0.0022(7) 0.0002(7)
O4 O2- 0.0208(11) 0.0257(11) 0.0198(11) 0.0030(8) 0.0079(9) 0.0086(9)
O5 O2- 0.0105(9) 0.0298(11) 0.0129(9) 0.0009(7) 0.0037(7) 0.0007(9)
O6 O2- 0.0122(9) 0.0264(11) 0.0121(9) -.0010(7) 0.0050(7) 0.0018(8)
#End of data_50541-ICSD


