data_20571-ICSD
#?2014 by Fachinformationszentrum Karlsruhe, and the U.S. Secretary of 
#Commerce on behalf of the United States.  All rights reserved.
_database_code_ICSD                20571
_audit_creation_date               1980/01/01
_audit_update_record               2006/04/01
_chemical_name_systematic          'Calcium Catena-silicate'
_chemical_formula_structural       'Ca (Si O3)'
_chemical_formula_sum              'Ca1 O3 Si1'
_chemical_name_mineral             'Wollastonite 1A'
_publ_section_title
;
The crystal structure of wollastonite
;
loop_
_citation_id
_citation_journal_abbrev
_citation_year
_citation_journal_volume
_citation_page_first
_citation_page_last
_citation_journal_id_ASTM
primary 'Doklady Akademii Nauk SSSR' 1956 107 463 466 DANKAS
2 'Golden Book of Phase Transitions, Wroclaw' 2002 1 1 123 GBOPT5
_publ_author_name                  'Mamedov, Kh.S.;Belov, N.V.'
_cell_length_a                     7.896
_cell_length_b                     7.285
_cell_length_c                     7.084
_cell_angle_alpha                  90.
_cell_angle_beta                   95.27
_cell_angle_gamma                  103.37
_cell_volume                       394.67
_cell_formula_units_Z              6
_symmetry_space_group_name_H-M     'P -1'
_symmetry_Int_Tables_number        2
_refine_ls_R_factor_all            .24
loop_
_symmetry_equiv_pos_site_id
_symmetry_equiv_pos_as_xyz
  1	'-x, -y, -z'
  2	'x, y, z'
loop_
_atom_type_symbol
_atom_type_oxidation_number
Ca2+	2
O2-	-2
Si4+	4
loop_
_atom_site_label
_atom_site_type_symbol
_atom_site_symmetry_multiplicity
_atom_site_Wyckoff_symbol
_atom_site_fract_x
_atom_site_fract_y
_atom_site_fract_z
_atom_site_occupancy
_atom_site_attached_hydrogens
Ca1 Ca2+ 2 i 0 0.25 0 1. 0 
Ca2 Ca2+ 2 i 0.703 -.074 0.263 1. 0 
Ca3 Ca2+ 2 i 0.703 0.426 0.263 1. 0 
Si1 Si4+ 2 i 0.313 0.033 0.232 1. 0 
Si2 Si4+ 2 i 0.313 0.623 0.232 1. 0 
Si3 Si4+ 2 i 0.099 0.275 0.443 1. 0 
O1 O2- 2 i 0.094 0.274 0.667 1. 0 
O2 O2- 2 i 0.094 0.774 0.667 1. 0 
O3 O2- 2 i 0.19 0.05 0.047 1. 0 
O4 O2- 2 i 0.19 0.55 0.047 1. 0 
O5 O2- 2 i 0.515 0.129 0.229 1. 0 
O6 O2- 2 i 0.515 0.629 0.229 1. 0 
O7 O2- 2 i 0.224 0.129 0.406 1. 0 
O8 O2- 2 i 0.224 0.483 0.406 1. 0 
O9 O2- 2 i 0.313 0.828 0.232 1. 0 

#End of data_20571-ICSD


