data_245056-ICSD
#?2014 by Fachinformationszentrum Karlsruhe, and the U.S. Secretary of 
#Commerce on behalf of the United States.  All rights reserved.
_database_code_ICSD                245056
_audit_creation_date               2007/04/01
_audit_update_record               2009/08/01
_chemical_name_systematic          'Trizinc Tellurate(VI)'
_chemical_formula_structural       'Zn3 (Te O6)'
_chemical_formula_sum              'O6 Te1 Zn3'
_publ_section_title                'Zn3 Te O6'
loop_
_citation_id
_citation_journal_abbrev
_citation_year
_citation_journal_volume
_citation_page_first
_citation_page_last
_citation_journal_id_ASTM
primary 'Acta Crystallographica, Section E. Structure Reports Online'
 2006 62 1246 1247 ACSEBH
_publ_author_name                  'Weil, M.'
_cell_length_a                     14.8898(8)
_cell_length_b                     8.8341(5)
_cell_length_c                     10.3457(5)
_cell_angle_alpha                  90.00
_cell_angle_beta                   92.9900(10)
_cell_angle_gamma                  90.00
_cell_volume                       1359
_cell_formula_units_Z              12
_symmetry_space_group_name_H-M     'C 1 2/c 1'
_symmetry_Int_Tables_number        15
_refine_ls_R_factor_all            .0363
loop_
_symmetry_equiv_pos_site_id
_symmetry_equiv_pos_as_xyz
  1	'x, -y, z+.5'
  2	'-x, -y, -z'
  3	'-x, y, -z+.5'
  4	'x, y, z'
  5	'x+.5, -y+.5, z+.5'
  6	'-x+.5, -y+.5, -z'
  7	'-x+.5, y+.5, -z+.5'
  8	'x+.5, y+.5, z'
loop_
_atom_type_symbol
_atom_type_oxidation_number
O2-	-2
Te6+	6
Zn2+	2
loop_
_atom_site_label
_atom_site_type_symbol
_atom_site_symmetry_multiplicity
_atom_site_Wyckoff_symbol
_atom_site_fract_x
_atom_site_fract_y
_atom_site_fract_z
_atom_site_occupancy
_atom_site_attached_hydrogens
_atom_site_U_iso_or_equiv
Te1 Te6+ 8 f 0.16407(2) 0.49786(4) 0.30415(3) 1 0 0.00538(10) 
Te2 Te6+ 4 a 0.0000 0.0000 0.0000 1 0 0.00529(11) 
Zn1 Zn2+ 8 f 0.16274(5) 0.26545(9) 0.05829(7) 1 0 0.01223(16) 
Zn2 Zn2+ 8 f 0.20357(5) 0.13798(8) 0.42673(7) 1 0 0.00906(15) 
Zn3 Zn2+ 8 f 0.36213(5) 0.36122(8) 0.24260(7) 1 0 0.00943(15) 
Zn4 Zn2+ 8 f 0.52649(5) 0.14948(8) 0.05220(7) 1 0 0.00868(14) 
Zn5 Zn2+ 4 e 0.0000 0.20099(12) 0.2500 1 0 0.00887(19) 
O1 O2- 8 f 0.0711(3) 0.0209(5) 0.1573(4) 1 0 0.0107(8) 
O2 O2- 8 f 0.0730(3) 0.1630(5) 0.4388(4) 1 0 0.0085(7) 
O3 O2- 8 f 0.1007(3) 0.3440(5) 0.2041(4) 1 0 0.0092(8) 
O4 O2- 8 f 0.2368(3) 0.3498(5) 0.3977(4) 1 0 0.0095(8) 
O5 O2- 8 f 0.2566(3) 0.4805(5) 0.1793(4) 1 0 0.0088(7) 
O6 O2- 8 f 0.2755(3) 0.1540(5) 0.0985(4) 1 0 0.0104(8) 
O7 O2- 8 f 0.3910(3) 0.1573(5) 0.2988(4) 1 0 0.0087(8) 
O8 O2- 8 f 0.4256(3) 0.0027(5) 0.0717(4) 1 0 0.0095(8) 
O9 O2- 8 f 0.4288(3) 0.3404(5) 0.0710(4) 1 0 0.0091(8) 

loop_
_atom_site_aniso_label
_atom_site_aniso_type_symbol
_atom_site_aniso_U_11
_atom_site_aniso_U_22
_atom_site_aniso_U_33
_atom_site_aniso_U_12
_atom_site_aniso_U_13
_atom_site_aniso_U_23
Te1 Te6+ 0.00539(16) 0.00435(16) 0.00642(17) 0.00006(11) 0.00040(11) 
0.00002(11)
Te2 Te6+ 0.0055(2) 0.0042(2) 0.0062(2) -0.00010(15) 0.00055(15) 
-0.00012(15)
Zn1 Zn2+ 0.0078(3) 0.0197(4) 0.0093(3) 0.0026(3) 0.0011(2) -0.0028(3)
Zn2 Zn2+ 0.0085(3) 0.0080(3) 0.0108(3) -0.0001(2) 0.0005(2) -0.0027(2)
Zn3 Zn2+ 0.0105(3) 0.0068(3) 0.0108(3) 0.0016(2) -0.0011(2) 0.0007(2)
Zn4 Zn2+ 0.0088(3) 0.0072(3) 0.0099(3) -0.0007(2) -0.0009(2) -0.0005(2)
Zn5 Zn2+ 0.0089(4) 0.0087(4) 0.0092(4) 0.000 0.0018(3) 0.000
O1 O2- 0.0128(19) 0.0097(19) 0.0091(18) 0.0000(16) -0.0033(15) -0.0010(15)
O2 O2- 0.0054(17) 0.0093(18) 0.0108(18) -0.0007(14) 0.0002(14) 0.0008(15)
O3 O2- 0.0081(18) 0.0107(19) 0.0089(18) -0.0021(15) 0.0020(14) -0.0034(15)
O4 O2- 0.0108(19) 0.0054(17) 0.0120(19) 0.0007(14) -0.0011(15) 0.0037(14)
O5 O2- 0.0067(17) 0.0101(18) 0.0099(18) -0.0002(14) 0.0033(14) 0.0025(15)
O6 O2- 0.0102(19) 0.0108(19) 0.0103(19) 0.0026(15) 0.0008(15) 0.0052(15)
O7 O2- 0.015(2) 0.0056(17) 0.0053(17) -0.0019(15) -0.0049(14) 0.0009(13)
O8 O2- 0.0114(19) 0.0096(19) 0.0082(18) -0.0019(15) 0.0063(15) -0.0013(14)
O9 O2- 0.0124(19) 0.0056(17) 0.0096(18) -0.0028(15) 0.0031(15) 0.0008(14)
#End of data_245056-ICSD


