data_66515-ICSD
#?2014 by Fachinformationszentrum Karlsruhe, and the U.S. Secretary of 
#Commerce on behalf of the United States.  All rights reserved.
_database_code_ICSD                66515
_audit_creation_date               1994/01/19
_audit_update_record               2013/08/01
_chemical_name_systematic
;
Dipotassium Tetrachlorozincate - Lt
;
_chemical_formula_structural       'K2 (Zn Cl4)'
_chemical_formula_sum              'Cl4 K2 Zn1'
_publ_section_title
;
Low-temperature commensurate phase of potassium tetrachlorozincate, 
K2 Zn Cl4
;
loop_
_citation_id
_citation_journal_abbrev
_citation_year
_citation_journal_volume
_citation_page_first
_citation_page_last
_citation_journal_id_ASTM
primary 'Acta Crystallographica, Section C: Crystal Structure Communications'
 1993 49 9 12 ACSCEE
2 'Phase Transition' 1992 38 127 220 PHTRDP
_publ_author_name                  'Mashiyama, H.'
_cell_length_a                     14.394(7)
_cell_length_b                     24.544(8)
_cell_length_c                     26.616(5)
_cell_angle_alpha                  90.
_cell_angle_beta                   89.98(3)
_cell_angle_gamma                  90.
_cell_volume                       9403.07
_cell_formula_units_Z              48
_symmetry_space_group_name_H-M     'C 1 c 1'
_symmetry_Int_Tables_number        9
_refine_ls_R_factor_all            .043
loop_
_symmetry_equiv_pos_site_id
_symmetry_equiv_pos_as_xyz
  1	'x, -y, z+.5'
  2	'x, y, z'
  3	'x+.5, -y+.5, z+.5'
  4	'x+.5, y+.5, z'
loop_
_atom_type_symbol
_atom_type_oxidation_number
Cl1-	-1
K1+	1
Zn2+	2
loop_
_atom_site_label
_atom_site_type_symbol
_atom_site_symmetry_multiplicity
_atom_site_Wyckoff_symbol
_atom_site_fract_x
_atom_site_fract_y
_atom_site_fract_z
_atom_site_occupancy
_atom_site_attached_hydrogens
K1 K1+ 4 a 0.1153 0.0808(2) 0.21 1. 0 
K2 K1+ 4 a 0.1319(4) 0.0822(2) 0.5431(2) 1. 0 
K3 K1+ 4 a 0.1398(4) 0.0778(2) 0.8808(2) 1. 0 
K4 K1+ 4 a 0.1594(4) 0.4148(2) 0.0436(2) 1. 0 
K5 K1+ 4 a 0.1315(4) 0.4126(2) 0.3804(2) 1. 0 
K6 K1+ 4 a 0.1148(4) 0.4110(2) 0.7111(2) 1. 0 
K7 K1+ 4 a 0.3685(4) 0.3319(2) 0.2905(2) 1. 0 
K8 K1+ 4 a 0.3959(4) 0.3391(2) 0.6197(2) 1. 0 
K9 K1+ 4 a 0.4092(4) 0.3310(2) 0.9564(2) 1. 0 
K10 K1+ 4 a 0.3843(4) 0.1721(2) 0.1206(2) 1. 0 
K11 K1+ 4 a 0.3822(4) 0.1604(2) 0.4573(2) 1. 0 
K12 K1+ 4 a 0.3556(4) 0.1659(2) 0.7918(2) 1. 0 
K13 K1+ 4 a 0.1126(3) 0.2822(2) 0.1682(2) 1. 0 
K14 K1+ 4 a 0.1532(3) 0.2805(2) 0.4983(2) 1. 0 
K15 K1+ 4 a 0.1123(4) 0.2812(2) 0.8344(2) 1. 0 
K16 K1+ 4 a 0.1505(3) 0.2194(2) 0.0002(2) 1. 0 
K17 K1+ 4 a 0.1113(3) 0.2188(2) 0.3304(2) 1. 0 
K18 K1+ 4 a 0.1284(4) 0.2166(2) 0.6650(2) 1. 0 
K19 K1+ 4 a 0.4071(3) 0.0288(2) 0.0018(2) 1. 0 
K20 K1+ 4 a 0.3738(3) 0.0347(2) 0.3334(2) 1. 0 
K21 K1+ 4 a 0.3678(3) 0.0305(2) 0.6677(2) 1. 0 
K22 K1+ 4 a 0.3607(3) 0.4685(2) 0.1697(2) 1. 0 
K23 K1+ 4 a 0.3992(3) 0.4678(2) 0.5001(2) 1. 0 
K24 K1+ 4 a 0.3701(3) 0.4703(2) 0.8344(2) 1. 0 
Zn1 Zn2+ 4 a 0.1318(2) 0.0817(1) 0.0704(1) 1. 0 
Cl1 Cl1- 4 a 0.0881(4) 0.0970(2) -.0078(2) 1. 0 
Cl2 Cl1- 4 a 0.1589(4) 0.1597(2) 0.1141(2) 1. 0 
Cl3 Cl1- 4 a 0.0026(3) 0.0456(2) 0.1095(2) 1. 0 
Cl4 Cl1- 4 a 0.2467(4) 0.0207(2) 0.0808(2) 1. 0 
Zn2 Zn2+ 4 a 0.1396(1) 0.0843(1) 0.4028(1) 1. 0 
Cl5 Cl1- 4 a 0.1647(4) 0.0938(2) 0.3205(2) 1. 0 
Cl6 Cl1- 4 a 0.1469(4) 0.1660(2) 0.4434(2) 1. 0 
Cl7 Cl1- 4 a 0.0049(4) 0.0466(2) 0.4295(2) 1. 0 
Cl8 Cl1- 4 a 0.2553(4) 0.0333(2) 0.4384(2) 1. 0 
Zn3 Zn2+ 4 a 0.1206(2) 0.0825(1) 0.7400(1) 1. 0 
Cl9 Cl1- 4 a 0.1592(4) 0.0902(2) 0.6581(2) 1. 0 
Cl10 Cl1- 4 a 0.0952(3) 0.1630(2) 0.7806(2) 1. 0 
Cl11 Cl1- 4 a 0.0093(4) 0.0219(2) 0.7569(2) 1. 0 
Cl12 Cl1- 4 a 0.2563(4) 0.0515(2) 0.7778(2) 1. 0 
Zn4 Zn2+ 4 a 0.1181(2) 0.4170(1) 0.2413(1) 1. 0 
Cl13 Cl1- 4 a 0.1570(4) 0.4065(2) 0.1594(2) 1. 0 
Cl14 Cl1- 4 a 0.0799(4) 0.3376(2) 0.2810(2) 1. 0 
Cl15 Cl1- 4 a 0.0133(4) 0.4820(2) 0.2558(2) 1. 0 
Cl16 Cl1- 4 a 0.2557(4) 0.4414(2) 0.2804(2) 1. 0 
Zn5 Zn2+ 4 a 0.1288(2) 0.4126(1) 0.5723(1) 1. 0 
Cl17 Cl1- 4 a 0.0885(4) 0.4012(2) 0.4932(2) 1. 0 
Cl18 Cl1- 4 a 0.1688(4) 0.3334(2) 0.6129(2) 1. 0 
Cl19 Cl1- 4 a -.0005(3) 0.4422(2) 0.6130(2) 1. 0 
Cl20 Cl1- 4 a 0.2431(4) 0.4740(2) 0.5851(2) 1. 0 
Zn6 Zn2+ 4 a 0.1476(2) 0.4170(1) 0.9042(1) 1. 0 
Cl21 Cl1- 4 a 0.1663(4) 0.4046(2) 0.8214(2) 1. 0 
Cl22 Cl1- 4 a 0.1837(4) 0.3379(2) 0.9473(2) 1. 0 
Cl23 Cl1- 4 a 0.0047(4) 0.4447(2) 0.9290(2) 1. 0 
Cl24 Cl1- 4 a 0.2461(4) 0.4823(2) 0.9327(2) 1. 0 
Zn7 Zn2+ 4 a 0.3905(2) 0.3327(1) 0.0958(1) 1. 0 
Cl25 Cl1- 4 a 0.4207(4) 0.3466(2) 0.1766(2) 1. 0 
Cl26 Cl1- 4 a 0.4023(4) 0.4119(2) 0.0534(2) 1. 0 
Cl27 Cl1- 4 a 0.2544(4) 0.2949(2) 0.0779(2) 1. 0 
Cl28 Cl1- 4 a 0.4997(4) 0.2753(2) 0.0646(2) 1. 0 
Zn8 Zn2+ 4 a 0.3822(2) 0.3316(1) 0.4277(1) 1. 0 
Cl29 Cl1- 4 a 0.3374(4) 0.3483(2) 0.5092(2) 1. 0 
Cl30 Cl1- 4 a 0.4242(4) 0.4082(2) 0.3862(2) 1. 0 
Cl31 Cl1- 4 a 0.2492(4) 0.3024(2) 0.3884(2) 1. 0 
Cl32 Cl1- 4 a 0.4922(4) 0.2671(2) 0.4224(2) 1. 0 
Zn9 Zn2+ 4 a 0.3707(2) 0.3355(1) 0.7603(1) 1. 0 
Cl33 Cl1- 4 a 0.4105(4) 0.3455(2) 0.8412(2) 1. 0 
Cl34 Cl1- 4 a 0.3305(4) 0.4140(2) 0.7204(2) 1. 0 
Cl35 Cl1- 4 a 0.2610(4) 0.2719(2) 0.7478(2) 1. 0 
Cl36 Cl1- 4 a 0.5049(4) 0.3098(2) 0.7214(2) 1. 0 
Zn10 Zn2+ 4 a 0.3695(2) 0.1686(1) 0.2583(1) 1. 0 
Cl37 Cl1- 4 a 0.4036(4) 0.1596(2) 0.3396(2) 1. 0 
Cl38 Cl1- 4 a 0.3308(4) 0.0897(2) 0.2197(2) 1. 0 
Cl39 Cl1- 4 a 0.2602(4) 0.2328(2) 0.2435(2) 1. 0 
Cl40 Cl1- 4 a 0.5032(4) 0.1966(2) 0.2205(2) 1. 0 
Zn11 Zn2+ 4 a 0.3934(2) 0.1662(1) 0.5942(1) 1. 0 
Cl41 Cl1- 4 a 0.4023(4) 0.1580(2) 0.6773(2) 1. 0 
Cl42 Cl1- 4 a 0.4370(4) 0.0869(2) 0.5578(2) 1. 0 
Cl43 Cl1- 4 a 0.2543(4) 0.1888(2) 0.5637(2) 1. 0 
Cl44 Cl1- 4 a 0.4937(4) 0.2323(2) 0.5699(2) 1. 0 
Zn12 Zn2+ 4 a 0.3765(2) 0.1624(1) 0.9282(1) 1. 0 
Cl45 Cl1- 4 a 0.3373(4) 0.1499(2) 0.0110(2) 1. 0 
Cl46 Cl1- 4 a 0.4111(4) 0.0834(2) 0.8879(2) 1. 0 
Cl47 Cl1- 4 a 0.2437(4) 0.1936(2) 0.8908(2) 1. 0 
Cl48 Cl1- 4 a 0.4937(4) 0.2211(2) 0.9153(2) 1. 0 

loop_
_atom_site_aniso_label
_atom_site_aniso_type_symbol
_atom_site_aniso_U_11
_atom_site_aniso_U_22
_atom_site_aniso_U_33
_atom_site_aniso_U_12
_atom_site_aniso_U_13
_atom_site_aniso_U_23
K1 K1+ 0.0232(22) 0.0250(22) 0.0129(19) -0.0039(20) -0.0057(18) 0.0047(18)
K2 K1+ 0.0299(24) 0.0248(22) 0.0165(20) -0.0102(20) -0.0118(18) 0.0040(18)
K3 K1+ 0.0373(31) 0.0337(27) 0.0165(22) -0.0021(25) -0.0005(22) -0.0018(22)
K4 K1+ 0.0367(26) 0.0246(23) 0.0162(20) 0.0105(22) -0.0089(21) 0.0039(19)
K5 K1+ 0.0202(22) 0.0333(25) 0.0137(20) -0.014(2) -0.0009(18) -0.0021(19)
K6 K1+ 0.0230(21) 0.020(2) 0.0117(18) -0.0032(18) -0.0088(17) -0.0024(17)
K7 K1+ 0.0328(25) 0.0237(22) 0.0132(20) -0.0061(22) -0.0029(20) 0.0005(18)
K8 K1+ 0.0215(22) 0.0323(25) 0.0158(20) -0.0038(21) -0.0076(18) -0.0013(19)
K9 K1+ 0.0265(22) 0.0304(24) 0.0135(19) 0.0091(21) -0.0092(18) -0.0015(18)
K10 K1+ 0.0227(24) 0.0300(24) 0.0150(19) 0.0026(20) -0.0093(17) 0.0004(18)
K11 K1+ 0.0335(28) 0.0302(25) 0.0148(20) 0.0004(23) -0.0054(20) 0.0035(19)
K12 K1+ 0.0194(22) 0.0268(23) 0.0132(19) 0.0011(20) -0.0009(18) -0.0008(18)
K13 K1+ 0.0071(16) 0.0147(18) 0.0140(18) -0.0007(15) -0.0004(16) 0.0011(15)
K14 K1+ 0.0174(19) 0.0099(17) 0.0128(18) -0.0036(16) -0.0040(16) 0.0025(14)
K15 K1+ 0.0209(21) 0.0121(18) 0.0149(19) -0.0004(18) 0.0033(18) -0.0002(16)
K16 K1+ 0.0142(18) 0.0110(17) 0.0144(19) 0.0042(16) 0.0001(17) -0.0026(15)
K17 K1+ 0.0184(20) 0.0132(18) 0.0114(18) -0.0001(17) 0.0005(17) 0.0024(15)
K18 K1+ 0.0243(23) 0.0157(20) 0.0132(19) -0.0027(18) -0.0013(18) 
-0.0014(16)
K19 K1+ 0.0130(18) 0.0111(17) 0.0130(18) -0.0004(16) -0.0003(16) 0.0013(15)
K20 K1+ 0.0184(21) 0.0126(18) 0.0143(19) 0.0005(17) 0.0016(17) -0.0010(16)
K21 K1+ 0.0136(18) 0.0133(18) 0.0145(19) 0.0035(16) -0.0014(17) -0.0003(16)
K22 K1+ 0.0066(16) 0.0128(17) 0.0156(18) -0.0002(15) -0.0004(16) 0.0018(15)
K23 K1+ 0.0099(16) 0.0116(17) 0.0111(17) -0.0028(15) -0.0029(15) 
-0.0012(14)
K24 K1+ 0.0149(19) 0.0125(18) 0.0134(18) 0.0016(16) -0.0001(17) 0.0021(15)
Zn1 Zn2+ 0.0127(10) 0.0110(9) 0.0103(10) -0.0029(9) -0.0048(8) 0.0000(8)
Cl1 Cl1- 0.0158(20) 0.0193(21) 0.0069(18) -0.0027(18) -0.0076(16) 
0.0047(17)
Cl2 Cl1- 0.0156(20) 0.0117(18) 0.0111(19) -0.0092(17) 0.0024(18) 
-0.0048(16)
Cl3 Cl1- 0.0058(18) 0.0135(19) 0.0138(19) -0.0036(16) 0.0029(17) 0.0017(17)
Cl4 Cl1- 0.0169(23) 0.0215(23) 0.0241(24) 0.0033(21) -0.0004(21) 0.0059(20)
Zn2 Zn2+ 0.0051(9) 0.0084(9) 0.0085(9) 0.0011(8) -0.0038(8) 0.0001(8)
Cl5 Cl1- 0.0244(24) 0.0231(24) 0.0089(19) 0.0016(22) -0.0001(20) 
-0.0026(18)
Cl6 Cl1- 0.0285(25) 0.0118(19) 0.0158(20) 0.0043(19) -0.0093(20) 
-0.0066(18)
Cl7 Cl1- 0.0180(23) 0.0351(27) 0.0250(25) -0.0163(22) -0.0035(22) 
0.0156(22)
Cl8 Cl1- 0.0146(22) 0.0304(25) 0.0194(23) 0.0135(20) 0.0023(20) 0.0122(19)
Zn3 Zn2+ 0.0104(10) 0.0088(9) 0.0092(10) -0.0006(9) -0.0033(8) -0.0014(8)
Cl9 Cl1- 0.0278(26) 0.0177(22) 0.0101(20) 0.0048(22) -0.0001(21) 
-0.0022(18)
Cl10 Cl1- 0.0110(19) 0.0110(18) 0.0098(18) 0.0000(16) 0.0016(17) 
-0.0028(16)
Cl11 Cl1- 0.0103(20) 0.0172(20) 0.0148(20) -0.0024(18) 0.0004(18) 
0.0028(18)
Cl12 Cl1- 0.0111(19) 0.0186(21) 0.0145(20) 0.0038(18) -0.0017(18) 
-0.0021(18)
Zn4 Zn2+ 0.0085(10) 0.0098(10) 0.0101(10) 0.0002(9) -0.0007(8) 0.0009(8)
Cl13 Cl1- 0.0262(25) 0.0214(23) 0.0096(20) -0.0088(22) 0.0007(20) 
-0.0006(18)
Cl14 Cl1- 0.0236(23) 0.0085(17) 0.0090(19) -0.0076(18) -0.0009(18) 
0.0056(16)
Cl15 Cl1- 0.0128(22) 0.0179(21) 0.0228(24) 0.0032(20) 0.0021(20) 
-0.0026(20)
Cl16 Cl1- 0.0108(19) 0.0238(23) 0.0188(22) -0.0047(19) -0.0029(19) 
-0.0013(19)
Zn5 Zn2+ 0.0093(9) 0.0097(9) 0.0084(9) -0.0020(8) -0.0029(8) 0.0007(8)
Cl17 Cl1- 0.0143(19) 0.0174(20) 0.0070(18) 0.0031(18) -0.0072(16) 
-0.0054(16)
Cl18 Cl1- 0.0297(27) 0.0092(19) 0.0115(20) -0.0024(21) 0.0016(20) 
0.0012(17)
Cl19 Cl1- 0.0059(19) 0.0301(25) 0.0123(20) 0.0019(19) 0.0028(18) 
-0.0026(20)
Cl20 Cl1- 0.0148(22) 0.0174(21) 0.0190(22) -0.0100(18) -0.0005(19) 
-0.0072(18)
Zn6 Zn2+ 0.0134(10) 0.0112(10) 0.0098(10) -0.0017(9) -0.0032(9) 0.0012(8)
Cl21 Cl1- 0.0266(25) 0.0184(22) 0.0094(19) -0.0019(22) 0.0004(20) 
0.0008(18)
Cl22 Cl1- 0.0308(27) 0.0188(23) 0.0202(24) 0.0075(22) -0.0074(21) 
0.0018(20)
Cl23 Cl1- 0.0137(22) 0.0257(25) 0.0285(26) 0.0034(21) 0.0026(23) 
-0.0102(22)
Cl24 Cl1- 0.0153(22) 0.0338(26) 0.0207(23) -0.0070(21) -0.0036(21) 
-0.0106(21)
Zn7 Zn2+ 0.0096(10) 0.0073(9) 0.0106(9) 0.0003(8) -0.0031(8) -0.0015(8)
Cl25 Cl1- 0.0202(24) 0.0223(23) 0.0078(19) 0.0068(20) 0.0015(18) 0.0003(18)
Cl26 Cl1- 0.0345(26) 0.0091(19) 0.0149(21) -0.0095(20) -0.0036(22) 
0.0087(17)
Cl27 Cl1- 0.0104(20) 0.0246(23) 0.0217(22) -0.0092(19) 0.003(2) -0.0094(20)
Cl28 Cl1- 0.0223(24) 0.0341(27) 0.0206(24) 0.0174(22) -0.0019(22) 
-0.0078(22)
Zn8 Zn2+ 0.0102(10) 0.0121(9) 0.0077(9) -0.0004(8) -0.0026(8) -0.0015(8)
Cl29 Cl1- 0.0166(20) 0.0176(21) 0.0104(19) -0.0058(18) -0.0052(18) 
0.0021(18)
Cl30 Cl1- 0.0165(22) 0.0126(20) 0.0117(2) 0.0010(18) 0.0019(18) 0.0019(17)
Cl31 Cl1- 0.0187(22) 0.0270(24) 0.013(2) -0.0124(21) -0.0028(19) 
-0.0031(19)
Cl32 Cl1- 0.0103(20) 0.0191(21) 0.0175(21) 0.0029(18) -0.0012(18) 
-0.0079(18)
Zn9 Zn2+ 0.0097(9) 0.0085(9) 0.0093(9) 0.0002(8) -0.0012(9) -0.0005(8)
Cl33 Cl1- 0.0249(24) 0.0197(22) 0.0111(19) 0.0088(21) -0.0083(19) 
0.0014(17)
Cl34 Cl1- 0.0186(23) 0.0155(21) 0.0182(23) 0.0026(20) 0.000(2) 0.0044(18)
Cl35 Cl1- 0.0142(22) 0.0149(21) 0.0192(22) -0.0060(19) 0.0026(20) 
-0.0011(18)
Cl36 Cl1- 0.0138(21) 0.0123(20) 0.0186(22) 0.0054(18) 0.0035(19) 
-0.0025(17)
Zn10 Zn2+ 0.0119(10) 0.0122(10) 0.0085(9) -0.0010(9) -0.0021(9) 0.0005(8)
Cl37 Cl1- 0.0239(23) 0.0202(22) 0.0082(18) -0.0022(21) -0.0081(18) 
0.0012(17)
Cl38 Cl1- 0.0138(22) 0.0163(21) 0.0195(23) 0.0052(19) -0.0001(19) 
-0.0030(18)
Cl39 Cl1- 0.0143(22) 0.0155(21) 0.0254(24) 0.0084(19) -0.0042(20) 
0.0013(19)
Cl40 Cl1- 0.0120(21) 0.0195(22) 0.0191(22) 0.0011(19) 0.0046(19) 0.0048(19)
Zn11 Zn2+ 0.0139(10) 0.0121(10) 0.0047(9) 0.0000(9) -0.0043(8) 0.0003(8)
Cl41 Cl1- 0.0183(20) 0.0182(20) 0.0060(17) -0.0073(19) -0.0057(17) 
0.0021(16)
Cl42 Cl1- 0.0237(24) 0.0139(21) 0.0219(24) 0.0032(20) -0.0027(21) 
-0.0080(19)
Cl43 Cl1- 0.0107(19) 0.0248(23) 0.0218(22) -0.0001(20) -0.0045(19) 
0.0063(20)
Cl44 Cl1- 0.0112(20) 0.0243(23) 0.0218(23) -0.0054(19) -0.0003(20) 
0.0083(20)
Zn12 Zn2+ 0.0069(9) 0.0101(9) 0.0077(9) -0.0019(8) -0.0019(8) 0.0012(8)
Cl45 Cl1- 0.0136(19) 0.0202(21) 0.0094(19) 0.0030(18) -0.0036(17) 
-0.0015(18)
Cl46 Cl1- 0.0233(24) 0.0135(20) 0.0150(21) 0.000(2) -0.0041(19) -0.0052(18)
Cl47 Cl1- 0.0142(21) 0.0208(22) 0.0127(20) 0.0033(19) 0.0008(18) 0.0027(18)
Cl48 Cl1- 0.0132(20) 0.0155(20) 0.0170(21) -0.0052(18) -0.0031(18) 
0.0037(17)
#End of data_66515-ICSD


