data_80564-ICSD
#?2014 by Fachinformationszentrum Karlsruhe, and the U.S. Secretary of 
#Commerce on behalf of the United States.  All rights reserved.
_database_code_ICSD                80564
_audit_creation_date               1997/05/13
_audit_update_record               2007/08/01
_chemical_name_systematic
;
Barium Catena-pentafluoroaluminate - Beta
;
_chemical_formula_structural       'Ba (Al F5)'
_chemical_formula_sum              'Al1 Ba1 F5'
_publ_section_title
;
Structure determination of beta- and gamma-Ba Al F5 by X-ray and 
neutron powder diffraction: a model for the alpha - beta - gamma 
transitions
;
loop_
_citation_id
_citation_journal_abbrev
_citation_year
_citation_journal_volume
_citation_page_first
_citation_page_last
_citation_journal_id_ASTM
primary 'Journal of Solid State Chemistry' 1990 89 282 291 JSSCBI
2 'Phase Transition' 1992 38 127 220 PHTRDP
_publ_author_name
;
Le Bail, A.;Ferey, G.;Mercier, A.M.;de Kozak, A.;Samouel, M.
;
_cell_length_a                     5.1517(1)
_cell_length_b                     19.56659(40)
_cell_length_c                     7.5567(2)
_cell_angle_alpha                  90.
_cell_angle_beta                   92.426(1)
_cell_angle_gamma                  90.
_cell_volume                       761.04
_cell_formula_units_Z              8
_symmetry_space_group_name_H-M     'P 1 21/n 1'
_symmetry_Int_Tables_number        14
_refine_ls_R_factor_all            .023
loop_
_symmetry_equiv_pos_site_id
_symmetry_equiv_pos_as_xyz
  1	'-x+.5, y+.5, -z+.5'
  2	'-x, -y, -z'
  3	'x+.5, -y+.5, z+.5'
  4	'x, y, z'
loop_
_atom_type_symbol
_atom_type_oxidation_number
Al3+	3
Ba2+	2
F1-	-1
loop_
_atom_site_label
_atom_site_type_symbol
_atom_site_symmetry_multiplicity
_atom_site_Wyckoff_symbol
_atom_site_fract_x
_atom_site_fract_y
_atom_site_fract_z
_atom_site_occupancy
_atom_site_attached_hydrogens
_atom_site_B_iso_or_equiv
Ba1 Ba2+ 4 e 0.2820(7) 0.0389(2) 0.7400(5) 1. 0 0.89(6) 
Ba2 Ba2+ 4 e 0.2560(7) 0.2700(2) 0.4743(5) 1. 0 0.90(7) 
Al1 Al3+ 4 e 0.2460(11) 0.8680(3) 0.5280(7) 1. 0 0.79(8) 
Al2 Al3+ 4 e 0.7676(12) 0.8925(3) 0.8495(8) 1. 0 1.06(8) 
F1 F1- 4 e 0.9456(7) 0.4002(2) 0.8494(5) 1. 0 1.17(6) 
F2 F1- 4 e 0.7470(7) 0.4830(2) 0.6195(5) 1. 0 1.24(6) 
F3 F1- 4 e 0.2134(8) 0.1983(2) 0.1826(5) 1. 0 1.21(6) 
F4 F1- 4 e 0.5056(6) 0.1142(2) 0.0141(4) 1. 0 1.34(7) 
F5 F1- 4 e 0.4438(7) 0.4037(2) 0.7870(5) 1. 0 0.98(7) 
F6 F1- 4 e 0.2670(6) 0.4543(2) 0.0587(5) 1. 0 1.12(7) 
F7 F1- 4 e 0.0584(7) 0.3489(2) 0.1469(4) 1. 0 1.07(6) 
F8 F1- 4 e 0.5226(6) 0.3841(2) 0.4567(5) 1. 0 0.93(6) 
F9 F1- 4 e 0.5420(7) 0.3446(2) 0.0892(5) 1. 0 1.36(7) 
F10 F1- 4 e 0.2749(8) 0.7882(2) 0.6440(6) 1. 0 1.52(7) 

#End of data_80564-ICSD


