data_261150-ICSD
#?2014 by Fachinformationszentrum Karlsruhe, and the U.S. Secretary of 
#Commerce on behalf of the United States.  All rights reserved.
_database_code_ICSD                261150
_audit_creation_date               2011/02/01
_chemical_name_systematic          'Silver Indium Diphosphate'
_chemical_formula_structural       'Ag In (P2 O7)'
_chemical_formula_sum              'Ag1 In1 O7 P2'
_publ_section_title
;
Silver indium diphosphate, Ag In P2 O7
;
loop_
_citation_id
_citation_journal_abbrev
_citation_year
_citation_journal_volume
_citation_journal_issue
_citation_page_first
_citation_page_last
_citation_journal_id_ASTM
primary 'Acta Crystallographica, Section E. Structure Reports Online'
 2011 67 1 i2 i2 ACSEBH
_publ_author_name
;
Zouihri, H.;Saadi, M.;Jaber, B.;El Ammari, L.
;
_cell_length_a                     7.4867(3)
_cell_length_b                     8.2620(3)
_cell_length_c                     9.8383(5)
_cell_angle_alpha                  90.00
_cell_angle_beta                   112.038(2)
_cell_angle_gamma                  90.00
_cell_volume                       564.09
_cell_formula_units_Z              4
_symmetry_space_group_name_H-M     'P 1 21/c 1'
_symmetry_Int_Tables_number        14
_refine_ls_R_factor_all            .0213
loop_
_symmetry_equiv_pos_site_id
_symmetry_equiv_pos_as_xyz
  1	'x, -y+.5, z+.5'
  2	'-x, -y, -z'
  3	'-x, y+.5, -z+.5'
  4	'x, y, z'
loop_
_atom_type_symbol
_atom_type_oxidation_number
Ag1+	1
In3+	3
O2-	-2
P5+	5
loop_
_atom_site_label
_atom_site_type_symbol
_atom_site_symmetry_multiplicity
_atom_site_Wyckoff_symbol
_atom_site_fract_x
_atom_site_fract_y
_atom_site_fract_z
_atom_site_occupancy
_atom_site_attached_hydrogens
_atom_site_U_iso_or_equiv
In1 In3+ 4 e 0.242354(15) 0.495357(12) 0.247622(11) 1 0 0.00618(3) 
Ag1 Ag1+ 4 e -0.20911(3) 0.52697(2) 0.30478(2) 1 0 0.02442(4) 
P1 P5+ 4 e 0.57689(6) 0.74758(5) 0.46083(4) 1 0 0.00600(6) 
P2 P5+ 4 e 0.17589(6) 0.78735(5) 0.45174(4) 1 0 0.00656(6) 
O1 O2- 4 e 0.6810(2) 0.86792(17) 0.40464(15) 1 0 0.0141(2) 
O2 O2- 4 e 0.6836(2) 0.71622(16) 0.62241(14) 1 0 0.0136(2) 
O3 O2- 4 e 0.52473(17) 0.59259(15) 0.36935(14) 1 0 0.01027(19) 
O4 O2- 4 e 0.04427(18) 0.91166(17) 0.35059(15) 1 0 0.0123(2) 
O5 O2- 4 e 0.1917(2) 0.79561(16) 0.60976(14) 1 0 0.0126(2) 
O6 O2- 4 e 0.13231(18) 0.61348(15) 0.39564(14) 1 0 0.01054(19) 
O7 O2- 4 e 0.37868(18) 0.83601(16) 0.44239(16) 1 0 0.0128(2) 

loop_
_atom_site_aniso_label
_atom_site_aniso_type_symbol
_atom_site_aniso_U_11
_atom_site_aniso_U_22
_atom_site_aniso_U_33
_atom_site_aniso_U_12
_atom_site_aniso_U_13
_atom_site_aniso_U_23
In1 In3+ 0.00656(4) 0.00614(4) 0.00593(4) -0.00024(3) 0.00244(3) 
-0.00045(3)
Ag1 Ag1+ 0.01913(7) 0.02720(8) 0.03341(9) -0.00235(6) 0.01725(7) 
-0.01071(7)
P1 P5+ 0.00574(14) 0.00643(14) 0.00582(14) -0.00025(11) 0.00217(11) 
0.00044(11)
P2 P5+ 0.00588(14) 0.00706(14) 0.00644(14) 0.00073(11) 0.00195(11) 
-0.00090(12)
O1 O2- 0.0185(6) 0.0141(5) 0.0133(5) -0.0053(4) 0.0104(5) 0.0012(4)
O2 O2- 0.0195(6) 0.0098(5) 0.0070(4) -0.0006(4) -0.0001(4) 0.0018(4)
O3 O2- 0.0072(4) 0.0099(5) 0.0130(5) -0.0012(3) 0.0030(4) -0.0040(4)
O4 O2- 0.0084(5) 0.0135(5) 0.0135(5) 0.0034(4) 0.0023(4) 0.0041(4)
O5 O2- 0.0211(6) 0.0099(5) 0.0072(4) -0.0009(4) 0.0058(4) -0.0023(4)
O6 O2- 0.0116(5) 0.0097(5) 0.0123(5) -0.0019(4) 0.0067(4) -0.0039(4)
O7 O2- 0.0078(5) 0.0100(5) 0.0217(6) 0.0010(4) 0.0069(4) -0.0020(4)
#End of data_261150-ICSD


