data_27812-ICSD
#?2014 by Fachinformationszentrum Karlsruhe, and the U.S. Secretary of 
#Commerce on behalf of the United States.  All rights reserved.
_database_code_ICSD                27812
_audit_creation_date               1980/01/01
_audit_update_record               2007/04/01
_chemical_name_systematic          'Aluminium Oxide Chloride'
_chemical_formula_structural       'Al O Cl'
_chemical_formula_sum              'Al1 Cl1 O1'
_publ_section_title
;
Reseau cristallin de l'oxychlorure d'aluminium.
;
loop_
_citation_id
_citation_journal_abbrev
_citation_year
_citation_journal_volume
_citation_journal_issue
_citation_page_first
_citation_page_last
_citation_journal_id_ASTM
primary
;
Comptes Rendus Hebdomadaires des Seances de l`Academie des Sciences 
(1884 - 1965)
;
 1959 248- 810 812 COREAF
2 'Bulletin de la Societe Chimique de France (Vol=Year)'
 1959 1959 7 1117 1117 BSCFAS
_publ_author_name                  'Rouxel, J.'
_cell_length_a                     3.61
_cell_length_b                     7.67
_cell_length_c                     3.62
_cell_angle_alpha                  90.
_cell_angle_beta                   90.
_cell_angle_gamma                  90.
_cell_volume                       100.23
_cell_formula_units_Z              2
_symmetry_space_group_name_H-M     'P m n m S'
_symmetry_Int_Tables_number        59
loop_
_symmetry_equiv_pos_site_id
_symmetry_equiv_pos_as_xyz
  1	'x+.5, -y, -z+.5'
  2	'x+.5, -y, z+.5'
  3	'x, y, -z'
  4	'-x, y, z'
  5	'-x+.5, -y, z+.5'
  6	'-x+.5, -y, -z+.5'
  7	'-x, y, -z'
  8	'x, y, z'
loop_
_atom_type_symbol
_atom_type_oxidation_number
Al3+	3
Cl1-	-1
O2-	-2
loop_
_atom_site_label
_atom_site_type_symbol
_atom_site_symmetry_multiplicity
_atom_site_Wyckoff_symbol
_atom_site_fract_x
_atom_site_fract_y
_atom_site_fract_z
_atom_site_occupancy
_atom_site_attached_hydrogens
Al1 Al3+ 2 b 0 0.07 0.5 1. 0 
O1 O2- 2 a 0 -.06 0 1. 0 
Cl1 Cl1- 2 a 0 0.3 0 1. 0 

#End of data_27812-ICSD


