data_203224-ICSD
#?2014 by Fachinformationszentrum Karlsruhe, and the U.S. Secretary of 
#Commerce on behalf of the United States.  All rights reserved.
_database_code_ICSD                203224
_audit_creation_date               1996/10/14
_audit_update_record               2006/04/01
_chemical_name_systematic
;
Pentalead Tris(hexafluoroaluminate) Fluoride - Lt
;
_chemical_formula_structural       'Pb5 (Al F6)3 F'
_chemical_formula_sum              'Al3 F19 Pb5'
_publ_section_title
;
Structure of ferroelectric Pb3 Al3 F19 at 160 K, polarization 
reversal and relationship to ferroelectric Pb5 Cr3 F19 at 295 K
;
loop_
_citation_id
_citation_journal_abbrev
_citation_year
_citation_journal_volume
_citation_page_first
_citation_page_last
_citation_journal_id_ASTM
primary 'Acta Crystallographica, Section B: Structural Science'
 1996 52 72 77 ASBSDK
2 'Golden Book of Phase Transitions, Wroclaw' 2002 1 1 123 GBOPT5
_publ_author_name
;
Sarraute, S.;Ravez, J.;von der Muehll, R.;Bravic, G.;Feigelson, 
R.S.;Abrahams, S.C.
;
_cell_length_a                     14.07(2)
_cell_length_b                     14.07(2)
_cell_length_c                     7.30(1)
_cell_angle_alpha                  90.
_cell_angle_beta                   90.
_cell_angle_gamma                  90.
_cell_volume                       1445.14
_cell_formula_units_Z              4
_symmetry_space_group_name_H-M     'I 4 c m'
_symmetry_Int_Tables_number        108
_refine_ls_R_factor_all            .0527
loop_
_symmetry_equiv_pos_site_id
_symmetry_equiv_pos_as_xyz
  1	'y+.5, x+.5, z'
  2	'-y+.5, -x+.5, z'
  3	'y, -x, z'
  4	'-y, x, z'
  5	'x+.5, -y+.5, z'
  6	'-x+.5, y+.5, z'
  7	'-x, -y, z'
  8	'x, y, z'
  9	'y, x, z+.5'
 10	'-y, -x, z+.5'
 11	'y+.5, -x+.5, z+.5'
 12	'-y+.5, x+.5, z+.5'
 13	'x, -y, z+.5'
 14	'-x, y, z+.5'
 15	'-x+.5, -y+.5, z+.5'
 16	'x+.5, y+.5, z+.5'
loop_
_atom_type_symbol
_atom_type_oxidation_number
Al3+	3
F1-	-1
Pb2+	2
loop_
_atom_site_label
_atom_site_type_symbol
_atom_site_symmetry_multiplicity
_atom_site_Wyckoff_symbol
_atom_site_fract_x
_atom_site_fract_y
_atom_site_fract_z
_atom_site_occupancy
_atom_site_attached_hydrogens
_atom_site_U_iso_or_equiv
Pb1 Pb2+ 16 d 0.42602(4) 0.27489(4) 0 1. 0 0.011(2) 
Pb2 Pb2+ 4 b 0 0.5 0.1350(3) 1. 0 0.018(1) 
Al1 Al3+ 8 c 0.1628(4) 0.3372 -.021(1) 1. 0 0.008(3) 
Al2 Al3+ 4 a 0 0 0.188(2) 1. 0 0.009(1) 
F1 F1- 16 d 0.114(1) 0.2478(9) -.174(2) 1. 0 0.017(2) 
F2 F1- 16 d 0.197(1) 0.4294(8) 0.142(2) 1. 0 0.014(1) 
F3 F1- 8 c 0.0761(6) 0.4239 -.097(3) 1. 0 0.016(2) 
F4 F1- 8 c 0.2479(7) 0.2521 0.069(3) 1. 0 0.015(1) 
F5 F1- 4 a 0 0 0.438(2) 1. 0 0.027(8) 
F6 F1- 16 d -.054(1) 0.1175(6) 0.673(2) 1. 0 0.016(2) 
F7 F1- 8 c 0.3835(8) 0.1165 0.021(4) 1. 0 0.010(5) 

#End of data_203224-ICSD


