data_26051-ICSD
#?2014 by Fachinformationszentrum Karlsruhe, and the U.S. Secretary of 
#Commerce on behalf of the United States.  All rights reserved.
_database_code_ICSD                26051
_audit_creation_date               1986/10/06
_audit_update_record               2012/08/01
_chemical_name_systematic          'Potassium Pentafluorotellurate(IV)'
_chemical_formula_structural       'K Te F5'
_chemical_formula_sum              'F5 K1 Te1'
_publ_section_title
;
Crystal Structure of Potassium Pentafluorotellurate (K Te F5)
;
loop_
_citation_id
_citation_journal_abbrev
_citation_year
_citation_journal_volume
_citation_page_first
_citation_page_last
_citation_journal_id_ASTM
primary 'Inorganic Chemistry' 1970 9 2100 2103 INOCAJ
_publ_author_name
;
Mastin, S.H.;Ryan, R.R.;Asprey, L.B.
;
_cell_length_a                     4.735(1)
_cell_length_b                     9.209(2)
_cell_length_c                     11.227(2)
_cell_angle_alpha                  90.
_cell_angle_beta                   90.
_cell_angle_gamma                  90.
_cell_volume                       489.55
_cell_formula_units_Z              4
_symmetry_space_group_name_H-M     'P b c m'
_symmetry_Int_Tables_number        57
_refine_ls_R_factor_all            .0218
loop_
_symmetry_equiv_pos_site_id
_symmetry_equiv_pos_as_xyz
  1	'x, -y+.5, z+.5'
  2	'-x, y+.5, z'
  3	'x, y, -z+.5'
  4	'-x, -y, -z'
  5	'-x, y+.5, -z+.5'
  6	'x, -y+.5, -z'
  7	'-x, -y, z+.5'
  8	'x, y, z'
loop_
_atom_type_symbol
_atom_type_oxidation_number
F1-	-1
K1+	1
Te4+	4
loop_
_atom_site_label
_atom_site_type_symbol
_atom_site_symmetry_multiplicity
_atom_site_Wyckoff_symbol
_atom_site_fract_x
_atom_site_fract_y
_atom_site_fract_z
_atom_site_occupancy
_atom_site_attached_hydrogens
K1 K1+ 4 c 0.4973(4) 0.25 0 1. 0 
Te1 Te4+ 4 d 0.1124(2) 0.05563(7) 0.25 1. 0 
F1 F1- 8 e 0.3700(8) -.0146(4) 0.1270(3) 1. 0 
F2 F1- 8 e -.0337(9) 0.1844(4) 0.1265(3) 1. 0 
F3 F1- 4 d 0.3799(12) 0.2037(5) 0.25 1. 0 

#End of data_26051-ICSD


