data_245080-ICSD
#?2014 by Fachinformationszentrum Karlsruhe, and the U.S. Secretary of 
#Commerce on behalf of the United States.  All rights reserved.
_database_code_ICSD                245080
_audit_creation_date               2007/08/01
_chemical_name_systematic          'Dicalcium Silicate'
_chemical_formula_structural       'Ca2 (Si O4)'
_chemical_formula_sum              'Ca2 O4 Si1'
_publ_section_title
;
Charge states of Ca atoms in beta-dicalcium silicate
;
loop_
_citation_id
_citation_journal_abbrev
_citation_year
_citation_journal_volume
_citation_journal_issue
_citation_page_first
_citation_page_last
_citation_journal_id_ASTM
primary 'Journal of Solid State Chemistry' 2006 179 11 3286 3294 JSSCBI
_publ_author_name
;
Mori, K.;Kiyanagi, R.;Yonemura, M.;Iwase, K.;Sato, T.;Itoh, 
K.;Sugiyama, M.;Kamiyama, T.;Fukunaga, T.
;
_cell_length_a                     5.54076(6)
_cell_length_b                     6.79576(8)
_cell_length_c                     9.40045(10)
_cell_angle_alpha                  90
_cell_angle_beta                   93.524(1)
_cell_angle_gamma                  90
_cell_volume                       353.29
_cell_formula_units_Z              4
_symmetry_space_group_name_H-M     'P 1 21/n 1'
_symmetry_Int_Tables_number        14
_refine_ls_R_factor_all            .0352
loop_
_symmetry_equiv_pos_site_id
_symmetry_equiv_pos_as_xyz
  1	'-x+.5, y+.5, -z+.5'
  2	'-x, -y, -z'
  3	'x+.5, -y+.5, z+.5'
  4	'x, y, z'
loop_
_atom_type_symbol
_atom_type_oxidation_number
Ca2+	2
O2-	-2
Si4+	4
loop_
_atom_site_label
_atom_site_type_symbol
_atom_site_symmetry_multiplicity
_atom_site_Wyckoff_symbol
_atom_site_fract_x
_atom_site_fract_y
_atom_site_fract_z
_atom_site_occupancy
_atom_site_attached_hydrogens
_atom_site_B_iso_or_equiv
Ca1 Ca2+ 4 e 0.23270(38) 0.33767(31) 0.42840(26) 1. 0 2.469(66) 
Ca2 Ca2+ 4 e 0.22769(43) 0.99465(38) 0.70230(24) 1. 0 2.704(72) 
Si1 Si4+ 4 e 0.26343(41) 0.78330(28) 0.41774(24) 1. 0 1.571(65) 
O1 O2- 4 e 0.22022(34) 0.01001(26) 0.43828(21) 1. 0 3.015(69) 
O2 O2- 4 e 0.48092(34) 0.74595(28) 0.31106(20) 1. 0 2.549(57) 
O3 O2- 4 e 0.01629(30) 0.67223(32) 0.35980(19) 1. 0 3.065(66) 
O4 O2- 4 e 0.33537(30) 0.67431(31) 0.57125(17) 1. 0 2.765(64) 

#End of data_245080-ICSD


