data_65734-ICSD
#?2014 by Fachinformationszentrum Karlsruhe, and the U.S. Secretary of 
#Commerce on behalf of the United States.  All rights reserved.
_database_code_ICSD                65734
_audit_creation_date               1990/06/08
_chemical_name_systematic
;
Dicesium Lithium Scandium Chloride - V-doped
;
_chemical_formula_structural       'Cs2 Li Sc Cl6'
_chemical_formula_sum              'Cl6 Cs2 Li1 Sc1'
_publ_section_title
;
Optical spectroscopic and structural properties of V3+ -doped 
fluoride, chloride, and bromide elpasolite lattices
;
loop_
_citation_id
_citation_journal_abbrev
_citation_year
_citation_journal_volume
_citation_page_first
_citation_page_last
_citation_journal_id_ASTM
primary 'Inorganic Chemistry' 1989 28 3249 3258 INOCAJ
_publ_author_name
;
Reber, C.;Guedel, H.U.;Meyer, G.;Schleid, T.;Daul, C.A.
;
_cell_length_a                     7.2965(6)
_cell_length_b                     7.2965(6)
_cell_length_c                     35.989(4)
_cell_angle_alpha                  90.
_cell_angle_beta                   90.
_cell_angle_gamma                  120.
_cell_volume                       1659.32
_cell_formula_units_Z              6
_symmetry_space_group_name_H-M     'R -3 m H'
_symmetry_Int_Tables_number        166
_refine_ls_R_factor_all            .035
loop_
_symmetry_equiv_pos_site_id
_symmetry_equiv_pos_as_xyz
  1	'x-y, -y, -z'
  2	'-x, -x+y, -z'
  3	'y, x, -z'
  4	'x-y, x, -z'
  5	'y, -x+y, -z'
  6	'-x, -y, -z'
  7	'-x+y, y, z'
  8	'x, x-y, z'
  9	'-y, -x, z'
 10	'-x+y, -x, z'
 11	'-y, x-y, z'
 12	'x, y, z'
 13	'x-y+.6666, -y+.3333, -z+.3333'
 14	'x-y+.3333, -y+.6666, -z+.6666'
 15	'-x+.6666, -x+y+.3333, -z+.3333'
 16	'-x+.3333, -x+y+.6666, -z+.6666'
 17	'y+.6666, x+.3333, -z+.3333'
 18	'y+.3333, x+.6666, -z+.6666'
 19	'x-y+.6666, x+.3333, -z+.3333'
 20	'x-y+.3333, x+.6666, -z+.6666'
 21	'y+.6666, -x+y+.3333, -z+.3333'
 22	'y+.3333, -x+y+.6666, -z+.6666'
 23	'-x+.6666, -y+.3333, -z+.3333'
 24	'-x+.3333, -y+.6666, -z+.6666'
 25	'-x+y+.6666, y+.3333, z+.3333'
 26	'-x+y+.3333, y+.6666, z+.6666'
 27	'x+.6666, x-y+.3333, z+.3333'
 28	'x+.3333, x-y+.6666, z+.6666'
 29	'-y+.6666, -x+.3333, z+.3333'
 30	'-y+.3333, -x+.6666, z+.6666'
 31	'-x+y+.6666, -x+.3333, z+.3333'
 32	'-x+y+.3333, -x+.6666, z+.6666'
 33	'-y+.6666, x-y+.3333, z+.3333'
 34	'-y+.3333, x-y+.6666, z+.6666'
 35	'x+.6666, y+.3333, z+.3333'
 36	'x+.3333, y+.6666, z+.6666'
loop_
_atom_type_symbol
_atom_type_oxidation_number
Cl1-	-1
Cs1+	1
Li1+	1
Sc3+	3
loop_
_atom_site_label
_atom_site_type_symbol
_atom_site_symmetry_multiplicity
_atom_site_Wyckoff_symbol
_atom_site_fract_x
_atom_site_fract_y
_atom_site_fract_z
_atom_site_occupancy
_atom_site_attached_hydrogens
Cs1 Cs1+ 6 c 0 0 0.12636(2) 1. 0 
Cs2 Cs1+ 6 c 0 0 0.28813(2) 1. 0 
Li1 Li1+ 6 c 0 0 0.4089(8) 1. 0 
Sc1 Sc3+ 3 a 0 0 0 1. 0 
Sc2 Sc3+ 3 b 0 0 0.5 1. 0 
Cl1 Cl1- 18 h 0.1569(1) -.1569(1) 0.45880(5) 1. 0 
Cl2 Cl1- 18 h 0.1724(1) -.1724(1) 0.62718(5) 1. 0 

loop_
_atom_site_aniso_label
_atom_site_aniso_type_symbol
_atom_site_aniso_U_11
_atom_site_aniso_U_22
_atom_site_aniso_U_33
_atom_site_aniso_U_12
_atom_site_aniso_U_13
_atom_site_aniso_U_23
Cs1 Cs1+ 0.0214(3) 0.0214(3) 0.0235(4) 0.0107(2) 0 0
Cs2 Cs1+ 0.0210(3) 0.0210(3) 0.0251(5) 0.0105(3) 0 0
Li1 Li1+ 0.0384(99) 0.0384(99) 0.033(14) 0.0192(50) 0 0
Sc1 Sc3+ 0.0112(8) 0.0112(8) 0.0089(13) 0.0056(4) 0 0
Sc2 Sc3+ 0.0141(9) 0.0141(9) 0.0088(13) 0.00705(45) 0 0
Cl1 Cl1- 0.0242(7) 0.0242(7) 0.0205(8) 0.0150(8) 0.0026(3) -.0026(3)
Cl2 Cl1- 0.0257(7) 0.0257(7) 0.0243(9) 0.0162(8) -.0048(4) 0.0048(4)
#End of data_65734-ICSD


