data_47100-ICSD
#?2014 by Fachinformationszentrum Karlsruhe, and the U.S. Secretary of 
#Commerce on behalf of the United States.  All rights reserved.
_database_code_ICSD                47100
_audit_creation_date               1985/02/12
_chemical_name_systematic          'Sodium Digermanium Nitride'
_chemical_formula_structural       'Na Ge2 N3'
_chemical_formula_sum              'Ge2 N3 Na1'
_publ_section_title
;
Un nouveau tetraedre azote Na N4: Preparation et structure de Na Ge2 
N3
;
loop_
_citation_id
_citation_journal_abbrev
_citation_year
_citation_journal_volume
_citation_page_first
_citation_page_last
_citation_journal_id_ASTM
primary 'Journal of Solid State Chemistry' 1984 54 251 255 JSSCBI
_publ_author_name
;
Guyader, J.;l'Haridon, P.;Laurent, Y.;Jacquet, R.;Roult, G.
;
_cell_length_a                     9.8662(15)
_cell_length_b                     5.7830(9)
_cell_length_c                     5.1221(5)
_cell_angle_alpha                  90.
_cell_angle_beta                   90.
_cell_angle_gamma                  90.
_cell_volume                       292.25
_cell_formula_units_Z              4
_symmetry_space_group_name_H-M     'C m c 21'
_symmetry_Int_Tables_number        36
_refine_ls_R_factor_all            .028
loop_
_symmetry_equiv_pos_site_id
_symmetry_equiv_pos_as_xyz
  1	'x, -y, z+.5'
  2	'-x, -y, z+.5'
  3	'-x, y, z'
  4	'x, y, z'
  5	'x+.5, -y+.5, z+.5'
  6	'-x+.5, -y+.5, z+.5'
  7	'-x+.5, y+.5, z'
  8	'x+.5, y+.5, z'
loop_
_atom_type_symbol
_atom_type_oxidation_number
Ge4+	4
N3-	-3
Na1+	1
loop_
_atom_site_label
_atom_site_type_symbol
_atom_site_symmetry_multiplicity
_atom_site_Wyckoff_symbol
_atom_site_fract_x
_atom_site_fract_y
_atom_site_fract_z
_atom_site_occupancy
_atom_site_attached_hydrogens
_atom_site_B_iso_or_equiv
Na1 Na1+ 4 a 0 0.345(6) 0 1. 0 2.0(6) 
Ge1 Ge4+ 8 b 0.169(1) 0.841(1) 0.024(6) 1. 0 0.6(1) 
N1 N3- 8 b 0.211(1) 0.870(1) 0.377(6) 1. 0 0.9(1) 
N2 N3- 4 a 0 0.255(2) 0.456(5) 1. 0 1.1(2) 

#End of data_47100-ICSD


