data_83432-ICSD
#?2014 by Fachinformationszentrum Karlsruhe, and the U.S. Secretary of 
#Commerce on behalf of the United States.  All rights reserved.
_database_code_ICSD                83432
_audit_creation_date               1998/06/26
_audit_update_record               2013/08/01
_chemical_name_systematic          'Dialuminium Bromide'
_chemical_formula_structural       'Al2 Br6'
_chemical_formula_sum              'Al2 Br6'
_publ_section_title
;
Redetermination of the crystal structure of Al2 Br6. A comparison of 
three methods
;
loop_
_citation_id
_citation_journal_abbrev
_citation_year
_citation_journal_volume
_citation_page_first
_citation_page_last
_citation_journal_id_ASTM
primary 'Acta Chemica Scandinavica (43,1989-)' 1997 51 442 448 ACHSE7
_publ_author_name
;
Berg, R.W.;Poulsen, F.W.;Nielsen, K.
;
_cell_length_a                     10.301(4)
_cell_length_b                     7.095(2)
_cell_length_c                     7.525(3)
_cell_angle_alpha                  90.
_cell_angle_beta                   96.45(3)
_cell_angle_gamma                  90.
_cell_volume                       546.49
_cell_formula_units_Z              2
_symmetry_space_group_name_H-M     'P 1 21/a 1'
_symmetry_Int_Tables_number        14
_refine_ls_R_factor_all            .075
loop_
_symmetry_equiv_pos_site_id
_symmetry_equiv_pos_as_xyz
  1	'x+.5, -y+.5, z'
  2	'-x, -y, -z'
  3	'-x+.5, y+.5, -z'
  4	'x, y, z'
loop_
_atom_type_symbol
_atom_type_oxidation_number
Al3+	3
Br1-	-1
loop_
_atom_site_label
_atom_site_type_symbol
_atom_site_symmetry_multiplicity
_atom_site_Wyckoff_symbol
_atom_site_fract_x
_atom_site_fract_y
_atom_site_fract_z
_atom_site_occupancy
_atom_site_attached_hydrogens
_atom_site_B_iso_or_equiv
Al1 Al3+ 4 e 0.0508(2) 0.0918(3) 0.1975(3) 1. 0 3.17(4) 
Br1 Br1- 4 e 0.1463(1) 0.0686(1) -.0815(1) 1. 0 4.16(2) 
Br2 Br1- 4 e 0.1676(1) -.0847(1) 0.4007(1) 1. 0 4.92(2) 
Br3 Br1- 4 e 0.0096(1) 0.3925(1) 0.2499(1) 1. 0 5.06(2) 

#End of data_83432-ICSD


