data_82856-ICSD
#?2014 by Fachinformationszentrum Karlsruhe, and the U.S. Secretary of 
#Commerce on behalf of the United States.  All rights reserved.
_database_code_ICSD                82856
_audit_creation_date               1998/06/26
_audit_update_record               2005/10/01
_chemical_name_systematic          'Sodium Potassium Divanadate'
_chemical_formula_structural       'Na K (V2 O6)'
_chemical_formula_sum              'K1 Na1 O6 V2'
_publ_section_title
;
Hydrothermal synthesis and crystal structure of Na K V2 O6
;
loop_
_citation_id
_citation_journal_abbrev
_citation_year
_citation_journal_volume
_citation_page_first
_citation_page_last
_citation_journal_id_ASTM
primary 'Jiegon Huaxue' 1996 15 458 461 JHUADF
_publ_author_name
;
Xu, J.-N.;Yang, G.-Y.;Sun, H.-R.;Wang, T.-G.;Yang, G.-D.;Xu, J.-
Q.;Huang, X.-Y.
;
_cell_length_a                     10.568(3)
_cell_length_b                     10.082(2)
_cell_length_c                     5.810(2)
_cell_angle_alpha                  90.
_cell_angle_beta                   103.87(2)
_cell_angle_gamma                  90.
_cell_volume                       600.99
_cell_formula_units_Z              4
_symmetry_space_group_name_H-M     'C 1 2 1'
_symmetry_Int_Tables_number        5
_refine_ls_R_factor_all            .029
loop_
_symmetry_equiv_pos_site_id
_symmetry_equiv_pos_as_xyz
  1	'-x, y, -z'
  2	'x, y, z'
  3	'-x+.5, y+.5, -z'
  4	'x+.5, y+.5, z'
loop_
_atom_type_symbol
_atom_type_oxidation_number
K1+	1
Na1+	1
O2-	-2
V5+	5
loop_
_atom_site_label
_atom_site_type_symbol
_atom_site_symmetry_multiplicity
_atom_site_Wyckoff_symbol
_atom_site_fract_x
_atom_site_fract_y
_atom_site_fract_z
_atom_site_occupancy
_atom_site_attached_hydrogens
_atom_site_B_iso_or_equiv
V1 V5+ 4 c 0.28627(6) 0.0012 0.4708(1) 1. 0 0.7 
V2 V5+ 4 c 0.28521(6) 0.17178(6) 0.9707(1) 1. 0 0.82 
K1 K1+ 2 a 0 0.3932(2) 0 1. 0 1.67 
K2 K1+ 2 b 0.5 0.2772(2) 0.5 1. 0 1.57 
Na1 Na1+ 2 b 0 0.1818(4) 0.5 1. 0 1.2 
Na2 Na1+ 2 a 0.5 0.4908(4) 0 1. 0 1.4 
O1 O2- 4 c 0.3487(2) 0.0724(5) 0.2364(4) 1. 0 1. 
O2 O2- 4 c 0.3440(3) 0.1021(5) 0.7291(5) 1. 0 1.3 
O3 O2- 4 c 0.1223(3) -.0004(5) 0.3999(5) 1. 0 1.1 
O4 O2- 4 c 0.3448(3) 0.8494(5) 0.5315(6) 1. 0 2. 
O5 O2- 4 c 0.3418(3) 0.3207(5) 0.0314(5) 1. 0 1.5 
O6 O2- 4 c 0.1289(3) 0.1741(5) 0.9053(6) 1. 0 1.4 

#End of data_82856-ICSD


