data_165316-ICSD
#?2014 by Fachinformationszentrum Karlsruhe, and the U.S. Secretary of 
#Commerce on behalf of the United States.  All rights reserved.
_database_code_ICSD                165316
_audit_creation_date               2010/02/01
_chemical_name_systematic
;
Dipotassium Palladium Hexathiodiphosphate(V)
;
_chemical_formula_structural       'K2 Pd (P2 S6)'
_chemical_formula_sum              'K2 P2 Pd1 S6'
_publ_section_title
;
Palladium chemistry in molten alkali metal polychalcophosphate 
fluxes. Synthesis and characterisation of K4 Pd (P S4)2, Cs4 Pd (P 
Se4)2, Cs10 Pd (P Se4)4, K Pd P S4, K2 Pd P2 S6, and Cs2 Pd P2 Se6
;
loop_
_citation_id
_citation_journal_abbrev
_citation_year
_citation_journal_volume
_citation_journal_issue
_citation_page_first
_citation_page_last
_citation_journal_id_ASTM
primary 'Inorganic Chemistry' 1997 36 25 5859 5968 INOCAJ
_publ_author_name
;
Chondroudis, K.;Kanatzidis, M.G.;Sayettat, J.;Jobic, S.;Brec, R.
;
_cell_length_a                     15.612(2)
_cell_length_b                     7.0724(7)
_cell_length_c                     10.080(1)
_cell_angle_alpha                  90.
_cell_angle_beta                   90.
_cell_angle_gamma                  90.
_cell_volume                       1112.98
_cell_formula_units_Z              4
_symmetry_space_group_name_H-M     'P n m a'
_symmetry_Int_Tables_number        62
_refine_ls_R_factor_all            .048
loop_
_symmetry_equiv_pos_site_id
_symmetry_equiv_pos_as_xyz
  1	'x+.5, y, -z+.5'
  2	'x, -y+.5, z'
  3	'-x+.5, y+.5, z+.5'
  4	'-x, -y, -z'
  5	'-x+.5, -y, z+.5'
  6	'-x, y+.5, -z'
  7	'x+.5, -y+.5, -z+.5'
  8	'x, y, z'
loop_
_atom_type_symbol
_atom_type_oxidation_number
K1+	1
P4+	4
Pd2+	2
S2-	-2
loop_
_atom_site_label
_atom_site_type_symbol
_atom_site_symmetry_multiplicity
_atom_site_Wyckoff_symbol
_atom_site_fract_x
_atom_site_fract_y
_atom_site_fract_z
_atom_site_occupancy
_atom_site_attached_hydrogens
_atom_site_B_iso_or_equiv
Pd1 Pd2+ 4 a 0.5 0.5 0.5 1. 0 1.29(2) 
S1 S2- 8 d 0.4909(3) 0.5107(7) 0.7303(3) 1. 0 1.82(1) 
S2 S2- 8 d 0.2665(2) 0.4886(8) 0.3330(4) 1. 0 2.44(1) 
S3 S2- 4 c 0.4041(3) 0.25 0.5278(5) 1. 0 1.34(1) 
S4 S2- 4 c 0.5911(4) 0.75 0.9698(5) 1. 0 2.13(2) 
P1 P4+ 4 c 0.5569(3) 0.75 0.7829(6) 1. 0 1.26(1) 
P2 P4+ 4 c 0.3316(3) 0.25 0.3513(6) 1. 0 1.18(1) 
K1 K1+ 4 c 0.6833(3) 0.25 0.4141(5) 1. 0 2.29(2) 
K2 K1+ 4 c 0.6194(4) 0.25 0.9359(7) 1. 0 3.63(2) 

loop_
_atom_site_aniso_label
_atom_site_aniso_type_symbol
_atom_site_aniso_U_11
_atom_site_aniso_U_22
_atom_site_aniso_U_33
_atom_site_aniso_U_12
_atom_site_aniso_U_13
_atom_site_aniso_U_23
Pd1 Pd2+ 0.0175(6) 0.0171(5) 0.0145(6) -0.0001(9) -0.0015(9) -0.000(1)
S1 S2- 0.030(2) 0.024(2) 0.015(1) -0.013(2) 0.003(2) -0.001(2)
S2 S2- 0.031(2) 0.025(2) 0.038(2) 0.012(2) -0.008(2) -0.006(3)
S3 S2- 0.016(2) 0.021(2) 0.014(3) 0. -0.002(2) 0.
S4 S2- 0.019(3) 0.015(2) 0.014(3) 0. -0.005(3) 0.
P1 P4+ 0.012(3) 0.016(2) 0.016(3) 0. -0.002(2) 0.
P2 P4+ 0.033(3) 0.039(3) 0.010(3) 0. -0.007(3) 0.
K1 K1+ 0.020(3) 0.040(3) 0.027(3) 0. 0.006(2) 0.
K2 K1+ 0.038(3) 0.040(3) 0.060(4) 0. -0.010(3) 0.
#End of data_165316-ICSD


