data_10191-ICSD
#?2014 by Fachinformationszentrum Karlsruhe, and the U.S. Secretary of 
#Commerce on behalf of the United States.  All rights reserved.
_database_code_ICSD                10191
_audit_creation_date               1980/01/01
_audit_update_record               2012/08/01
_chemical_name_systematic          'Potassium Carbonate - Gamma'
_chemical_formula_structural       'K2 (C O3)'
_chemical_formula_sum              'C1 K2 O3'
_publ_section_title
;
Crystal structure of anhydrous potassium carbonate
;
loop_
_citation_id
_citation_journal_abbrev
_citation_year
_citation_journal_volume
_citation_page_first
_citation_page_last
_citation_journal_id_ASTM
primary
;
Journal of the Chemical Society. Dalton Transactions, Inorganic 
Chemistry (1972-)
;
 1973 1973 70 72 JCDTBI
_publ_author_name                  'Gatehouse, B.M.;Lloyd, D.J.'
_cell_length_a                     5.64(3)
_cell_length_b                     9.80(4)
_cell_length_c                     6.88(3)
_cell_angle_alpha                  90.
_cell_angle_beta                   98.8(5)
_cell_angle_gamma                  90.
_cell_volume                       375.79
_cell_formula_units_Z              4
_symmetry_space_group_name_H-M     'P 1 21/c 1'
_symmetry_Int_Tables_number        14
_refine_ls_R_factor_all            .129
loop_
_symmetry_equiv_pos_site_id
_symmetry_equiv_pos_as_xyz
  1	'x, -y+.5, z+.5'
  2	'-x, -y, -z'
  3	'-x, y+.5, -z+.5'
  4	'x, y, z'
loop_
_atom_type_symbol
_atom_type_oxidation_number
C4+	4
K1+	1
O2-	-2
loop_
_atom_site_label
_atom_site_type_symbol
_atom_site_symmetry_multiplicity
_atom_site_Wyckoff_symbol
_atom_site_fract_x
_atom_site_fract_y
_atom_site_fract_z
_atom_site_occupancy
_atom_site_attached_hydrogens
_atom_site_B_iso_or_equiv
K1 K1+ 4 e 0.2418(7) 0.0831(6) 0.2144(6) 1. 0 2.96 
K2 K1+ 4 e 0.7391(6) 0.2597(5) 0.9754(5) 1. 0 2.49 
C1 C4+ 4 e 0.250(3) 0.420(3) 0.243(3) 1. 0 2.58 
O1 O2- 4 e 0.735(2) 0.044(2) 0.199(2) 1. 0 3.45 
O2 O2- 4 e 0.063(2) 0.348(2) 0.276(2) 1. 0 3.04 
O3 O2- 4 e 0.421(2) 0.362(2) 0.173(2) 1. 0 3.72 

#End of data_10191-ICSD


