data_69538-ICSD
#?2014 by Fachinformationszentrum Karlsruhe, and the U.S. Secretary of 
#Commerce on behalf of the United States.  All rights reserved.
_database_code_ICSD                69538
_audit_creation_date               1992/08/20
_audit_update_record               2014/08/01
_chemical_name_systematic
;
Hexaaquamagnesium Rubidium Chloride
;
_chemical_formula_structural       '(Mg (H2 O)6) Rb Cl3'
_chemical_formula_sum              'H12 Cl3 Mg1 O6 Rb1'
_publ_section_title                'Structure of MgCl2.RbCl.6H2O'
loop_
_citation_id
_citation_journal_abbrev
_citation_year
_citation_journal_volume
_citation_page_first
_citation_page_last
_citation_journal_id_ASTM
primary 'Acta Crystallographica, Section C: Crystal Structure Communications'
 1991 47 251 254 ACSCEE
2 'Acta Crystallographica, Section C: Crystal Structure Communications'
 1992 48 218 219 ACSCEE
_publ_author_name
;
Waizumi, K.;Masuda, H.;Ohtaki, H.;Burkov, K.A.;Scripkin, M.Y.
;
_cell_length_a                     6.672(5)
_cell_length_b                     13.282(15)
_cell_length_c                     6.639(5)
_cell_angle_alpha                  89.83(8)
_cell_angle_beta                   91.72(6)
_cell_angle_gamma                  90.41(8)
_cell_volume                       588.05
_cell_formula_units_Z              2
_symmetry_space_group_name_H-M     'P 1'
_symmetry_Int_Tables_number        1
_refine_ls_R_factor_all            .078
loop_
_symmetry_equiv_pos_site_id
_symmetry_equiv_pos_as_xyz
  1	'x, y, z'
loop_
_atom_type_symbol
_atom_type_oxidation_number
Cl1-	-1
H1+	1
Mg2+	2
O2-	-2
Rb1+	1
loop_
_atom_site_label
_atom_site_type_symbol
_atom_site_symmetry_multiplicity
_atom_site_Wyckoff_symbol
_atom_site_fract_x
_atom_site_fract_y
_atom_site_fract_z
_atom_site_occupancy
_atom_site_attached_hydrogens
_atom_site_B_iso_or_equiv
Rb1 Rb1+ 1 a 0 0 0 1. 0 0 
Rb2 Rb1+ 1 a -.0084(2) 0.4999(1) 0.0077(3) 1. 0 0 
Mg1 Mg2+ 1 a 0.4830(12) 0.2500(7) 0.5008(15) 1. 0 0 
Mg2 Mg2+ 1 a 0.4904(12) 0.7482(7) 0.5060(14) 1. 0 0 
Cl1 Cl1- 1 a 0.4970(6) 0.0071(3) -.0108(7) 1. 0 0 
Cl2 Cl1- 1 a 0.4772(5) 0.5001(3) 0.0157(5) 1. 0 0 
Cl3 Cl1- 1 a 0.0029(6) 0.0016(3) 0.4921(6) 1. 0 0 
Cl4 Cl1- 1 a -.0262(5) 0.5076(3) 0.5121(6) 1. 0 0 
Cl5 Cl1- 1 a -.0212(9) 0.2501(6) 0.0010(12) 1. 0 0 
Cl6 Cl1- 1 a -.0017(10) 0.7562(6) 0.0023(12) 1. 0 0 
O1 O2- 1 a 0.5688(17) 0.3890(9) 0.6125(15) 1. 0 0 
O2 O2- 1 a 0.2066(15) 0.3008(9) 0.4185(14) 1. 0 0 
O3 O2- 1 a 0.5872(15) 0.2898(7) 0.2206(16) 1. 0 0 
O4 O2- 1 a 0.3913(14) 0.2119(8) 0.7761(14) 1. 0 0 
O5 O2- 1 a 0.7686(14) 0.1990(8) 0.5792(17) 1. 0 0 
O6 O2- 1 a 0.4151(13) 0.1092(7) 0.4072(15) 1. 0 0 
O7 O2- 1 a 0.7641(13) 0.7165(7) 0.4016(12) 1. 0 0 
O8 O2- 1 a 0.5662(16) 0.7093(7) 0.7862(17) 1. 0 0 
O9 O2- 1 a 0.4089(14) 0.8118(7) 0.2231(13) 1. 0 0 
O10 O2- 1 a 0.2067(15) 0.7929(8) 0.5941(18) 1. 0 0 
O11 O2- 1 a 0.3837(14) 0.6136(7) 0.4237(15) 1. 0 0 
O12 O2- 1 a 0.5911(17) 0.8941(8) 0.5766(17) 1. 0 0 
H1 H1+ 1 a 0.481(21) 0.405(11) 0.717(22) 1. 0 3.2 
H2 H1+ 1 a 0.721(24) 0.361(13) 0.664(24) 1. 0 4.9 
H3 H1+ 1 a 0.132(23) 0.286(12) 0.297(23) 1. 0 3.7 
H4 H1+ 1 a 0.139(22) 0.349(12) 0.472(22) 1. 0 2.7 
H5 H1+ 1 a 0.609(21) 0.242(11) 0.173(21) 1. 0 2.8 
H6 H1+ 1 a 0.548(22) 0.345(11) 0.161(22) 1. 0 3.3 
H7 H1+ 1 a 0.291(19) 0.223(10) 0.818(20) 1. 0 1.6 
H8 H1+ 1 a 0.421(23) 0.139(12) 0.769(24) 1. 0 4.2 
H9 H1+ 1 a 0.806(20) 0.220(11) 0.691(21) 1. 0 3. 
H10 H1+ 1 a 0.813(24) 0.144(12) 0.550(24) 1. 0 5.1 
H11 H1+ 1 a 0.437(20) 0.085(10) 0.297(20) 1. 0 1.6 
H12 H1+ 1 a 0.291(20) 0.077(10) 0.436(19) 1. 0 1.9 
H13 H1+ 1 a 0.826(21) 0.749(11) 0.286(22) 1. 0 2.9 
H14 H1+ 1 a 0.806(23) 0.654(12) 0.384(23) 1. 0 5. 
H15 H1+ 1 a 0.551(19) 0.652(10) 0.836(19) 1. 0 1.4 
H16 H1+ 1 a 0.673(20) 0.725(10) 0.842(20) 1. 0 2.1 
H17 H1+ 1 a 0.413(24) 0.774(12) 0.128(23) 1. 0 4.4 
H18 H1+ 1 a 0.266(22) 0.819(12) 0.221(22) 1. 0 4.3 
H19 H1+ 1 a 0.221(26) 0.798(10) 0.704(19) 1. 0 2.2 
H20 H1+ 1 a 0.128(22) 0.844(11) 0.536(21) 1. 0 3. 
H21 H1+ 1 a 0.374(22) 0.587(12) 0.294(22) 1. 0 3. 
H22 H1+ 1 a 0.248(21) 0.607(10) 0.462(20) 1. 0 2.1 
H23 H1+ 1 a 0.482(23) 0.918(13) 0.679(25) 1. 0 5.1 
H24 H1+ 1 a 0.691(22) 0.946(11) 0.490(21) 1. 0 2.8 

#End of data_69538-ICSD


