data_39852-ICSD
#?2014 by Fachinformationszentrum Karlsruhe, and the U.S. Secretary of 
#Commerce on behalf of the United States.  All rights reserved.
_database_code_ICSD                39852
_audit_creation_date               1995/10/17
_audit_update_record               2010/02/01
_chemical_name_systematic          'Potassium Tetrachloropalladate'
_chemical_formula_structural       'K2 (Pd Cl4)'
_chemical_formula_sum              'Cl4 K2 Pd1'
_publ_section_title
;
Crystal structure of K2 (Pd (N O2)2 Cl2), comparison with K2 (Pd (N 
O2)4) and K2 Pd Cl4
;
loop_
_citation_id
_citation_journal_abbrev
_citation_year
_citation_journal_volume
_citation_page_first
_citation_page_last
_citation_journal_id_ASTM
primary 'Zhurnal Neorganicheskoi Khimii' 1994 39 2017 2021 ZNOKAQ
2 'Russian Journal of Inorganic Chemistry' 1994 39 1932 1935 RJICAQ
_publ_author_name
;
Gromilov, S.A.;Alekseev, V.I.;Baidina, I.A.;Khranenko, S.P.;Belyaev, 
A.V.
;
_cell_length_a                     7.054(1)
_cell_length_b                     7.054(1)
_cell_length_c                     4.134(1)
_cell_angle_alpha                  90.
_cell_angle_beta                   90.
_cell_angle_gamma                  90.
_cell_volume                       205.7
_cell_formula_units_Z              1
_symmetry_space_group_name_H-M     'P 4/m m m'
_symmetry_Int_Tables_number        123
_refine_ls_R_factor_all            .048
loop_
_symmetry_equiv_pos_site_id
_symmetry_equiv_pos_as_xyz
  1	'y, x, -z'
  2	'-y, -x, -z'
  3	'-y, x, -z'
  4	'y, -x, -z'
  5	'-x, y, -z'
  6	'x, -y, -z'
  7	'x, y, -z'
  8	'-x, -y, -z'
  9	'-y, -x, z'
 10	'y, x, z'
 11	'y, -x, z'
 12	'-y, x, z'
 13	'x, -y, z'
 14	'-x, y, z'
 15	'-x, -y, z'
 16	'x, y, z'
loop_
_atom_type_symbol
_atom_type_oxidation_number
Cl1-	-1
K1+	1
Pd2+	2
loop_
_atom_site_label
_atom_site_type_symbol
_atom_site_symmetry_multiplicity
_atom_site_Wyckoff_symbol
_atom_site_fract_x
_atom_site_fract_y
_atom_site_fract_z
_atom_site_occupancy
_atom_site_attached_hydrogens
_atom_site_U_iso_or_equiv
Pd1 Pd2+ 1 a 0 0 0 1. 0 0.024 
K1 K1+ 2 e 0 0.5 0.5 1. 0 0.044 
Cl1 Cl1- 4 j 0.2304(4) 0.2304(4) 0 1. 0 0.036 

#End of data_39852-ICSD


