data_247318-ICSD
#?2014 by Fachinformationszentrum Karlsruhe, and the U.S. Secretary of 
#Commerce on behalf of the United States.  All rights reserved.
_database_code_ICSD                247318
_audit_creation_date               2011/02/01
_audit_update_record               2014/08/01
_chemical_name_systematic          'Sodium Niobate(V)'
_chemical_formula_structural       'Na (Nb O3)'
_chemical_formula_sum              'Na1 Nb1 O3'
_publ_section_title
;
The polar phase of Na Nb O3: A combined study by powder diffraction, 
solid-state NMR, and first-principles calculations
;
loop_
_citation_id
_citation_journal_abbrev
_citation_year
_citation_journal_volume
_citation_journal_issue
_citation_page_first
_citation_page_last
_citation_journal_id_ASTM
primary 'Journal of the American Chemical Society' 2010 132 25 8732 8746 JACSAT
_publ_author_name
;
Johnston, K.E.;Tang, C.C.;Parker, J.E.;Knight, K.S.;Lightfoot, 
P.;Ashbrook, S.E.
;
_cell_length_a                     5.570(1)
_cell_length_b                     7.766(1)
_cell_length_c                     5.513(1)
_cell_angle_alpha                  90.
_cell_angle_beta                   90.
_cell_angle_gamma                  90.
_cell_volume                       238.47
_cell_formula_units_Z              4
_symmetry_space_group_name_H-M     'P 1 m 1'
_symmetry_Int_Tables_number        6
_refine_ls_R_factor_all            .057
loop_
_symmetry_equiv_pos_site_id
_symmetry_equiv_pos_as_xyz
  1	'x, -y, z'
  2	'x, y, z'
loop_
_atom_type_symbol
_atom_type_oxidation_number
Na1+	1
Nb5+	5
O2-	-2
loop_
_atom_site_label
_atom_site_type_symbol
_atom_site_symmetry_multiplicity
_atom_site_Wyckoff_symbol
_atom_site_fract_x
_atom_site_fract_y
_atom_site_fract_z
_atom_site_occupancy
_atom_site_attached_hydrogens
_atom_site_U_iso_or_equiv
Nb1 Nb5+ 2 c 0.26246 0.25 0.2466 1. 0 0.0020 
Nb2 Nb5+ 2 c 0.76246 -0.25 -0.2466 1. 0 0.0020 
Na1 Na1+ 1 a 0.2596 0 0.7481 1. 0 0.0050 
Na2 Na1+ 1 a 0.7596 0 -0.7481 1. 0 0.0050 
Na3 Na1+ 1 b 0.2915 0.5 0.7327 1. 0 0.0224 
Na4 Na1+ 1 b 0.7915 -0.5 -0.7327 1. 0 0.0224 
O1 O2- 1 a 0.2409 0 0.3124 1. 0 0.0053 
O2 O2- 1 a 0.7409 0 -0.3124 1. 0 0.0053 
O3 O2- 1 b 0.2257 0.5 0.1928 1. 0 0.0037 
O4 O2- 1 b 0.7257 -0.5 -0.1928 1. 0 0.0037 
O5 O2- 2 c 0.0131 0.279 0.5272 1. 0 0.0184 
O6 O2- 2 c 0.5131 -0.279 -0.5272 1. 0 0.0184 
O7 O2- 2 c -0.049 0.2197 0.036 1. 0 0.0061 
O8 O2- 2 c 0.451 -0.2197 -0.036 1. 0 0.0061 

#End of data_247318-ICSD


