data_168928-ICSD
#?2014 by Fachinformationszentrum Karlsruhe, and the U.S. Secretary of 
#Commerce on behalf of the United States.  All rights reserved.
_database_code_ICSD                168928
_audit_creation_date               2011/02/01
_chemical_name_systematic
;
Lead Zinc Vanadiumoxid Bisphosphate
;
_chemical_formula_structural       'Pb Zn (V O) (P O4)2'
_chemical_formula_sum              'O9 P2 Pb1 V1 Zn1'
_publ_section_title
;
Frustrated square lattice with spatial anisotropy: crystal structure 
and magnetic properties of Pb Zn V O (P O4)2
;
loop_
_citation_id
_citation_journal_abbrev
_citation_year
_citation_journal_volume
_citation_page_first
_citation_page_last
_citation_journal_id_ASTM
primary 'Physical Review, Serie 3. B - Condensed Matter (18,1978-)'
 2010 81 174424-1 174424-13 PRBMDO
_publ_author_name
;
Tsirlin, A.A.;Nath, R.;Abakumov, A.M.;Shpanchenko, R.V.;Geibel, 
C.;Rosner, H.
;
_cell_length_a                     8.763(1)
_cell_length_b                     9.072(1)
_cell_length_c                     18.070(1)
_cell_angle_alpha                  90.
_cell_angle_beta                   90.
_cell_angle_gamma                  90.
_cell_volume                       1436.53
_cell_formula_units_Z              8
_symmetry_space_group_name_H-M     'P b c a'
_symmetry_Int_Tables_number        61
_refine_ls_R_factor_all            .019
loop_
_symmetry_equiv_pos_site_id
_symmetry_equiv_pos_as_xyz
  1	'x+.5, y, -z+.5'
  2	'x, -y+.5, z+.5'
  3	'-x+.5, y+.5, z'
  4	'-x, -y, -z'
  5	'-x+.5, -y, z+.5'
  6	'-x, y+.5, -z+.5'
  7	'x+.5, -y+.5, -z'
  8	'x, y, z'
loop_
_atom_type_symbol
_atom_type_oxidation_number
O2-	-2
P5+	5
Pb2+	2
V4+	4
Zn2+	2
loop_
_atom_site_label
_atom_site_type_symbol
_atom_site_symmetry_multiplicity
_atom_site_Wyckoff_symbol
_atom_site_fract_x
_atom_site_fract_y
_atom_site_fract_z
_atom_site_occupancy
_atom_site_attached_hydrogens
_atom_site_U_iso_or_equiv
Pb1 Pb2+ 8 c 0.17982(7) 0.00359(10) 0.41282(4) 1. 0 0.024(1) 
Zn1 Zn2+ 8 c 0.1995(2) 0.91225(16) 0.08682(13) 1. 0 0.014(1) 
V1 V4+ 8 c 0.0027(3) 0.1605(3) 0.21307(17) 1. 0 0.007(1) 
P1 P5+ 8 c 0.2529(4) 0.4120(4) 0.2407(2) 1. 0 0.006(1) 
P2 P5+ 8 c 0.4519(5) 0.7997(5) 0.5223(2) 1. 0 0.006(1) 
O1 O2- 8 c 0.0664(9) 0.6680(8) 0.4137(5) 1. 0 0.003(1) 
O2 O2- 8 c 0.1502(10) 0.8214(9) 0.2926(5) 1. 0 0.003(1) 
O3 O2- 8 c 0.3087(12) 0.9079(8) 0.5224(4) 1. 0 0.003(1) 
O4 O2- 8 c 0.0275(10) 0.1531(9) 0.2991(5) 1. 0 0.003(1) 
O5 O2- 8 c 0.3932(9) 0.6386(9) 0.5341(4) 1. 0 0.003(1) 
O6 O2- 8 c 0.3389(8) 0.4965(14) 0.1853(3) 1. 0 0.003(1) 
O7 O2- 8 c 0.5217(11) 0.8014(10) 0.4456(5) 1. 0 0.003(1) 
O8 O2- 8 c 0.1645(9) 0.5077(12) 0.2910(3) 1. 0 0.003(1) 
O9 O2- 8 c 0.1528(11) 0.3183(8) 0.1870(4) 1. 0 0.003(1) 

#End of data_168928-ICSD


