data_400004-ICSD
#?2014 by Fachinformationszentrum Karlsruhe, and the U.S. Secretary of 
#Commerce on behalf of the United States.  All rights reserved.
_database_code_ICSD                400004
_audit_creation_date               1994/02/04
_chemical_name_systematic
;
Dikalium Tetrapraseodymium Nonachloride Dioxide
;
_chemical_formula_structural       'K2 Pr4 Cl9 O2'
_chemical_formula_sum              'Cl9 K2 O2 Pr4'
_publ_section_title
;
Na2(Pr4O2)Cl9 and K2(PR4O2)Cl9, the first reduced quaternary 
praseodymium chlorides with anti-SiS2 analogous (Pr4/2O) chains
;
loop_
_citation_id
_citation_journal_abbrev
_citation_year
_citation_journal_volume
_citation_page_first
_citation_page_last
_citation_journal_id_ASTM
primary 'Zeitschrift fuer Anorganische und Allgemeine Chemie (1950) (DE)'
 1994 620 85 89 ZAACAB
_publ_author_name                  'Mattfeld, H.;Meyer, G.'
_cell_length_a                     8.206(2)
_cell_length_b                     11.332(4)
_cell_length_c                     9.492(3)
_cell_angle_alpha                  90.
_cell_angle_beta                   103.94(2)
_cell_angle_gamma                  90.
_cell_volume                       856.67
_cell_formula_units_Z              2
_symmetry_space_group_name_H-M     'P 1 21/m 1'
_symmetry_Int_Tables_number        11
_refine_ls_R_factor_all            .073
loop_
_symmetry_equiv_pos_site_id
_symmetry_equiv_pos_as_xyz
  1	'x, -y+.5, z'
  2	'-x, -y, -z'
  3	'-x, y+.5, -z'
  4	'x, y, z'
loop_
_atom_type_symbol
_atom_type_oxidation_number
Cl1-	-1
K1+	1
O2-	-2
Pr2.75+	2.75
loop_
_atom_site_label
_atom_site_type_symbol
_atom_site_symmetry_multiplicity
_atom_site_Wyckoff_symbol
_atom_site_fract_x
_atom_site_fract_y
_atom_site_fract_z
_atom_site_occupancy
_atom_site_attached_hydrogens
_atom_site_U_iso_or_equiv
K1 K1+ 4 f 0.2383(7) 0.0531(8) 0.4496(6) 1. 0 0.1040(21) 
Pr1 Pr2.75+ 2 e 0.6085(1) 0.25 0.8294(1) 1. 0 0.0162(3) 
Pr2 Pr2.75+ 2 e 0.6027(1) 0.25 0.2169(1) 1. 0 0.0168(3) 
Pr3 Pr2.75+ 4 f 0.2825(1) 0.04344(8) 0.9554(1) 1. 0 0.0188(2) 
Cl1 Cl1- 2 e 0.2444(7) 0.25 0.1390(6) 1. 0 0.0263(15) 
Cl2 Cl1- 2 e 0.2455(7) 0.25 0.7504(6) 1. 0 0.0264(15) 
Cl3 Cl1- 2 e 0.5857(11) 0.25 0.5192(7) 1. 0 0.0461(20) 
Cl4 Cl1- 4 f 0.8983(5) 0.4006(4) 0.8784(5) 1. 0 0.0321(13) 
Cl5 Cl1- 4 f 0.4894(6) 0.9997(4) 0.2795(5) 1. 0 0.0346(14) 
Cl6 Cl1- 4 f 0.8806(6) 0.0928(5) 0.2950(6) 1. 0 0.0430(16) 
O1 O2- 4 f 0.5638(14) 0.1282(9) 0.0129(14) 1. 0 0.0310(24) 

#End of data_400004-ICSD


