data_75517-ICSD
#?2014 by Fachinformationszentrum Karlsruhe, and the U.S. Secretary of 
#Commerce on behalf of the United States.  All rights reserved.
_database_code_ICSD                75517
_audit_creation_date               1996/04/22
_chemical_name_systematic          'Sodium Tecto-dinioboarsenate(V)'
_chemical_formula_structural       'Na (Nb2 As O8)'
_chemical_formula_sum              'As1 Na1 Nb2 O8'
_publ_section_title
;
Synthesis and crystal structure of Na Nb2 As O8
;
loop_
_citation_id
_citation_journal_abbrev
_citation_year
_citation_journal_volume
_citation_page_first
_citation_page_last
_citation_journal_id_ASTM
primary 'Journal of Solid State Chemistry' 1994 113 367 372 JSSCBI
_publ_author_name
;
Harrison, W.T.A.;Liang, C.S.;Nenoff, T.M.;Stucky, G.D.
;
_cell_length_a                     4.8970(6)
_cell_length_b                     8.516(2)
_cell_length_c                     15.075(3)
_cell_angle_alpha                  90.
_cell_angle_beta                   98.971(6)
_cell_angle_gamma                  90.
_cell_volume                       620.98
_cell_formula_units_Z              4
_symmetry_space_group_name_H-M     'P 1 21/n 1'
_symmetry_Int_Tables_number        14
_refine_ls_R_factor_all            .053
loop_
_symmetry_equiv_pos_site_id
_symmetry_equiv_pos_as_xyz
  1	'-x+.5, y+.5, -z+.5'
  2	'-x, -y, -z'
  3	'x+.5, -y+.5, z+.5'
  4	'x, y, z'
loop_
_atom_type_symbol
_atom_type_oxidation_number
As5+	5
Na1+	1
Nb5+	5
O2-	-2
loop_
_atom_site_label
_atom_site_type_symbol
_atom_site_symmetry_multiplicity
_atom_site_Wyckoff_symbol
_atom_site_fract_x
_atom_site_fract_y
_atom_site_fract_z
_atom_site_occupancy
_atom_site_attached_hydrogens
_atom_site_U_iso_or_equiv
Na1 Na1+ 4 e 0.0872(6) -.0198(3) 0.6202(2) 1. 0 0.0337 
Nb1 Nb5+ 4 e 0.09300(7) 0.56984(4) 0.63908(2) 1. 0 0.0177 
Nb2 Nb5+ 4 e 0.52458(7) 0.70444(4) 0.48120(2) 1. 0 0.0184 
As1 As5+ 4 e 0.65814(9) 0.75995(5) 0.76487(3) 1. 0 0.018 
O1 O2- 4 e -.0952(7) 0.7564(4) 0.7004(2) 1. 0 0.0222 
O2 O2- 4 e 0.4181(6) 0.6206(4) 0.7406(2) 1. 0 0.0232 
O3 O2- 4 e 0.7393(6) 0.5418(4) 0.5624(2) 1. 0 0.0203 
O4 O2- 4 e 0.2539(7) 0.7151(4) 0.5660(2) 1. 0 0.0213 
O5 O2- 4 e -.0275(7) 0.4426(4) 0.7461(2) 1. 0 0.0218 
O6 O2- 4 e 0.2571(7) 0.3895(4) 0.6083(2) 1. 0 0.0235 
O7 O2- 4 e 0.7200(7) 0.8737(4) 0.5056(2) 1. 0 0.0247 
O8 O2- 4 e 0.2739(7) 0.7859(4) 0.3738(2) 1. 0 0.0225 

#End of data_75517-ICSD


