data_419595-ICSD
#?2014 by Fachinformationszentrum Karlsruhe, and the U.S. Secretary of 
#Commerce on behalf of the United States.  All rights reserved.
_database_code_ICSD                419595
_audit_creation_date               2009/08/01
_chemical_name_systematic          'Lithium Zinc Tin Sulfide (2/1/1/4)'
_chemical_formula_structural       'Li2 Zn Sn S4'
_chemical_formula_sum              'Li2 S4 Sn1 Zn1'
_publ_section_title
;
Synthesis, physicochemical characterization and crystallographic 
twinning of Li2 Zn Sn S4
;
loop_
_citation_id
_citation_journal_abbrev
_citation_year
_citation_journal_volume
_citation_journal_issue
_citation_page_first
_citation_page_last
_citation_journal_id_ASTM
primary 'Journal of Solid State Chemistry' 2009 181 12 3217 3222 JSSCBI
_publ_author_name
;
Lekse, J.W.;Leverett, B.M.;Lake, C.H.;Aitken, J.A.
;
_cell_length_a                     6.3728(13)
_cell_length_b                     6.7286(13)
_cell_length_c                     7.9621(16)
_cell_angle_alpha                  90.00
_cell_angle_beta                   90.00(3)
_cell_angle_gamma                  90.00
_cell_volume                       341.42
_cell_formula_units_Z              2
_symmetry_space_group_name_H-M     'P 1 n 1'
_symmetry_Int_Tables_number        7
_refine_ls_R_factor_all            .0161
loop_
_symmetry_equiv_pos_site_id
_symmetry_equiv_pos_as_xyz
  1	'x+.5, -y, z+.5'
  2	'x, y, z'
loop_
_atom_type_symbol
_atom_type_oxidation_number
Li1+	1
S2-	-2
Sn4+	4
Zn2+	2
loop_
_atom_site_label
_atom_site_type_symbol
_atom_site_symmetry_multiplicity
_atom_site_Wyckoff_symbol
_atom_site_fract_x
_atom_site_fract_y
_atom_site_fract_z
_atom_site_occupancy
_atom_site_attached_hydrogens
_atom_site_U_iso_or_equiv
Sn1 Sn4+ 2 a 0.6113(3) 0.17261(6) 0.0658(2) 1 0 0.01323(12) 
Zn1 Zn2+ 2 a 1.1111(4) 0.32630(14) 0.3174(3) 1 0 0.0150(3) 
Li1 Li1+ 2 a 0.607(8) 0.1640(11) 0.580(3) 1 0 0.007(3) 
Li2 Li1+ 2 a 0.128(8) 0.339(3) 0.820(5) 1 0 0.061(9) 
S1 S2- 2 a 0.9883(9) 0.1815(3) 0.0711(13) 1 0 0.0157(7) 
S2 S2- 2 a 0.9890(9) 0.1618(3) 0.5644(12) 1 0 0.0145(5) 
S3 S2- 2 a 0.4925(15) 0.3393(5) 0.8260(11) 1 0 0.0164(9) 
S4 S2- 2 a 0.4785(14) 0.3303(5) 0.3181(11) 1 0 0.0129(9) 

loop_
_atom_site_aniso_label
_atom_site_aniso_type_symbol
_atom_site_aniso_U_11
_atom_site_aniso_U_22
_atom_site_aniso_U_33
_atom_site_aniso_U_12
_atom_site_aniso_U_13
_atom_site_aniso_U_23
Sn1 Sn4+ 0.01276(17) 0.01295(13) 0.0140(3) -0.0005(2) 0.0009(11) -0.0033(4)
Zn1 Zn2+ 0.0147(4) 0.0150(4) 0.0154(6) -0.0005(5) 0.0019(18) 0.0026(4)
S1 S2- 0.0127(9) 0.0173(9) 0.0170(16) -0.0007(8) -0.007(2) -0.0044(13)
S2 S2- 0.0180(9) 0.0109(8) 0.0146(10) -0.0002(6) -0.001(3) -0.0051(13)
S3 S2- 0.0156(15) 0.0196(15) 0.0139(17) -0.0019(9) -0.0044(19) -0.0016(9)
S4 S2- 0.0152(17) 0.0147(14) 0.0087(16) 0.0017(9) 0.000(2) 0.0001(9)
#End of data_419595-ICSD


