data_61219-ICSD
#?2014 by Fachinformationszentrum Karlsruhe, and the U.S. Secretary of 
#Commerce on behalf of the United States.  All rights reserved.
_database_code_ICSD                61219
_audit_creation_date               1986/12/03
_audit_update_record               1999/11/30
_chemical_name_systematic          'Octalithium Cerium Hexaoxide'
_chemical_formula_structural       'Li8 Ce O6'
_chemical_formula_sum              'Ce1 Li8 O6'
_publ_section_title
;
Neue Vertreter der Li8 Sn O6-Familie: Li8 Ir O6, Li8 Pt O6 und Li8 Ce 
O6
;
loop_
_citation_id
_citation_journal_abbrev
_citation_year
_citation_journal_volume
_citation_page_first
_citation_page_last
_citation_journal_id_ASTM
primary 'Zeitschrift fuer Anorganische und Allgemeine Chemie (1950) (DE)'
 1986 536 81 91 ZAACAB
_publ_author_name                  'Kroeschell, P.;Wolf, R.;Hoppe, R.'
_cell_length_a                     5.6430(3)
_cell_length_b                     5.6430(3)
_cell_length_c                     16.0271(10)
_cell_angle_alpha                  90.
_cell_angle_beta                   90.
_cell_angle_gamma                  120.
_cell_volume                       441.98
_cell_formula_units_Z              3
_symmetry_space_group_name_H-M     'R -3 H'
_symmetry_Int_Tables_number        148
_refine_ls_R_factor_all            .03
loop_
_symmetry_equiv_pos_site_id
_symmetry_equiv_pos_as_xyz
  1	'x-y, x, -z'
  2	'y, -x+y, -z'
  3	'-x, -y, -z'
  4	'-x+y, -x, z'
  5	'-y, x-y, z'
  6	'x, y, z'
  7	'x-y+.6666, x+.3333, -z+.3333'
  8	'x-y+.3333, x+.6666, -z+.6666'
  9	'y+.6666, -x+y+.3333, -z+.3333'
 10	'y+.3333, -x+y+.6666, -z+.6666'
 11	'-x+.6666, -y+.3333, -z+.3333'
 12	'-x+.3333, -y+.6666, -z+.6666'
 13	'-x+y+.6666, -x+.3333, z+.3333'
 14	'-x+y+.3333, -x+.6666, z+.6666'
 15	'-y+.6666, x-y+.3333, z+.3333'
 16	'-y+.3333, x-y+.6666, z+.6666'
 17	'x+.6666, y+.3333, z+.3333'
 18	'x+.3333, y+.6666, z+.6666'
loop_
_atom_type_symbol
_atom_type_oxidation_number
Ce4+	4
Li1+	1
O2-	-2
loop_
_atom_site_label
_atom_site_type_symbol
_atom_site_symmetry_multiplicity
_atom_site_Wyckoff_symbol
_atom_site_fract_x
_atom_site_fract_y
_atom_site_fract_z
_atom_site_occupancy
_atom_site_attached_hydrogens
Ce1 Ce4+ 3 a 0 0 0 1. 0 
Li1 Li1+ 18 f 0.6234(19) 0.6448(18) 0.8764(6) 1. 0 
Li2 Li1+ 6 c 0 0 0.3461(13) 1. 0 
O1 O2- 18 f 0.6774(8) 0.6567(8) 0.4179(2) 1. 0 

loop_
_atom_site_aniso_label
_atom_site_aniso_type_symbol
_atom_site_aniso_U_11
_atom_site_aniso_U_22
_atom_site_aniso_U_33
_atom_site_aniso_U_12
_atom_site_aniso_U_13
_atom_site_aniso_U_23
Ce1 Ce4+ 0.0050(2) 0.0050(2) 0.0095(3) 0.0025(1) 0 0
Li1 Li1+ 0.0144(32) 0.0111(31) 0.0190(32) 0.0046(26) 0.0007(28) -.0012(27)
Li2 Li1+ 0.0127(34) 0.0127(34) 0.0352(48) 0.0063(17) 0 0
O1 O2- 0.0136(15) 0.0106(15) 0.0148(14) 0.0062(13) 0.0018(12) -.0001(11)
#End of data_61219-ICSD


