data_180053-ICSD
#?2014 by Fachinformationszentrum Karlsruhe, and the U.S. Secretary of 
#Commerce on behalf of the United States.  All rights reserved.
_database_code_ICSD                180053
_audit_creation_date               2012/02/01
_chemical_name_systematic          'Tricesium Zinc Pentabromide'
_chemical_formula_structural       'Cs3 Zn Br5'
_chemical_formula_sum              'Br5 Cs3 Zn1'
_publ_section_title
;
Synthesis and crystal structure of Cs3 Zn Br5
;
loop_
_citation_id
_citation_journal_abbrev
_citation_year
_citation_journal_volume
_citation_journal_issue
_citation_page_first
_citation_page_last
_citation_journal_id_ASTM
primary 'Zhurnal Neorganicheskoi Khimii' 2010 55 12 1995 2001 ZNOKAQ
2 'Russian Journal of Inorganic Chemistry' 2010 55 12 1882 1887 RJICAQ
_publ_author_name
;
Kanishcheva, A.S.;Zaitseva, I.Ya.;Kovalyova, I.S.;Mikhailov, Yu.N.
;
_cell_length_a                     9.6325(17)
_cell_length_b                     9.6325(17)
_cell_length_c                     15.141(5)
_cell_angle_alpha                  90.
_cell_angle_beta                   90.
_cell_angle_gamma                  90.
_cell_volume                       1404.86
_cell_formula_units_Z              4
_symmetry_space_group_name_H-M     'I 4/m c m'
_symmetry_Int_Tables_number        140
_refine_ls_R_factor_all            .0158
loop_
_symmetry_equiv_pos_site_id
_symmetry_equiv_pos_as_xyz
  1	'y, x, -z+.5'
  2	'-y, -x, -z+.5'
  3	'-y, x, -z'
  4	'y, -x, -z'
  5	'x, -y, -z+.5'
  6	'-x, y, -z+.5'
  7	'x, y, -z'
  8	'-x, -y, -z'
  9	'-y, -x, z+.5'
 10	'y, x, z+.5'
 11	'y, -x, z'
 12	'-y, x, z'
 13	'-x, y, z+.5'
 14	'x, -y, z+.5'
 15	'-x, -y, z'
 16	'x, y, z'
 17	'y+.5, x+.5, -z'
 18	'-y+.5, -x+.5, -z'
 19	'-y+.5, x+.5, -z+.5'
 20	'y+.5, -x+.5, -z+.5'
 21	'x+.5, -y+.5, -z'
 22	'-x+.5, y+.5, -z'
 23	'x+.5, y+.5, -z+.5'
 24	'-x+.5, -y+.5, -z+.5'
 25	'-y+.5, -x+.5, z'
 26	'y+.5, x+.5, z'
 27	'y+.5, -x+.5, z+.5'
 28	'-y+.5, x+.5, z+.5'
 29	'-x+.5, y+.5, z'
 30	'x+.5, -y+.5, z'
 31	'-x+.5, -y+.5, z+.5'
 32	'x+.5, y+.5, z+.5'
loop_
_atom_type_symbol
_atom_type_oxidation_number
Br1-	-1
Cs1+	1
Zn2+	2
loop_
_atom_site_label
_atom_site_type_symbol
_atom_site_symmetry_multiplicity
_atom_site_Wyckoff_symbol
_atom_site_fract_x
_atom_site_fract_y
_atom_site_fract_z
_atom_site_occupancy
_atom_site_attached_hydrogens
_atom_site_U_iso_or_equiv
Cs1 Cs1+ 8 h 0.1622(1) 0.3378(1) 0 1. 0 0.030(1) 
Cs2 Cs1+ 4 a 0 0 0.250 1. 0 0.042(1) 
Br1 Br1- 4 c 0 0 0 1. 0 0.033(1) 
Br2 Br1- 16 l 0.3579(1) 0.1421(1) 0.1562(1) 1. 0 0.039(1) 
Zn1 Zn2+ 4 b 0 0.5 0.250 1. 0 0.025(1) 

loop_
_atom_site_aniso_label
_atom_site_aniso_type_symbol
_atom_site_aniso_U_11
_atom_site_aniso_U_22
_atom_site_aniso_U_33
_atom_site_aniso_U_12
_atom_site_aniso_U_13
_atom_site_aniso_U_23
Cs1 Cs1+ 0.028(1) 0.028(1) 0.035(1) 0.002(1) 0. 0.
Cs2 Cs1+ 0.046(1) 0.046(1) 0.035(1) 0. 0. 0.
Br1 Br1- 0.029(1) 0.029(1) 0.041(1) 0. 0. 0.
Br2 Br1- 0.043(1) 0.043(1) 0.033(1) 0.013(1) -0.006(1) -0.006(1)
Zn1 Zn2+ 0.029(1) 0.029(1) 0.018(1) 0. 0. 0.
#End of data_180053-ICSD


