data_100420-ICSD
#?2014 by Fachinformationszentrum Karlsruhe, and the U.S. Secretary of 
#Commerce on behalf of the United States.  All rights reserved.
_database_code_ICSD                100420
_audit_creation_date               1980/01/01
_audit_update_record               2008/02/01
_chemical_name_systematic
;
Dipotassium Dimagnesium Tris(sulfate(VI))
;
_chemical_formula_structural       'K2 Mg2 (S O4)3'
_chemical_formula_sum              'K2 Mg2 O12 S3'
_chemical_name_mineral             Langbeinite
_publ_section_title
;
Refinement of the crystal structure of langbeinite K2 Mg2 (S O4)3
;
loop_
_citation_id
_citation_journal_abbrev
_citation_year
_citation_journal_volume
_citation_journal_issue
_citation_page_first
_citation_page_last
_citation_journal_id_ASTM
primary 'Neues Jahrbuch fuer Mineralogie. Monatshefte (Band=Jahr) (1950-)'
 1979 1979- 182 188 NJMMAW
2 'Journal of Chemical Physics' 1977 67 5 2146 2150 JCPSA6
3 'Acta Crystallographica (1,1948-23,1967)' 1957 10- 409 413 ACCRA9
4 'Zeitschrift fuer Anorganische und Allgemeine Chemie (1950) (DE)'
 1958 293- 233 240 ZAACAB
5 'Phase Transition' 1992 38- 127 220 PHTRDP
_publ_author_name                  'Mereiter, K.'
_cell_length_a                     9.919(2)
_cell_length_b                     9.919(2)
_cell_length_c                     9.919(2)
_cell_angle_alpha                  90.
_cell_angle_beta                   90.
_cell_angle_gamma                  90.
_cell_volume                       975.9
_cell_formula_units_Z              4
_symmetry_space_group_name_H-M     'P 21 3'
_symmetry_Int_Tables_number        198
_refine_ls_R_factor_all            .016
loop_
_symmetry_equiv_pos_site_id
_symmetry_equiv_pos_as_xyz
  1	'-z+.5, -x, y+.5'
  2	'-y+.5, -z, x+.5'
  3	'-x+.5, -y, z+.5'
  4	'-z, x+.5, -y+.5'
  5	'-y, z+.5, -x+.5'
  6	'-x, y+.5, -z+.5'
  7	'z+.5, -x+.5, -y'
  8	'y+.5, -z+.5, -x'
  9	'x+.5, -y+.5, -z'
 10	'z, x, y'
 11	'y, z, x'
 12	'x, y, z'
loop_
_atom_type_symbol
_atom_type_oxidation_number
K1+	1
Mg2+	2
O2-	-2
S6+	6
loop_
_atom_site_label
_atom_site_type_symbol
_atom_site_symmetry_multiplicity
_atom_site_Wyckoff_symbol
_atom_site_fract_x
_atom_site_fract_y
_atom_site_fract_z
_atom_site_occupancy
_atom_site_attached_hydrogens
K1 K1+ 4 a 0.06673(5) 0.06673(5) 0.06673(5) 1. 0 
K2 K1+ 4 a 0.29822(5) 0.29822(5) 0.29822(5) 1. 0 
Mg1 Mg2+ 4 a 0.58508(6) 0.58508(6) 0.58508(6) 1. 0 
Mg2 Mg2+ 4 a 0.84902(6) 0.84902(6) 0.84902(6) 1. 0 
S1 S6+ 12 b 0.62557(4) 0.46596(4) 0.26784(4) 1. 0 
O1 O2- 12 b 0.65193(17) 0.50333(16) 0.40751(14) 1. 0 
O2 O2- 12 b 0.75011(17) 0.48499(16) 0.19096(17) 1. 0 
O3 O2- 12 b 0.57957(14) 0.32559(13) 0.25888(15) 1. 0 
O4 O2- 12 b 0.52354(15) 0.55420(16) 0.20782(16) 1. 0 

loop_
_atom_site_aniso_label
_atom_site_aniso_type_symbol
_atom_site_aniso_B_11
_atom_site_aniso_B_22
_atom_site_aniso_B_33
_atom_site_aniso_B_12
_atom_site_aniso_B_13
_atom_site_aniso_B_23
K1 K1+ 0.149(2) 0.149(2) 0.149(2) -.013(2) -.013(2) -.013(2)
K2 K1+ 0.168(2) 0.168(2) 0.168(2) 0.006(2) 0.006(2) 0.006(2)
Mg1 Mg2+ 0.065(2) 0.065(2) 0.065(2) -.005(2) -.005(2) -.005(2)
Mg2 Mg2+ 0.066(2) 0.066(2) 0.066(2) 0.000(2) 0.000(2) 0.000(2)
S1 S6+ 0.052(2) 0.050(2) 0.054(2) 0.009(1) 0.005(1) 0.000(1)
O1 O2- 0.197(6) 0.173(6) 0.095(6) 0.025(5) -.027(5) -.062(5)
O2 O2- 0.136(6) 0.203(6) 0.211(6) 0.018(5) 0.120(5) 0.026(5)
O3 O2- 0.151(6) 0.062(6) 0.185(6) -.029(5) -.057(5) 0.007(5)
O4 O2- 0.148(6) 0.132(6) 0.200(6) 0.077(5) -.066(5) 0.007(5)
#End of data_100420-ICSD


