data_10040-ICSD
#?2014 by Fachinformationszentrum Karlsruhe, and the U.S. Secretary of 
#Commerce on behalf of the United States.  All rights reserved.
_database_code_ICSD                10040
_audit_creation_date               1980/01/01
_chemical_name_systematic          'Disilver Barium Tetrathiogermanate'
_chemical_formula_structural       'Ag2 Ba Ge S4'
_chemical_formula_sum              'Ag2 Ba1 Ge1 S4'
_publ_section_title
;
Darstellung und Kristallstruktur von Silber-Barium-Thiogermanat(IV): 
Ag2 Ba Ge S4
;
loop_
_citation_id
_citation_journal_abbrev
_citation_year
_citation_journal_volume
_citation_page_first
_citation_page_last
_citation_journal_id_ASTM
primary
;
Zeitschrift fuer Naturforschung, Teil B. Anorganische Chemie, 
Organische Chemie (33,1978-41,1986)
;
 1979 34 544 547 ZNBAD2
_publ_author_name                  'Teske, C.L.'
_cell_length_a                     6.828
_cell_length_b                     6.828
_cell_length_c                     8.017
_cell_angle_alpha                  90.
_cell_angle_beta                   90.
_cell_angle_gamma                  90.
_cell_volume                       373.77
_cell_formula_units_Z              2
_symmetry_space_group_name_H-M     'I -4 2 m'
_symmetry_Int_Tables_number        121
_refine_ls_R_factor_all            .077
loop_
_symmetry_equiv_pos_site_id
_symmetry_equiv_pos_as_xyz
  1	'-y, -x, z'
  2	'y, x, z'
  3	'y, -x, -z'
  4	'-y, x, -z'
  5	'x, -y, -z'
  6	'-x, y, -z'
  7	'-x, -y, z'
  8	'x, y, z'
  9	'-y+.5, -x+.5, z+.5'
 10	'y+.5, x+.5, z+.5'
 11	'y+.5, -x+.5, -z+.5'
 12	'-y+.5, x+.5, -z+.5'
 13	'x+.5, -y+.5, -z+.5'
 14	'-x+.5, y+.5, -z+.5'
 15	'-x+.5, -y+.5, z+.5'
 16	'x+.5, y+.5, z+.5'
loop_
_atom_type_symbol
_atom_type_oxidation_number
Ag1+	1
Ba2+	2
Ge4+	4
S2-	-2
loop_
_atom_site_label
_atom_site_type_symbol
_atom_site_symmetry_multiplicity
_atom_site_Wyckoff_symbol
_atom_site_fract_x
_atom_site_fract_y
_atom_site_fract_z
_atom_site_occupancy
_atom_site_attached_hydrogens
Ba1 Ba2+ 2 a 0 0 0 1. 0 
Ag1 Ag1+ 4 d 0 0.5 0.25 1. 0 
Ge1 Ge4+ 2 b 0 0 0.5 1. 0 
S1 S2- 8 i 0.1883(7) 0.1883(7) 0.3440(7) 1. 0 

loop_
_atom_site_aniso_label
_atom_site_aniso_type_symbol
_atom_site_aniso_U_11
_atom_site_aniso_U_22
_atom_site_aniso_U_33
_atom_site_aniso_U_12
_atom_site_aniso_U_13
_atom_site_aniso_U_23
Ba1 Ba2+ 0.0086(7) 0.0086(7) 0.0061(8) 0 0 0
Ag1 Ag1+ 0.0155(7) 0.0155(7) 0.0696(25) 0 0 0
Ge1 Ge4+ 0.0055(11) 0.0055(11) 0.0058(15) 0 0 0
S1 S2- 0.0080(14) 0.0080(14) 0.0103(20) 0 0.0013(7) 0.0013(7)
#End of data_10040-ICSD


