data_87946-ICSD
#?2014 by Fachinformationszentrum Karlsruhe, and the U.S. Secretary of 
#Commerce on behalf of the United States.  All rights reserved.
_database_code_ICSD                87946
_audit_creation_date               2001/07/16
_chemical_name_systematic          'Potassium Cerium Tetrathiosilicate'
_chemical_formula_structural       'K Ce (Si S4)'
_chemical_formula_sum              'Ce1 K1 S4 Si1'
_publ_section_title
;
Synthesis, structure and electronic properties of the cerium and 
potassium thiosilicate: K Ce Si S4
;
loop_
_citation_id
_citation_journal_abbrev
_citation_year
_citation_journal_volume
_citation_page_first
_citation_page_last
_citation_journal_id_ASTM
primary 'C.R. Acad. Sci. Paris, T. 1, Serie II' 1999 2 611 616 CASCFN
_publ_author_name
;
Gauthier, G.;Guillen, F.;Jobic, S.;Deniard, P.;Macaudiere, 
P.;Fouassier, C.;Brec, R.
;
_cell_length_a                     6.5201(3)
_cell_length_b                     6.5982(3)
_cell_length_c                     8.6920(5)
_cell_angle_alpha                  90.
_cell_angle_beta                   107.701(3)
_cell_angle_gamma                  90.
_cell_volume                       356.23
_cell_formula_units_Z              2
_symmetry_space_group_name_H-M     'P 1 21 1'
_symmetry_Int_Tables_number        4
_refine_ls_R_factor_all            .034
loop_
_symmetry_equiv_pos_site_id
_symmetry_equiv_pos_as_xyz
  1	'-x, y+.5, -z'
  2	'x, y, z'
loop_
_atom_type_symbol
_atom_type_oxidation_number
Ce3+	3
K1+	1
S2-	-2
Si4+	4
loop_
_atom_site_label
_atom_site_type_symbol
_atom_site_symmetry_multiplicity
_atom_site_Wyckoff_symbol
_atom_site_fract_x
_atom_site_fract_y
_atom_site_fract_z
_atom_site_occupancy
_atom_site_attached_hydrogens
_atom_site_U_iso_or_equiv
Ce1 Ce3+ 2 a 0.2313(7) 0 0.5511(5) 1. 0 0.019(1) 
Si1 Si4+ 2 a 0.202(2) 0.477(8) 0.301(2) 1. 0 0.0257(9) 
K1 K1+ 2 a 0.287(2) 0.977(6) 0.059(2) 1. 0 0.025(6) 
S1 S2- 2 a 0.004(6) 0.256(5) 0.267(4) 1. 0 0.011(2) 
S2 S2- 2 a 0.014(6) 0.266(5) 0.750(4) 1. 0 0.011(2) 
S3 S2- 2 a 0.401(2) 0.535(4) 0.155(2) 1. 0 0.011(2) 
S4 S2- 2 a 0.600(2) 0.036(5) 0.436(2) 1. 0 0.011(2) 

#End of data_87946-ICSD


