data_412479-ICSD
#?2014 by Fachinformationszentrum Karlsruhe, and the U.S. Secretary of 
#Commerce on behalf of the United States.  All rights reserved.
_database_code_ICSD                412479
_audit_creation_date               2005/04/01
_chemical_name_systematic
;
Disilver Potassium Tetrathioniobate
;
_chemical_formula_structural       'Ag2 K (Nb Se4)'
_chemical_formula_sum              'Ag2 K1 Nb1 Se4'
_publ_section_title
;
Syntheses and crystal structures of new quaternary Ag-containing 
group 5 chalcogenides: K Ag2 M(V) Se4 and K3 Ag3 M(V)2 S8 (M(V) = Nb, 
Ta)
;
loop_
_citation_id
_citation_journal_abbrev
_citation_year
_citation_journal_volume
_citation_journal_issue
_citation_page_first
_citation_page_last
_citation_journal_id_ASTM
primary 'Bulletin of the Chemical Society of Japan' 2004 77 3 505 509 BCSJA8
_publ_author_name
;
Chen Wen Tong;Ma Hong Wei;Guo Guo Cong;Deng Lei;Zhou Guowei;Dong 
Zhenchao;Huang Jinshun
;
_cell_length_a                     7.7413(15)
_cell_length_b                     19.024(4)
_cell_length_c                     5.6935(11)
_cell_angle_alpha                  90.00
_cell_angle_beta                   90.00
_cell_angle_gamma                  90.00
_cell_volume                       838.48
_cell_formula_units_Z              4
_symmetry_space_group_name_H-M     'A m a 2'
_symmetry_Int_Tables_number        40
_refine_ls_R_factor_all            .0422
loop_
_symmetry_equiv_pos_site_id
_symmetry_equiv_pos_as_xyz
  1	'x+.5, -y, z'
  2	'-x+.5, y, z'
  3	'-x, -y, z'
  4	'x, y, z'
  5	'x+.5, -y+.5, z+.5'
  6	'-x+.5, y+.5, z+.5'
  7	'-x, -y+.5, z+.5'
  8	'x, y+.5, z+.5'
loop_
_atom_type_symbol
_atom_type_oxidation_number
Ag1+	1
K1+	1
Nb5+	5
Se2-	-2
loop_
_atom_site_label
_atom_site_type_symbol
_atom_site_symmetry_multiplicity
_atom_site_Wyckoff_symbol
_atom_site_fract_x
_atom_site_fract_y
_atom_site_fract_z
_atom_site_occupancy
_atom_site_attached_hydrogens
_atom_site_U_iso_or_equiv
Ag1 Ag1+ 4 b 0.2500 0.391315(11) -0.13601(5) 1 0 0.04006(6) 
Ag2 Ag1+ 4 a 0.0000 0.5000 0.41155(6) 1 0 0.04804(6) 
Nb1 Nb5+ 4 b 0.2500 0.389633(16) 0.38783(7) 1 0 0.05395(11) 
Se1 Se2- 4 b 0.2500 0.49598(2) 0.14412(11) 1 0 0.06696(15) 
Se2 Se2- 8 c -0.00575(6) 0.39100(2) 0.63572(12) 1 0 0.08089(14) 
Se3 Se2- 4 b 0.2500 0.28761(4) 0.1464(2) 1 0 0.1077(3) 
K1 K1+ 4 b 0.2500 0.18100(18) -0.3605(6) 1 0 0.1542(11) 

loop_
_atom_site_aniso_label
_atom_site_aniso_type_symbol
_atom_site_aniso_U_11
_atom_site_aniso_U_22
_atom_site_aniso_U_33
_atom_site_aniso_U_12
_atom_site_aniso_U_13
_atom_site_aniso_U_23
Ag1 Ag1+ 0.04009(10) 0.04049(10) 0.03960(10) 0.000 0.000 -0.00084(10)
Ag2 Ag1+ 0.04865(11) 0.04832(10) 0.04714(12) 0.00004(11) 0.000 0.000
Nb1 Nb5+ 0.05299(17) 0.05390(18) 0.0550(2) 0.000 0.000 0.00063(17)
Se1 Se2- 0.0633(2) 0.0669(2) 0.0707(3) 0.000 0.000 -0.0008(3)
Se2 Se2- 0.0795(2) 0.0829(2) 0.0803(3) 0.00134(17) -0.0032(3) -0.00170(19)
Se3 Se2- 0.1092(5) 0.1040(4) 0.1100(5) 0.000 0.000 -0.0002(5)
K1 K1+ 0.1436(16) 0.205(3) 0.1145(12) 0.000 0.000 -0.026(2)
#End of data_412479-ICSD


