data_157426-ICSD
#?2014 by Fachinformationszentrum Karlsruhe, and the U.S. Secretary of 
#Commerce on behalf of the United States.  All rights reserved.
_database_code_ICSD                157426
_audit_creation_date               2008/02/01
_chemical_name_systematic
;
Gadolinium Magnesium Pentakis(dioxoborate)
;
_chemical_formula_structural       'Gd Mg (B O2)5'
_chemical_formula_sum              'B5 Gd1 Mg1 O10'
_publ_section_title                'Structure of Gd Mg (B O2)5 crystal'
loop_
_citation_id
_citation_journal_abbrev
_citation_year
_citation_journal_volume
_citation_journal_issue
_citation_page_first
_citation_page_last
_citation_journal_id_ASTM
primary 'Jiegon Huaxue' 2006 25 6 709 713 JHUADF
_publ_author_name
;
Fan Junmei;Lin Zhoubin;Zhang Lizhen;Wang Guofu
;
_cell_length_a                     8.6230(17)
_cell_length_b                     7.5860(15)
_cell_length_c                     9.3777(19)
_cell_angle_alpha                  90.
_cell_angle_beta                   93.19(3)
_cell_angle_gamma                  90.
_cell_volume                       612.48
_cell_formula_units_Z              4
_symmetry_space_group_name_H-M     'P 1 21/n 1'
_symmetry_Int_Tables_number        14
_refine_ls_R_factor_all            .0135
loop_
_symmetry_equiv_pos_site_id
_symmetry_equiv_pos_as_xyz
  1	'-x+.5, y+.5, -z+.5'
  2	'-x, -y, -z'
  3	'x+.5, -y+.5, z+.5'
  4	'x, y, z'
loop_
_atom_type_symbol
_atom_type_oxidation_number
B3+	3
Gd3+	3
Mg2+	2
O2-	-2
loop_
_atom_site_label
_atom_site_type_symbol
_atom_site_symmetry_multiplicity
_atom_site_Wyckoff_symbol
_atom_site_fract_x
_atom_site_fract_y
_atom_site_fract_z
_atom_site_occupancy
_atom_site_attached_hydrogens
_atom_site_U_iso_or_equiv
Gd1 Gd3+ 4 e 0.8148(1) 0.3127(1) 0.7635(1) 1. 0 0.004(1) 
Mg1 Mg2+ 4 e 0.3958(1) 0.0901(1) 0.8747(1) 1. 0 0.005(1) 
B1 B3+ 4 e 0.2215(4) 0.4682(4) 0.9468(3) 1. 0 0.003(1) 
B2 B3+ 4 e 0.5669(4) 0.3117(4) 0.0872(3) 1. 0 0.003(1) 
B3 B3+ 4 e 0.4154(3) 0.4213(4) 0.7626(3) 1. 0 0.003(1) 
B4 B3+ 4 e 0.5164(4) 0.1724(4) 0.6076(3) 1. 0 0.004(1) 
B5 B3+ 4 e 0.8452(4) 0.0973(4) 0.0001(3) 1. 0 0.005(1) 
O1 O2- 4 e 0.5331(2) 0.2858(3) 0.7360(2) 1. 0 0.004(1) 
O2 O2- 4 e 0.5011(2) -0.1493(3) 0.9272(2) 1. 0 0.005(1) 
O3 O2- 4 e 0.4583(2) 0.2744(3) 0.4835(2) 1. 0 0.004(1) 
O4 O2- 4 e 0.3174(2) 0.3477(3) 0.8704(2) 1. 0 0.004(1) 
O5 O2- 4 e 0.4916(2) 0.5859(2) 0.8082(2) 1. 0 0.005(1) 
O6 O2- 4 e 0.4139(2) 0.0258(2) 0.6478(2) 1. 0 0.004(1) 
O7 O2- 4 e 0.6852(2) 0.3715(2) 0.0091(2) 1. 0 0.004(1) 
O8 O2- 4 e 0.1841(2) -0.0347(2) 0.8677(2) 1. 0 0.005(1) 
O9 O2- 4 e 0.7365(2) 0.5445(2) 0.6188(2) 1. 0 0.006(1) 
O10 O2- 4 e 0.6740(2) 0.1045(2) 0.5856(2) 1. 0 0.004(1) 

#End of data_157426-ICSD


