data_411509-ICSD
#?2014 by Fachinformationszentrum Karlsruhe, and the U.S. Secretary of 
#Commerce on behalf of the United States.  All rights reserved.
_database_code_ICSD                411509
_audit_creation_date               2003/10/01
_chemical_name_systematic
;
Strontium Catena-pentafluoroaluminate - Alpha'
;
_chemical_formula_structural       'Sr (Al F5)'
_chemical_formula_sum              'Al1 F5 Sr1'
_publ_section_title
;
New alkaline earth aluminium fluorides with the formula (M, M') Al F5 
(M, M' = Ca, Sr, Ba)
;
loop_
_citation_id
_citation_journal_abbrev
_citation_year
_citation_journal_volume
_citation_page_first
_citation_page_last
_citation_journal_id_ASTM
primary 'Solid State Sciences' 2001 3 441 453 SSSCFJ
_publ_author_name
;
Weil, M.;Zobetz, E.;Werner, F.;Kubel, F.
;
_cell_length_a                     8.9574(5)
_cell_length_b                     7.4614(4)
_cell_length_c                     10.7212(6)
_cell_angle_alpha                  90
_cell_angle_beta                   94.158(1)
_cell_angle_gamma                  90
_cell_volume                       714.66
_cell_formula_units_Z              8
_symmetry_space_group_name_H-M     'P 1 21/n 1'
_symmetry_Int_Tables_number        14
_refine_ls_R_factor_all            .02
loop_
_symmetry_equiv_pos_site_id
_symmetry_equiv_pos_as_xyz
  1	'-x+.5, y+.5, -z+.5'
  2	'-x, -y, -z'
  3	'x+.5, -y+.5, z+.5'
  4	'x, y, z'
loop_
_atom_type_symbol
_atom_type_oxidation_number
Al3+	3
F1-	-1
Sr2+	2
loop_
_atom_site_label
_atom_site_type_symbol
_atom_site_symmetry_multiplicity
_atom_site_Wyckoff_symbol
_atom_site_fract_x
_atom_site_fract_y
_atom_site_fract_z
_atom_site_occupancy
_atom_site_attached_hydrogens
_atom_site_U_iso_or_equiv
Sr1 Sr2+ 4 e 0.28107(2) 0.22030(3) 0.03776(2) 1. 0 0.01031(7) 
Sr2 Sr2+ 4 e 0.81704(2) 0.27890(3) 0.13923(2) 1. 0 0.01002(6) 
Al1 Al3+ 4 e 0.50930(8) 0.30219(10) 0.31324(7) 1. 0 0.00832(15) 
Al2 Al3+ 4 e 0.13511(8) 0.20395(10) 0.33537(7) 1. 0 0.00825(14) 
F1 F1- 4 e 0.33053(16) 0.1848(2) 0.28571(14) 1. 0 0.0173(3) 
F2 F1- 4 e 0.53743(16) 0.26869(19) 0.15179(13) 1. 0 0.0148(3) 
F3 F1- 4 e 0.09813(15) 0.33555(19) 0.19662(13) 1. 0 0.0123(3) 
F4 F1- 4 e 0.17981(16) 0.38853(18) 0.43732(13) 1. 0 0.0138(3) 
F5 F1- 4 e 0.94117(15) 0.21737(19) 0.36129(13) 1. 0 0.0142(3) 
F6 F1- 4 e 0.51026(16) 0.68183(19) 0.52413(13) 1. 0 0.0147(3) 
F7 F1- 4 e 0.62674(17) 0.10884(19) 0.34887(15) 1. 0 0.0172(3) 
F8 F1- 4 e 0.18525(16) 0.05088(19) 0.45733(13) 1. 0 0.0135(3) 
F9 F1- 4 e 0.09212(16) 0.00982(18) 0.22538(13) 1. 0 0.0125(3) 
F10 F1- 4 e 0.31914(15) 0.56395(19) 0.66802(13) 1. 0 0.0130(3) 

loop_
_atom_site_aniso_label
_atom_site_aniso_type_symbol
_atom_site_aniso_U_11
_atom_site_aniso_U_22
_atom_site_aniso_U_33
_atom_site_aniso_U_12
_atom_site_aniso_U_13
_atom_site_aniso_U_23
Sr1 Sr2+ 0.01122(12) 0.01081(12) 0.00871(11) -0.00032(8) -0.00050(8) 
-0.00013(8)
Sr2 Sr2+ 0.00968(11) 0.01042(12) 0.00986(11) 0.00025(8) 0.00011(8) 
-0.00017(8)
Al1 Al3+ 0.0070(3) 0.0093(4) 0.0086(3) 0.0000(3) 0.0001(3) 0.0000(3)
Al2 Al3+ 0.0082(3) 0.0093(4) 0.0072(3) 0.0000(3) 0.0003(3) -0.00003(3)
F1 F1- 0.0142(8) 0.0196(8) 0.0182(8) -0.0026(6) 0.0019(6) 0.0003(6)
F2 F1- 0.0112(7) 0.0225(8) 0.0107(7) -0.0006(6) 0.0018(6) -0.0027(6)
F3 F1- 0.0138(7) 0.0107(7) 0.0122(7) 0.0002(6) -0.0001(6) 0.0027(6)
F4 F1- 0.0172(7) 0.0107(7) 0.0122(7) -0.0011(6) -0.00121(6) -0.0021(6)
F5 F1- 0.0096(7) 0.0205(8) 0.0128(7) 0.0022(6) 0.0027(5) -0.0001(6)
F6 F1- 0.0159(7) 0.0191(8) 0.0089(7) -0.0004(6) 0.0005(6) -0.0005(6)
F7 F1- 0.0143(7) 0.0105(7) 0.0263(9) 0.0022(6) -0.0028(6) 0.0004(6)
F8 F1- 0.0172(8) 0.0113(8) 0.0118(7) 0.0010(6) -0.0004(6) 0.0014(5)
F9 F1- 0.0121(7) 0.0102(7) 0.0151(7) -0.0020(5) 0.0006(6) -0.0041(6)
F10 F1- 0.0110(7) 0.0135(7) 0.0143(7) -0.0014(6) -0.0009(6) 0.0003(6)
#End of data_411509-ICSD


