data_26839-ICSD
#?2014 by Fachinformationszentrum Karlsruhe, and the U.S. Secretary of 
#Commerce on behalf of the United States.  All rights reserved.
_database_code_ICSD                26839
_audit_creation_date               1980/01/01
_audit_update_record               2007/08/01
_chemical_name_systematic          'Dizinc Copper Bis(arsenate(V))'
_chemical_formula_structural       'Zn2 Cu (As O4)2'
_chemical_formula_sum              'As2 Cu1 O8 Zn2'
_chemical_name_mineral             Stranskiite
_publ_section_title
;
Die Struktur des Stranskiits Zn2 Cu (As O4)2
;
loop_
_citation_id
_citation_journal_abbrev
_citation_year
_citation_journal_volume
_citation_page_first
_citation_page_last
_citation_journal_id_ASTM
primary
;
Zeitschrift fuer Kristallographie, Kristallgeometrie, Kristallphysik, 
Kristallchemie (-144,1977)
;
 1967 124 91 100 ZEKGAX
2 Naturwissenschaften 1965 52 206 206 NATWAY
_publ_author_name                  'Plieth, K.;Saenger, G.'
_cell_length_a                     5.094(1)
_cell_length_b                     6.752(1)
_cell_length_c                     5.304(1)
_cell_angle_alpha                  111.0(1)
_cell_angle_beta                   112.5(1)
_cell_angle_gamma                  86.0(1)
_cell_volume                       156.87
_cell_formula_units_Z              1
_symmetry_space_group_name_H-M     'P -1'
_symmetry_Int_Tables_number        2
_refine_ls_R_factor_all            .115
loop_
_symmetry_equiv_pos_site_id
_symmetry_equiv_pos_as_xyz
  1	'-x, -y, -z'
  2	'x, y, z'
loop_
_atom_type_symbol
_atom_type_oxidation_number
As5+	5
Cu2+	2
O2-	-2
Zn2+	2
loop_
_atom_site_label
_atom_site_type_symbol
_atom_site_symmetry_multiplicity
_atom_site_Wyckoff_symbol
_atom_site_fract_x
_atom_site_fract_y
_atom_site_fract_z
_atom_site_occupancy
_atom_site_attached_hydrogens
_atom_site_B_iso_or_equiv
Cu1 Cu2+ 1 h 0.5 0.5 0.5 1. 0 1.6(1) 
Zn1 Zn2+ 2 i 0.2332(12) 0.1855(9) 0.7420(11) 1. 0 1.6(1) 
As1 As5+ 2 i 0.8607(9) 0.2785(6) 0.1360(8) 1. 0 1.6(1) 
O1 O2- 2 i 0.180(8) 0.342(5) 0.123(7) 1. 0 1.6(1) 
O2 O2- 2 i 0.892(8) 0.116(6) 0.339(7) 1. 0 1.6(1) 
O3 O2- 2 i 0.650(8) 0.163(6) 0.755(7) 1. 0 1.6(1) 
O4 O2- 2 i 0.748(9) 0.527(6) 0.283(8) 1. 0 1.6(1) 

#End of data_26839-ICSD


