data_65735-ICSD
#?2014 by Fachinformationszentrum Karlsruhe, and the U.S. Secretary of 
#Commerce on behalf of the United States.  All rights reserved.
_database_code_ICSD                65735
_audit_creation_date               1990/06/08
_chemical_name_systematic
;
Dicesium Lithium Indium Chloride - V-doped
;
_chemical_formula_structural       'Cs2 Li In Cl6'
_chemical_formula_sum              'Cl6 Cs2 In1 Li1'
_publ_section_title
;
Optical spectroscopic and structural properties of V3+ -doped 
fluoride, chloride, and bromide elpasolite lattices
;
loop_
_citation_id
_citation_journal_abbrev
_citation_year
_citation_journal_volume
_citation_page_first
_citation_page_last
_citation_journal_id_ASTM
primary 'Inorganic Chemistry' 1989 28 3249 3258 INOCAJ
_publ_author_name
;
Reber, C.;Guedel, H.U.;Meyer, G.;Schleid, T.;Daul, C.A.
;
_cell_length_a                     7.3184(4)
_cell_length_b                     7.3184(4)
_cell_length_c                     36.240(3)
_cell_angle_alpha                  90.
_cell_angle_beta                   90.
_cell_angle_gamma                  120.
_cell_volume                       1680.94
_cell_formula_units_Z              6
_symmetry_space_group_name_H-M     'R -3 m H'
_symmetry_Int_Tables_number        166
_refine_ls_R_factor_all            .041
loop_
_symmetry_equiv_pos_site_id
_symmetry_equiv_pos_as_xyz
  1	'x-y, -y, -z'
  2	'-x, -x+y, -z'
  3	'y, x, -z'
  4	'x-y, x, -z'
  5	'y, -x+y, -z'
  6	'-x, -y, -z'
  7	'-x+y, y, z'
  8	'x, x-y, z'
  9	'-y, -x, z'
 10	'-x+y, -x, z'
 11	'-y, x-y, z'
 12	'x, y, z'
 13	'x-y+.6666, -y+.3333, -z+.3333'
 14	'x-y+.3333, -y+.6666, -z+.6666'
 15	'-x+.6666, -x+y+.3333, -z+.3333'
 16	'-x+.3333, -x+y+.6666, -z+.6666'
 17	'y+.6666, x+.3333, -z+.3333'
 18	'y+.3333, x+.6666, -z+.6666'
 19	'x-y+.6666, x+.3333, -z+.3333'
 20	'x-y+.3333, x+.6666, -z+.6666'
 21	'y+.6666, -x+y+.3333, -z+.3333'
 22	'y+.3333, -x+y+.6666, -z+.6666'
 23	'-x+.6666, -y+.3333, -z+.3333'
 24	'-x+.3333, -y+.6666, -z+.6666'
 25	'-x+y+.6666, y+.3333, z+.3333'
 26	'-x+y+.3333, y+.6666, z+.6666'
 27	'x+.6666, x-y+.3333, z+.3333'
 28	'x+.3333, x-y+.6666, z+.6666'
 29	'-y+.6666, -x+.3333, z+.3333'
 30	'-y+.3333, -x+.6666, z+.6666'
 31	'-x+y+.6666, -x+.3333, z+.3333'
 32	'-x+y+.3333, -x+.6666, z+.6666'
 33	'-y+.6666, x-y+.3333, z+.3333'
 34	'-y+.3333, x-y+.6666, z+.6666'
 35	'x+.6666, y+.3333, z+.3333'
 36	'x+.3333, y+.6666, z+.6666'
loop_
_atom_type_symbol
_atom_type_oxidation_number
Cl1-	-1
Cs1+	1
In3+	3
Li1+	1
loop_
_atom_site_label
_atom_site_type_symbol
_atom_site_symmetry_multiplicity
_atom_site_Wyckoff_symbol
_atom_site_fract_x
_atom_site_fract_y
_atom_site_fract_z
_atom_site_occupancy
_atom_site_attached_hydrogens
Cs1 Cs1+ 6 c 0 0 0.12598(4) 1. 0 
Cs2 Cs1+ 6 c 0 0 0.28918(3) 1. 0 
Li1 Li1+ 6 c 0 0 0.4082(12) 1. 0 
In1 In3+ 3 a 0 0 0 1. 0 
In2 In3+ 3 b 0 0 0.5 1. 0 
Cl1 Cl1- 18 h 0.1600(2) -.1600(2) 0.45867(7) 1. 0 
Cl2 Cl1- 18 h 0.1710(2) -.1710(2) 0.62772(8) 1. 0 

loop_
_atom_site_aniso_label
_atom_site_aniso_type_symbol
_atom_site_aniso_U_11
_atom_site_aniso_U_22
_atom_site_aniso_U_33
_atom_site_aniso_U_12
_atom_site_aniso_U_13
_atom_site_aniso_U_23
Cs1 Cs1+ 0.0326(7) 0.0326(7) 0.0253(9) 0.0163(4) 0 0
Cs2 Cs1+ 0.0320(7) 0.0320(7) 0.0252(9) 0.0160(4) 0 0
Li1 Li1+ 0.031(12) 0.031(12) 0.045(21) 0.0150(61) 0 0
In1 In3+ 0.0200(7) 0.0200(7) 0.0087(10) 0.0100(4) 0 0
In2 In3+ 0.0242(8) 0.0242(8) 0.0101(10) 0.0141(5) 0 0
Cl1 Cl1- 0.0367(15) 0.0367(15) 0.0211(18) 0.0202(14) 0.0022(6) -.0022(6)
Cl2 Cl1- 0.0364(16) 0.0364(16) 0.0244(19) 0.0216(14) -.0040(6) 0.0040(6)
#End of data_65735-ICSD


