data_160296-ICSD
#?2014 by Fachinformationszentrum Karlsruhe, and the U.S. Secretary of 
#Commerce on behalf of the United States.  All rights reserved.
_database_code_ICSD                160296
_audit_creation_date               2008/08/01
_chemical_name_systematic          'Strontium Dialuminate'
_chemical_formula_structural       'Sr (Al2 O4)'
_chemical_formula_sum              'Al2 O4 Sr1'
_publ_section_title
;
Transitions between P21, P63(sqrt(3)A) and P6322 modifications of Sr 
Al2 O4 by in situ high-temperature X-ray and neutron diffraction
;
loop_
_citation_id
_citation_journal_abbrev
_citation_year
_citation_journal_volume
_citation_page_first
_citation_page_last
_citation_journal_id_ASTM
primary 'Journal of Solid State Chemistry' 2007 180 3535 3544 JSSCBI
_publ_author_name
;
Avdeev, M.;Yakovlev, S.;Yaremchenko, A.A.;Kharton, V.V.
;
_cell_length_a                     8.44365(9)
_cell_length_b                     8.82245(8)
_cell_length_c                     5.15964(6)
_cell_angle_alpha                  90.
_cell_angle_beta                   93.411(1)
_cell_angle_gamma                  90.
_cell_volume                       383.68
_cell_formula_units_Z              4
_symmetry_space_group_name_H-M     'P 1 21 1'
_symmetry_Int_Tables_number        4
_refine_ls_R_factor_all            .0269
loop_
_symmetry_equiv_pos_site_id
_symmetry_equiv_pos_as_xyz
  1	'-x, y+.5, -z'
  2	'x, y, z'
loop_
_atom_type_symbol
_atom_type_oxidation_number
Al3+	3
O2-	-2
Sr2+	2
loop_
_atom_site_label
_atom_site_type_symbol
_atom_site_symmetry_multiplicity
_atom_site_Wyckoff_symbol
_atom_site_fract_x
_atom_site_fract_y
_atom_site_fract_z
_atom_site_occupancy
_atom_site_attached_hydrogens
_atom_site_U_iso_or_equiv
Sr1 Sr2+ 2 a 0.4946(4) 0 0.2514(7) 1. 0 0.0065(8) 
Sr2 Sr2+ 2 a 0.0315(5) 0.9922(8) 0.2024(6) 1. 0 0.0104(8) 
Al1 Al3+ 2 a 0.1914(11) 0.8299(11) 0.7175(15) 1. 0 0.016(2) 
Al2 Al3+ 2 a 0.8036(10) 0.8361(11) 0.7349(15) 1. 0 0.004(2) 
Al3 Al3+ 2 a 0.7082(10) 0.6680(11) 0.2239(14) 1. 0 0.003(2) 
Al4 Al3+ 2 a 0.6787(9) 0.1678(11) 0.8005(16) 1. 0 0.007(2) 
O1 O2- 2 a 0.2659(6) 0.1688(8) 0.4364(11) 1. 0 0.0094(15) 
O2 O2- 2 a 0.7313(6) 0.3145(8) 0.5873(7) 1. 0 0.0046(12) 
O3 O2- 2 a 0.3262(5) 0.4876(9) 0.3480(8) 1. 0 0.0097(10) 
O4 O2- 2 a 0.2674(5) 0.9826(9) 0.9008(8) 1. 0 0.0091(9) 
O5 O2- 2 a 0.1728(6) 0.2949(7) 0.9348(12) 1. 0 0.0096(14) 
O6 O2- 2 a 0.2046(6) 0.66512(7) 0.9064(9) 1. 0 0.0078(13) 
O7 O2- 2 a 0.4882(6) 0.2135(7) 0.8788(10) 1. 0 0.0137(15) 
O8 O2- 2 a 0.9919(6) 0.8863(7) 0.6514(10) 1. 0 0.0168(15) 

#End of data_160296-ICSD


