data_410194-ICSD
#?2014 by Fachinformationszentrum Karlsruhe, and the U.S. Secretary of 
#Commerce on behalf of the United States.  All rights reserved.
_database_code_ICSD                410194
_audit_creation_date               2001/07/16
_chemical_name_systematic          'Barium Tetrachlorozincate'
_chemical_formula_structural       'Ba (Zn Cl4)'
_chemical_formula_sum              'Ba1 Cl4 Zn1'
_publ_section_title
;
Synthese und Kristallstrukturen der Tetrachlorozinkate Sr Zn Cl4 und 
Ba Zn Cl4
;
loop_
_citation_id
_citation_journal_abbrev
_citation_year
_citation_journal_volume
_citation_page_first
_citation_page_last
_citation_journal_id_ASTM
primary 'Zeitschrift fuer Anorganische und Allgemeine Chemie (1950) (DE)'
 1999 625 507 510 ZAACAB
_publ_author_name
;
Wickleder, C.;Masselmann, S.;Meyer, G.
;
_cell_length_a                     7.2531(7)
_cell_length_b                     9.8324(12)
_cell_length_c                     9.4922(9)
_cell_angle_alpha                  90.
_cell_angle_beta                   90.
_cell_angle_gamma                  90.
_cell_volume                       676.94
_cell_formula_units_Z              4
_symmetry_space_group_name_H-M     'P n n a'
_symmetry_Int_Tables_number        52
_refine_ls_R_factor_all            .0158
loop_
_symmetry_equiv_pos_site_id
_symmetry_equiv_pos_as_xyz
  1	'x+.5, -y+.5, z+.5'
  2	'-x, y+.5, z+.5'
  3	'x+.5, y, -z'
  4	'-x, -y, -z'
  5	'-x+.5, y+.5, -z+.5'
  6	'x, -y+.5, -z+.5'
  7	'-x+.5, -y, z'
  8	'x, y, z'
loop_
_atom_type_symbol
_atom_type_oxidation_number
Ba2+	2
Cl1-	-1
Zn2+	2
loop_
_atom_site_label
_atom_site_type_symbol
_atom_site_symmetry_multiplicity
_atom_site_Wyckoff_symbol
_atom_site_fract_x
_atom_site_fract_y
_atom_site_fract_z
_atom_site_occupancy
_atom_site_attached_hydrogens
Ba1 Ba2+ 4 d 0.18124(3) 0.25 0.25 1. 0 
Zn1 Zn2+ 4 c -.25 0.5 0.32169(4) 1. 0 
Cl1 Cl1- 8 e -.16271(9) 0.31494(7) 0.44833(6) 1. 0 
Cl2 Cl1- 8 e 0.00569(9) -.03776(6) 0.31246(6) 1. 0 

loop_
_atom_site_aniso_label
_atom_site_aniso_type_symbol
_atom_site_aniso_U_11
_atom_site_aniso_U_22
_atom_site_aniso_U_33
_atom_site_aniso_U_12
_atom_site_aniso_U_13
_atom_site_aniso_U_23
Ba1 Ba2+ 0.0079(2) 0.00813(15) 0.00974(13) 0 0 -.00152(7)
Zn1 Zn2+ 0.0085(3) 0.0124(2) 0.0116(2) 0.0018(2) 0 0
Cl1 Cl1- 0.0138(4) 0.0193(3) 0.0134(3) 0.0051(3) 0.0043(3) 0.0064(3)
Cl2 Cl1- 0.0095(4) 0.0116(3) 0.0157(3) 0.0015(3) -.0019(2) 0.0012(2)
#End of data_410194-ICSD


