data_245078-ICSD
#?2014 by Fachinformationszentrum Karlsruhe, and the U.S. Secretary of 
#Commerce on behalf of the United States.  All rights reserved.
_database_code_ICSD                245078
_audit_creation_date               2007/08/01
_chemical_name_systematic          'Dicalcium Silicate'
_chemical_formula_structural       'Ca2 (Si O4)'
_chemical_formula_sum              'Ca2 O4 Si1'
_publ_section_title
;
Charge states of Ca atoms in beta-dicalcium silicate
;
loop_
_citation_id
_citation_journal_abbrev
_citation_year
_citation_journal_volume
_citation_journal_issue
_citation_page_first
_citation_page_last
_citation_journal_id_ASTM
primary 'Journal of Solid State Chemistry' 2006 179 11 3286 3294 JSSCBI
_publ_author_name
;
Mori, K.;Kiyanagi, R.;Yonemura, M.;Iwase, K.;Sato, T.;Itoh, 
K.;Sugiyama, M.;Kamiyama, T.;Fukunaga, T.
;
_cell_length_a                     5.52794(6)
_cell_length_b                     6.77878(7)
_cell_length_c                     9.36312(11)
_cell_angle_alpha                  90
_cell_angle_beta                   93.952(1)
_cell_angle_gamma                  90
_cell_volume                       350.03
_cell_formula_units_Z              4
_symmetry_space_group_name_H-M     'P 1 21/n 1'
_symmetry_Int_Tables_number        14
_refine_ls_R_factor_all            .0394
loop_
_symmetry_equiv_pos_site_id
_symmetry_equiv_pos_as_xyz
  1	'-x+.5, y+.5, -z+.5'
  2	'-x, -y, -z'
  3	'x+.5, -y+.5, z+.5'
  4	'x, y, z'
loop_
_atom_type_symbol
_atom_type_oxidation_number
Ca2+	2
O2-	-2
Si4+	4
loop_
_atom_site_label
_atom_site_type_symbol
_atom_site_symmetry_multiplicity
_atom_site_Wyckoff_symbol
_atom_site_fract_x
_atom_site_fract_y
_atom_site_fract_z
_atom_site_occupancy
_atom_site_attached_hydrogens
_atom_site_B_iso_or_equiv
Ca1 Ca2+ 4 e 0.22922(34) 0.33906(30) 0.42927(24) 1. 0 1.756(55) 
Ca2 Ca2+ 4 e 0.22423(38) 0.99628(35) 0.70234(23) 1. 0 1.849(60) 
Si1 Si4+ 4 e 0.26421(39) 0.78248(25) 0.41757(23) 1. 0 0.910(55) 
O1 O2- 4 e 0.21908(30) 0.01131(24) 0.43968(19) 1. 0 2.113(59) 
O2 O2- 4 e 0.48050(33) 0.74660(27) 0.30938(20) 1. 0 2.047(51) 
O3 O2- 4 e 0.01564(29) 0.66999(29) 0.36124(20) 1. 0 2.159(54) 
O4 O2- 4 e 0.33960(29) 0.67286(30) 0.57230(16) 1. 0 2.102(56) 

#End of data_245078-ICSD


