data_35660-ICSD
#?2014 by Fachinformationszentrum Karlsruhe, and the U.S. Secretary of 
#Commerce on behalf of the United States.  All rights reserved.
_database_code_ICSD                35660
_audit_creation_date               1983/12/31
_audit_update_record               2011/02/01
_chemical_name_systematic          'Dirubidium Tetrachlorozincate'
_chemical_formula_structural       'Rb2 (Zn Cl4)'
_chemical_formula_sum              'Cl4 Rb2 Zn1'
_publ_section_title
;
Neutron structural study of the successive phase transitions in Rb2 
Zn Cl4
;
loop_
_citation_id
_citation_journal_abbrev
_citation_year
_citation_journal_volume
_citation_page_first
_citation_page_last
_citation_journal_id_ASTM
primary 'Acta Crystallographica, Section B: Structural Science'
 1983 39 657 663 ASBSDK
2 'Phase Transition' 1992 38 127 220 PHTRDP
_publ_author_name                  'Quilichini, M.;Pannetier, J.'
_cell_length_a                     9.233(4)
_cell_length_b                     7.278(5)
_cell_length_c                     12.736(8)
_cell_angle_alpha                  90.
_cell_angle_beta                   90.
_cell_angle_gamma                  90.
_cell_volume                       855.83
_cell_formula_units_Z              4
_symmetry_space_group_name_H-M     'P n 21 a'
_symmetry_Int_Tables_number        33
_refine_ls_R_factor_all            .066
loop_
_symmetry_equiv_pos_site_id
_symmetry_equiv_pos_as_xyz
  1	'x+.5, y, -z+.5'
  2	'-x+.5, y+.5, z+.5'
  3	'-x, y+.5, -z'
  4	'x, y, z'
loop_
_atom_type_symbol
_atom_type_oxidation_number
Cl1-	-1
Rb1+	1
Zn2+	2
loop_
_atom_site_label
_atom_site_type_symbol
_atom_site_symmetry_multiplicity
_atom_site_Wyckoff_symbol
_atom_site_fract_x
_atom_site_fract_y
_atom_site_fract_z
_atom_site_occupancy
_atom_site_attached_hydrogens
Rb1 Rb1+ 4 a 0.6316(3) 0.25 0.4073(3) 1. 0 
Rb2 Rb1+ 4 a 0.4851(2) 0.25 0.8195(2) 1. 0 
Zn1 Zn2+ 4 a 0.2246(2) 0.25 0.4223(2) 1. 0 
Cl1 Cl1- 4 a 0.9840(2) 0.2778(21) 0.4174(2) 1. 0 
Cl2 Cl1- 4 a 0.3186(2) 0.2790(24) 0.5855(1) 1. 0 
Cl3 Cl1- 4 a 0.3236(9) 0.9888(13) 0.3565(7) 1. 0 
Cl4 Cl1- 4 a 0.3050(11) 0.4844(12) 0.3250(7) 1. 0 

loop_
_atom_site_aniso_label
_atom_site_aniso_type_symbol
_atom_site_aniso_U_11
_atom_site_aniso_U_22
_atom_site_aniso_U_33
_atom_site_aniso_U_12
_atom_site_aniso_U_13
_atom_site_aniso_U_23
Rb1 Rb1+ 0.0269(12) 0.0691(17) 0.0937(24) 0 -0.0050(11) 0
Rb2 Rb1+ 0.0237(9) 0.0630(14) 0.0276(12) 0 -0.0022(7) 0
Zn1 Zn2+ 0.0198(10) 0.0334(12) 0.0197(11) 0 -0.0006(8) 0
Cl1 Cl1- 0.0167(9) 0.0901(87) 0.0487(12) 0 -0.0064(7) 0
Cl2 Cl1- 0.0299(10) 0.1025(91) 0.0247(10) 0 -0.0102(7) 0
Cl3 Cl1- 0.0354(19) 0.0357(24) 0.0658(42) -0.0136(21) 0.0134(23) 0.0011(14)
Cl4 Cl1- 0.0617(37) 0.0402(33) 0.0747(50) 0.0267(32) 0.0177(31) 0.0035(22)
#End of data_35660-ICSD


