data_202748-ICSD
#?2014 by Fachinformationszentrum Karlsruhe, and the U.S. Secretary of 
#Commerce on behalf of the United States.  All rights reserved.
_database_code_ICSD                202748
_audit_creation_date               1989/12/04
_audit_update_record               2013/02/01
_chemical_name_systematic          'Lithium Antimony(V) Tungstate'
_chemical_formula_structural       'Li Sb W O6'
_chemical_formula_sum              'Li1 O6 Sb1 W1'
_publ_section_title
;
Ab-initio structure determination of Li Sb W O6 by X-ray powder 
diffraction
;
loop_
_citation_id
_citation_journal_abbrev
_citation_year
_citation_journal_volume
_citation_page_first
_citation_page_last
_citation_journal_id_ASTM
primary 'Materials Research Bulletin' 1988 23 447 452 MRBUAC
_publ_author_name
;
Le Bail, A.;Duroy, H.;Fourquet, J.L.
;
_cell_length_a                     4.6664(1)
_cell_length_b                     17.4435(5)
_cell_length_c                     4.9941(2)
_cell_angle_alpha                  90.
_cell_angle_beta                   90.
_cell_angle_gamma                  90.
_cell_volume                       406.51
_cell_formula_units_Z              4
_symmetry_space_group_name_H-M     'P b c n'
_symmetry_Int_Tables_number        60
_refine_ls_R_factor_all            .0516
loop_
_symmetry_equiv_pos_site_id
_symmetry_equiv_pos_as_xyz
  1	'x, -y, z+.5'
  2	'-x+.5, y+.5, z'
  3	'x+.5, y+.5, -z+.5'
  4	'-x, -y, -z'
  5	'-x, y, -z+.5'
  6	'x+.5, -y+.5, -z'
  7	'-x+.5, -y+.5, z+.5'
  8	'x, y, z'
loop_
_atom_type_symbol
_atom_type_oxidation_number
Li1+	1
O2-	-2
Sb5+	5
W6+	6
loop_
_atom_site_label
_atom_site_type_symbol
_atom_site_symmetry_multiplicity
_atom_site_Wyckoff_symbol
_atom_site_fract_x
_atom_site_fract_y
_atom_site_fract_z
_atom_site_occupancy
_atom_site_attached_hydrogens
_atom_site_B_iso_or_equiv
Li1 Li1+ 4 c 0 0.0569(14) 0.25 1. 0 0.4 
Sb1 Sb5+ 4 c 0 0.7184(1) 0.25 1. 0 0.10(2) 
W1 W6+ 4 c 0 0.3980(1) 0.25 1. 0 0.10(1) 
O1 O2- 8 d 0.2146(14) 0.3652(5) 0.5684(14) 1. 0 0.88(8) 
O2 O2- 8 d 0.2379(11) 0.0413(5) 0.6065(14) 1. 0 0.88(8) 
O3 O2- 8 d 0.2562(16) 0.2069(5) 0.5755(14) 1. 0 0.88(8) 

#End of data_202748-ICSD


