data_95784-ICSD
#?2014 by Fachinformationszentrum Karlsruhe, and the U.S. Secretary of 
#Commerce on behalf of the United States.  All rights reserved.
_database_code_ICSD                95784
_audit_creation_date               2004/04/01
_chemical_name_systematic          'Trizinc Bis(tetrathiophosphate(V))'
_chemical_formula_structural       'Zn3 (P S4)2'
_chemical_formula_sum              'P2 S8 Zn3'
_publ_section_title
;
Motive dichtester Kugelpackungen: die Verbindungen Zn3 (P S4)2 und Li 
Zn P S4
;
loop_
_citation_id
_citation_journal_abbrev
_citation_year
_citation_journal_volume
_citation_page_first
_citation_page_last
_citation_journal_id_ASTM
primary 'Zeitschrift fuer Anorganische und Allgemeine Chemie (1950) (DE)'
 2002 628 1765 1769 ZAACAB
_publ_author_name
;
Joergens, S.;Johrendt, D.;Mewis, A.
;
_cell_length_a                     7.823(1)
_cell_length_b                     7.823(1)
_cell_length_c                     9.053(1)
_cell_angle_alpha                  90
_cell_angle_beta                   90
_cell_angle_gamma                  90
_cell_volume                       554.04
_cell_formula_units_Z              2
_symmetry_space_group_name_H-M     'P -4 n 2'
_symmetry_Int_Tables_number        118
_refine_ls_R_factor_all            .02
loop_
_symmetry_equiv_pos_site_id
_symmetry_equiv_pos_as_xyz
  1	'-y+.5, -x+.5, -z+.5'
  2	'y, -x, -z'
  3	'x+.5, -y+.5, z+.5'
  4	'-x, -y, z'
  5	'y+.5, x+.5, -z+.5'
  6	'-y, x, -z'
  7	'-x+.5, y+.5, z+.5'
  8	'x, y, z'
loop_
_atom_type_symbol
_atom_type_oxidation_number
P5+	5
S2-	-2
Zn2+	2
loop_
_atom_site_label
_atom_site_type_symbol
_atom_site_symmetry_multiplicity
_atom_site_Wyckoff_symbol
_atom_site_fract_x
_atom_site_fract_y
_atom_site_fract_z
_atom_site_occupancy
_atom_site_attached_hydrogens
_atom_site_U_iso_or_equiv
Zn1 Zn2+ 2 b 0 0 0.5 1. 0 0.0119(1) 
Zn2 Zn2+ 4 h 0 0.5 0.98094(5) 1. 0 0.0134(1) 
P1 P5+ 4 g 0.25539(6) 0.75539(6) 0.250 1. 0 0.0086(1) 
S1 S2- 8 i 0.76603(6) 0.03249(7) 0.12599(6) 1. 0 0.0142(1) 
S2 S2- 8 i 0.75296(5) 0.47841(6) 0.13849(6) 1. 0 0.0102(1) 

#End of data_95784-ICSD


