data_66265-ICSD
#?2014 by Fachinformationszentrum Karlsruhe, and the U.S. Secretary of 
#Commerce on behalf of the United States.  All rights reserved.
_database_code_ICSD                66265
_audit_creation_date               1992/08/20
_audit_update_record               2010/08/01
_chemical_name_systematic
;
Heptapotassium Niobium Hexakis(sulfate(VI))
;
_chemical_formula_structural       'K7 Nb (S O4)6'
_chemical_formula_sum              'K7 Nb1 O24 S6'
_publ_section_title
;
The crystal structure of K7 Nb (S O4)6 and K7 Ta (S O4) 6
;
loop_
_citation_id
_citation_journal_abbrev
_citation_year
_citation_journal_volume
_citation_page_first
_citation_page_last
_citation_journal_id_ASTM
primary 'Acta Chemica Scandinavica (43,1989-)' 1990 44 328 331 ACHSE7
_publ_author_name                  'Borup, F.;Berg, R.W.;Nielson, K.'
_cell_length_a                     15.106(7)
_cell_length_b                     15.106(7)
_cell_length_c                     9.254(8)
_cell_angle_alpha                  90.
_cell_angle_beta                   90.
_cell_angle_gamma                  120.
_cell_volume                       1828.77
_cell_formula_units_Z              3
_symmetry_space_group_name_H-M     'R -3 H'
_symmetry_Int_Tables_number        148
_refine_ls_R_factor_all            .035
loop_
_symmetry_equiv_pos_site_id
_symmetry_equiv_pos_as_xyz
  1	'x-y, x, -z'
  2	'y, -x+y, -z'
  3	'-x, -y, -z'
  4	'-x+y, -x, z'
  5	'-y, x-y, z'
  6	'x, y, z'
  7	'x-y+.6666, x+.3333, -z+.3333'
  8	'x-y+.3333, x+.6666, -z+.6666'
  9	'y+.6666, -x+y+.3333, -z+.3333'
 10	'y+.3333, -x+y+.6666, -z+.6666'
 11	'-x+.6666, -y+.3333, -z+.3333'
 12	'-x+.3333, -y+.6666, -z+.6666'
 13	'-x+y+.6666, -x+.3333, z+.3333'
 14	'-x+y+.3333, -x+.6666, z+.6666'
 15	'-y+.6666, x-y+.3333, z+.3333'
 16	'-y+.3333, x-y+.6666, z+.6666'
 17	'x+.6666, y+.3333, z+.3333'
 18	'x+.3333, y+.6666, z+.6666'
loop_
_atom_type_symbol
_atom_type_oxidation_number
K1+	1
Nb5+	5
O2-	-2
S6+	6
loop_
_atom_site_label
_atom_site_type_symbol
_atom_site_symmetry_multiplicity
_atom_site_Wyckoff_symbol
_atom_site_fract_x
_atom_site_fract_y
_atom_site_fract_z
_atom_site_occupancy
_atom_site_attached_hydrogens
_atom_site_B_iso_or_equiv
Nb1 Nb5+ 3 a 0 0 0 1. 0 1.03(1) 
K1 K1+ 18 f 0.06175(6) 0.28028(5) -.37942(7) 1. 0 3.39(4) 
K2 K1+ 3 b 0 0 0.5 1. 0 3.39(3) 
S1 S6+ 18 f -.15833(3) 0.03353(3) -.22276(4) 1. 0 1.53(1) 
O1 O2- 18 f -.0051(2) 0.1530(2) 0.3648(2) 1. 0 2.35(5) 
O2 O2- 18 f 0.0144(1) -.0981(1) -.1211(2) 1. 0 3.65(7) 
O3 O2- 18 f -.1910(2) -.4313(2) -.4516(3) 1. 0 5.49(13) 
O4 O2- 18 f -.3348(3) -.4086(2) -.4957(3) 1. 0 5.67(13) 

#End of data_66265-ICSD


