data_62038-ICSD
#?2014 by Fachinformationszentrum Karlsruhe, and the U.S. Secretary of 
#Commerce on behalf of the United States.  All rights reserved.
_database_code_ICSD                62038
_audit_creation_date               1988/02/22
_audit_update_record               2010/08/01
_chemical_name_systematic
;
Dicadmium(I) Bis(tetrachloroaluminate)
;
_chemical_formula_structural       'Cd2 (Al Cl4)2'
_chemical_formula_sum              'Al2 Cd2 Cl8'
_publ_section_title
;
Synthesis and crystal structures of Cd (Al Cl4)2 and Cd2 (Al Cl4)2
;
loop_
_citation_id
_citation_journal_abbrev
_citation_year
_citation_journal_volume
_citation_page_first
_citation_page_last
_citation_journal_id_ASTM
primary 'Zeitschrift fuer Anorganische und Allgemeine Chemie (1950) (DE)'
 1987 548 45 54 ZAACAB
_publ_author_name                  'Staffel, T.;Meyer, G.'
_cell_length_a                     6.444(1)
_cell_length_b                     11.3526(1)
_cell_length_c                     9.3523(6)
_cell_angle_alpha                  89.70(2)
_cell_angle_beta                   103.61(1)
_cell_angle_gamma                  90.455(1)
_cell_volume                       664.94
_cell_formula_units_Z              2
_symmetry_space_group_name_H-M     'C -1'
_symmetry_Int_Tables_number        2
_refine_ls_R_factor_all            .096
loop_
_symmetry_equiv_pos_site_id
_symmetry_equiv_pos_as_xyz
  1	'-x, -y, -z'
  2	'x, y, z'
  3	'-x+.5, -y+.5, -z'
  4	'x+.5, y+.5, z'
loop_
_atom_type_symbol
_atom_type_oxidation_number
Al3+	3
Cd1+	1
Cl1-	-1
loop_
_atom_site_label
_atom_site_type_symbol
_atom_site_symmetry_multiplicity
_atom_site_Wyckoff_symbol
_atom_site_fract_x
_atom_site_fract_y
_atom_site_fract_z
_atom_site_occupancy
_atom_site_attached_hydrogens
Cd1 Cd1+ 4 i 0.2990(3) 0.2540(2) 0.6408(2) 1. 0 
Al1 Al3+ 4 i 0.6657(11) 0.0839(7) 0.2615(8) 1. 0 
Cl1 Cl1- 4 i 0.4900(9) 0.0774(5) 0.8213(7) 1. 0 
Cl2 Cl1- 4 i 0.5593(9) 0.4000(5) 0.8274(7) 1. 0 
Cl3 Cl1- 4 i 0.7507(10) 0.0838(6) 0.4906(7) 1. 0 
Cl4 Cl1- 4 i 0.0399(9) 0.2715(5) 0.8242(6) 1. 0 

loop_
_atom_site_aniso_label
_atom_site_aniso_type_symbol
_atom_site_aniso_U_11
_atom_site_aniso_U_22
_atom_site_aniso_U_33
_atom_site_aniso_U_12
_atom_site_aniso_U_13
_atom_site_aniso_U_23
Cd1 Cd1+ 0.0571(17) 0.0542(15) 0.0447(14) 0.0011(12) 0.0141(11) 0.0008(11)
Al1 Al3+ 0.0244(44) 0.0333(47) 0.0492(53) 0.0011(35) 0.0114(38) 0.0039(40)
Cl1 Cl1- 0.0426(42) 0.0322(38) 0.0555(45) -.0090(32) 0.0075(35) -.0024(34)
Cl2 Cl1- 0.0310(38) 0.0478(41) 0.0589(46) -.0083(32) 0.0175(34) -.0135(36)
Cl3 Cl1- 0.0436(42) 0.0428(40) 0.0519(44) -.0022(33) 0.0143(36) -.0049(37)
Cl4 Cl1- 0.0512(43) 0.0423(41) 0.0470(43) 0.0151(34) 0.0242(35) 0.0093(35)
#End of data_62038-ICSD


