data_65117-ICSD
#?2014 by Fachinformationszentrum Karlsruhe, and the U.S. Secretary of 
#Commerce on behalf of the United States.  All rights reserved.
_database_code_ICSD                65117
_audit_creation_date               1989/06/19
_audit_update_record               2005/10/01
_chemical_name_systematic
;
Dipotassium Hexabromotellurate(IV) - Phase Ii
;
_chemical_formula_structural       'K2 (Te Br6)'
_chemical_formula_sum              'Br6 K2 Te1'
_publ_section_title
;
Structural and thermal dependence of normal-mode condensations in K2 
Te Br6
;
loop_
_citation_id
_citation_journal_abbrev
_citation_year
_citation_journal_volume
_citation_page_first
_citation_page_last
_citation_journal_id_ASTM
primary 'Acta Crystallographica, Section B: Structural Science'
 1989 45 26 34 ASBSDK
_publ_author_name
;
Abrahams, S.C.;Ihringer, J.;Marsh, P.
;
_cell_length_a                     7.5755(10)
_cell_length_b                     7.5755(10)
_cell_length_c                     10.7702(22)
_cell_angle_alpha                  90.
_cell_angle_beta                   90.
_cell_angle_gamma                  90.
_cell_volume                       618.08
_cell_formula_units_Z              2
_symmetry_space_group_name_H-M     'P 4/m n c'
_symmetry_Int_Tables_number        128
_refine_ls_R_factor_all            .0422
loop_
_symmetry_equiv_pos_site_id
_symmetry_equiv_pos_as_xyz
  1	'y+.5, x+.5, -z+.5'
  2	'-y+.5, -x+.5, -z+.5'
  3	'-y, x, -z'
  4	'y, -x, -z'
  5	'x+.5, -y+.5, -z+.5'
  6	'-x+.5, y+.5, -z+.5'
  7	'x, y, -z'
  8	'-x, -y, -z'
  9	'-y+.5, -x+.5, z+.5'
 10	'y+.5, x+.5, z+.5'
 11	'y, -x, z'
 12	'-y, x, z'
 13	'-x+.5, y+.5, z+.5'
 14	'x+.5, -y+.5, z+.5'
 15	'-x, -y, z'
 16	'x, y, z'
loop_
_atom_type_symbol
_atom_type_oxidation_number
Br1-	-1
K1+	1
Te4+	4
loop_
_atom_site_label
_atom_site_type_symbol
_atom_site_symmetry_multiplicity
_atom_site_Wyckoff_symbol
_atom_site_fract_x
_atom_site_fract_y
_atom_site_fract_z
_atom_site_occupancy
_atom_site_attached_hydrogens
Te1 Te4+ 2 a 0 0 0 1. 0 
Br1 Br1- 4 e 0 0 0.2474(2) 1. 0 
Br2 Br1- 8 h 0.2691(5) -.2262(4) 0 1. 0 
K1 K1+ 4 d 0 0.5 0.25 1. 0 

#End of data_65117-ICSD


