data_40530-ICSD
#?2014 by Fachinformationszentrum Karlsruhe, and the U.S. Secretary of 
#Commerce on behalf of the United States.  All rights reserved.
_database_code_ICSD                40530
_audit_creation_date               1999/11/30
_audit_update_record               2007/08/01
_chemical_name_systematic          'Barium Tecto-dialumodisilicate'
_chemical_formula_structural       'Ba (Al2 Si2 O8)'
_chemical_formula_sum              'Al2 Ba1 O8 Si2'
_chemical_name_mineral             Paracelsian
_publ_section_title
;
Two independent refinements of the structure of paracelsian
;
loop_
_citation_id
_citation_journal_abbrev
_citation_year
_citation_journal_volume
_citation_page_first
_citation_page_last
_citation_journal_id_ASTM
primary 'American Mineralogist' 1985 70 969 974 AMMIAY
_publ_author_name
;
Chiari, G.;Gazzoni, G.;Craig, J.R.;Gibbs, G.V.;Louisnathan, S.J.
;
_cell_length_a                     9.072(2)
_cell_length_b                     9.588(2)
_cell_length_c                     8.577(2)
_cell_angle_alpha                  90.
_cell_angle_beta                   90.21(2)
_cell_angle_gamma                  90.
_cell_volume                       746.04
_cell_formula_units_Z              4
_symmetry_space_group_name_H-M     'P 1 21/a 1'
_symmetry_Int_Tables_number        14
_refine_ls_R_factor_all            .0347
loop_
_symmetry_equiv_pos_site_id
_symmetry_equiv_pos_as_xyz
  1	'x+.5, -y+.5, z'
  2	'-x, -y, -z'
  3	'-x+.5, y+.5, -z'
  4	'x, y, z'
loop_
_atom_type_symbol
_atom_type_oxidation_number
Al3+	3
Ba2+	2
O2-	-2
Si4+	4
loop_
_atom_site_label
_atom_site_type_symbol
_atom_site_symmetry_multiplicity
_atom_site_Wyckoff_symbol
_atom_site_fract_x
_atom_site_fract_y
_atom_site_fract_z
_atom_site_occupancy
_atom_site_attached_hydrogens
_atom_site_U_iso_or_equiv
Ba1 Ba2+ 4 e 0.89778(2) 0.41169(1) 0.25051(2) 1. 0 0.008 
Si1 Si4+ 4 e 0.06737(7) 0.19879(7) 0.93951(8) 1. 0 0.005 
Si2 Si4+ 4 e 0.23099(7) 0.91692(7) 0.56341(8) 1. 0 0.006 
Al1 Al3+ 4 e 0.06389(8) 0.19453(8) 0.57128(8) 1. 0 0.005 
Al2 Al3+ 4 e 0.22539(8) 0.92092(8) 0.93134(8) 1. 0 0.005 
O1 O2- 4 e 0.1953(2) 0.0886(2) 0.9985(2) 1. 0 0.01 
O2 O2- 4 e 0.1935(2) 0.0737(2) 0.5044(2) 1. 0 0.01 
O3 O2- 4 e 0.1285(2) 0.3604(2) 0.9569(2) 1. 0 0.008 
O4 O2- 4 e 0.1313(2) 0.3632(2) 0.5450(2) 1. 0 0.008 
O5 O2- 4 e 0.9273(2) 0.1850(2) 0.0575(2) 1. 0 0.01 
O6 O2- 4 e 0.9117(2) 0.1852(2) 0.4494(2) 1. 0 0.01 
O7 O2- 4 e 0.0192(2) 0.1666(2) 0.7632(2) 1. 0 0.013 
O8 O2- 4 e 0.2936(2) 0.9107(2) 0.7422(2) 1. 0 0.011 

#End of data_40530-ICSD


