data_89457-ICSD
#?2014 by Fachinformationszentrum Karlsruhe, and the U.S. Secretary of 
#Commerce on behalf of the United States.  All rights reserved.
_database_code_ICSD                89457
_audit_creation_date               2002/04/01
_chemical_name_systematic
;
Potassium Tetranickel Tris(phosphate(V))
;
_chemical_formula_structural       'K Ni4 (P O4)3'
_chemical_formula_sum              'K1 Ni4 O12 P3'
_publ_section_title
;
Structure features and ionic conductivity of the A M4 (P O4)3 
orthophosphates: (A = Na, K, Rb; M = Ni, Mn)
;
loop_
_citation_id
_citation_journal_abbrev
_citation_year
_citation_journal_volume
_citation_page_first
_citation_page_last
_citation_journal_id_ASTM
primary 'Solid State Ionics' 1999 124 109 117 SSIOD3
_publ_author_name                  'Daidouh, A.;Pico, C.;Veiga, M.L.'
_cell_length_a                     6.152(2)
_cell_length_b                     16.2140(20)
_cell_length_c                     9.484(3)
_cell_angle_alpha                  90.
_cell_angle_beta                   90.
_cell_angle_gamma                  90.
_cell_volume                       946.02
_cell_formula_units_Z              4
_symmetry_space_group_name_H-M     'P m n n'
_symmetry_Int_Tables_number        58
_refine_ls_R_factor_all            .076
loop_
_symmetry_equiv_pos_site_id
_symmetry_equiv_pos_as_xyz
  1	'x+.5, -y+.5, z+.5'
  2	'x+.5, y+.5, -z+.5'
  3	'-x, y, z'
  4	'-x, -y, -z'
  5	'-x+.5, y+.5, -z+.5'
  6	'-x+.5, -y+.5, z+.5'
  7	'x, -y, -z'
  8	'x, y, z'
loop_
_atom_type_symbol
_atom_type_oxidation_number
K1+	1
Ni2+	2
O2-	-2
P5+	5
loop_
_atom_site_label
_atom_site_type_symbol
_atom_site_symmetry_multiplicity
_atom_site_Wyckoff_symbol
_atom_site_fract_x
_atom_site_fract_y
_atom_site_fract_z
_atom_site_occupancy
_atom_site_attached_hydrogens
K1 K1+ 4 g 0.5 0.031(5) 0.796(4) 1. 0 
Ni1 Ni2+ 4 g 0 0.091(3) 0.536(5) 1. 0 
Ni2 Ni2+ 4 g 0 0.141(5) 0.985(7) 1. 0 
Ni3 Ni2+ 8 h 0.255(3) 0.204(3) 0.250(6) 1. 0 
P1 P5+ 4 g 0.5 0.160(7) 0.542(2) 1. 0 
P2 P5+ 4 g 0.5 0.221(5) 0.953(7) 1. 0 
P3 P5+ 4 g 0 0.036(2) 0.208(3) 1. 0 
O1 O2- 4 g 0.5 0.169(5) 0.383(7) 1. 0 
O2 O2- 4 g 0.5 0.222(5) 0.117(5) 1. 0 
O3 O2- 8 h 0.305(2) 0.113(8) 0.593(6) 1. 0 
O4 O2- 4 g 0 0.185(7) 0.394(4) 1. 0 
O5 O2- 4 g 0.5 0.243(7) 0.605(8) 1. 0 
O6 O2- 4 g 0 0.044(6) 0.867(2) 1. 0 
O7 O2- 8 h 0.204(3) 0.084(4) 0.157(5) 1. 0 
O8 O2- 8 h 0.710(4) 0.177(4) 0.890(5) 1. 0 
O9 O2- 4 g 0 0.023(4) 0.357(6) 1. 0 

#End of data_89457-ICSD


