data_86629-ICSD
#?2014 by Fachinformationszentrum Karlsruhe, and the U.S. Secretary of 
#Commerce on behalf of the United States.  All rights reserved.
_database_code_ICSD                86629
_audit_creation_date               2000/07/15
_audit_update_record               2007/08/01
_chemical_name_systematic          'Strontium Bis(zincoarsenate(V))'
_chemical_formula_structural       'Sr (Zn As O4)2'
_chemical_formula_sum              'As2 O8 Sr1 Zn2'
_publ_section_title
;
Synthesis and Rietveld refinement of new phosphate and arsenate 
analogues of paracelsian
;
loop_
_citation_id
_citation_journal_abbrev
_citation_year
_citation_journal_volume
_citation_page_first
_citation_page_last
_citation_journal_id_ASTM
primary 'Canadian Mineralogist' 1998 36 1045 1051 CAMIA6
2 'Powder Diffraction' 1999 14 222 230 PODIE2
_publ_author_name
;
Lucas, F.;Elfakir, A.;Wallez, G.;Quarton, M.;Lagache, M.
;
_cell_length_a                     8.5804(2)
_cell_length_b                     9.7183(3)
_cell_length_c                     9.2908(2)
_cell_angle_alpha                  90.
_cell_angle_beta                   92.085(1)
_cell_angle_gamma                  90.
_cell_volume                       774.22
_cell_formula_units_Z              4
_symmetry_space_group_name_H-M     'P 1 21/c 1'
_symmetry_Int_Tables_number        14
_refine_ls_R_factor_all            .031
loop_
_symmetry_equiv_pos_site_id
_symmetry_equiv_pos_as_xyz
  1	'x, -y+.5, z+.5'
  2	'-x, -y, -z'
  3	'-x, y+.5, -z+.5'
  4	'x, y, z'
loop_
_atom_type_symbol
_atom_type_oxidation_number
As5+	5
O2-	-2
Sr2+	2
Zn2+	2
loop_
_atom_site_label
_atom_site_type_symbol
_atom_site_symmetry_multiplicity
_atom_site_Wyckoff_symbol
_atom_site_fract_x
_atom_site_fract_y
_atom_site_fract_z
_atom_site_occupancy
_atom_site_attached_hydrogens
_atom_site_B_iso_or_equiv
Sr1 Sr2+ 4 e 0.2525(2) 0.4161(2) 0.8872(2) 1. 0 1.03(7) 
Zn1 Zn2+ 4 e 0.9285(1) 0.9285(3) 0.2209(3) 1. 0 0.70(5) 
As1 As5+ 4 e 0.5586(3) 0.9152(3) 0.2513(2) 1. 0 0.70(5) 
As2 As5+ 4 e 0.9518(3) 0.2043(3) 0.0606(3) 1. 0 0.70(5) 
Zn2 Zn2+ 4 e 0.5789(3) 0.1851(3) 0.0490(3) 1. 0 0.70(5) 
O1 O2- 4 e 0.026(1) 0.1115(8) 0.196(1) 1. 0 1.4(1) 
O2 O2- 4 e 0.487(1) 0.0625(8) 0.190(1) 1. 0 1.4(1) 
O3 O2- 4 e 0.935(1) 0.3672(8) 0.117(1) 1. 0 1.4(1) 
O4 O2- 4 e 0.561(1) 0.3728(9) 0.122(1) 1. 0 1.4(1) 
O5 O2- 4 e 0.082(1) 0.203(1) 0.9394(8) 1. 0 1.4(1) 
O6 O2- 4 e 0.432(1) 0.199(1) 0.8794(8) 1. 0 1.4(1) 
O7 O2- 4 e 0.7878(8) 0.141(1) 0.002(1) 1. 0 1.4(1) 
O8 O2- 4 e 0.7330(8) 0.940(1) 0.3291(9) 1. 0 1.4(1) 

#End of data_86629-ICSD


