data_81772-ICSD
#?2014 by Fachinformationszentrum Karlsruhe, and the U.S. Secretary of 
#Commerce on behalf of the United States.  All rights reserved.
_database_code_ICSD                81772
_audit_creation_date               1997/05/13
_audit_update_record               1999/11/30
_chemical_name_systematic
;
Tripotassium Bismuth Bis(tetrathiophosphate)
;
_chemical_formula_structural       'K3 Bi (P S4)2'
_chemical_formula_sum              'Bi1 K3 P2 S8'
_publ_section_title
;
Synthesis in molten alkali metal polythiophosphate fluxes. The new 
quaternary bismuth and antimony thiophosphates A Bi P2 S7 (A = K, 
Rb), A3 M (P S4)2 (A = K, Rb, Cs; M =Sb, Bi), Cs3 Bi2 (P S4)3, and 
Na0.16 Bi1.28 P2 S6
;
loop_
_citation_id
_citation_journal_abbrev
_citation_year
_citation_journal_volume
_citation_page_first
_citation_page_last
_citation_journal_id_ASTM
primary 'Journal of Alloys and Compounds' 1996 236 70 85 JALCEU
_publ_author_name                  'McCarthy, T.J.;Kanatzidis, M.G.'
_cell_length_a                     23.894(8)
_cell_length_b                     6.799(3)
_cell_length_c                     9.049(2)
_cell_angle_alpha                  90.
_cell_angle_beta                   90.
_cell_angle_gamma                  90.
_cell_volume                       1470.06
_cell_formula_units_Z              4
_symmetry_space_group_name_H-M     'P 21 21 21'
_symmetry_Int_Tables_number        19
_refine_ls_R_factor_all            .055
loop_
_symmetry_equiv_pos_site_id
_symmetry_equiv_pos_as_xyz
  1	'-x, y+.5, -z+.5'
  2	'x+.5, -y+.5, -z'
  3	'-x+.5, -y, z+.5'
  4	'x, y, z'
loop_
_atom_type_symbol
_atom_type_oxidation_number
Bi3+	3
K1+	1
P5+	5
S2-	-2
loop_
_atom_site_label
_atom_site_type_symbol
_atom_site_symmetry_multiplicity
_atom_site_Wyckoff_symbol
_atom_site_fract_x
_atom_site_fract_y
_atom_site_fract_z
_atom_site_occupancy
_atom_site_attached_hydrogens
_atom_site_B_iso_or_equiv
Bi1 Bi3+ 4 a 0.0517(4) 0.061(1) 0.3512(6) 1. 0 1.18(2) 
K1 K1+ 4 a -.0755(2) -.0045(8) 0.7590(5) 1. 0 2.9(2) 
K2 K1+ 4 a 0.2140(2) 0.5009(8) 0.4096(5) 1. 0 2.6(2) 
K3 K1+ 4 a 0.6873(2) 0.5098(8) 0.9776(5) 1. 0 2.8(2) 
S1 S2- 4 a 0.0683(2) 0.0142(8) 0.6411(5) 1. 0 1.9(2) 
S2 S2- 4 a 0.1845(2) 0.7516(8) 0.7087(6) 1. 0 2.1(2) 
S3 S2- 4 a 0.1650(2) -.031(1) 0.3843(4) 1. 0 2.3(2) 
S4 S2- 4 a 0.1918(2) 0.2370(8) 0.6906(6) 1. 0 2.2(2) 
S5 S2- 4 a 0.0790(2) 0.4370(7) 0.3701(4) 1. 0 1.5(1) 
S6 S2- 4 a 0.1735(2) 0.482(1) 0.0895(6) 1. 0 2.5(2) 
S7 S2- 4 a -.0546(2) 0.2199(6) 0.4241(5) 1. 0 1.6(2) 
S8 S2- 4 a 0.0528(3) 0.2317(7) 0.0519(5) 1. 0 2.0(2) 
P1 P5+ 4 a 0.1555(2) -.0065(7) 0.6119(4) 1. 0 1.2(2) 
P2 P5+ 4 a 0.0929(2) 0.4659(7) 0.1418(5) 1. 0 1.1(1) 

#End of data_81772-ICSD


