data_160450-ICSD
#?2014 by Fachinformationszentrum Karlsruhe, and the U.S. Secretary of 
#Commerce on behalf of the United States.  All rights reserved.
_database_code_ICSD                160450
_audit_creation_date               2008/08/01
_chemical_name_systematic          'Dilanthanum Potassium Niobate'
_chemical_formula_structural       'La2 K (Nb O6)'
_chemical_formula_sum              'K1 La2 Nb1 O6'
_publ_section_title
;
Crystal growth of two new niobates, La2 K Nb O6 and Nd2 K Nb O6: 
structuural, dielectric, photophysical and photocatalytic properties
;
loop_
_citation_id
_citation_journal_abbrev
_citation_year
_citation_journal_volume
_citation_page_first
_citation_page_last
_citation_journal_id_ASTM
primary 'Chemistry of Materials' 2008 20 3327 3335 CMATEX
_publ_author_name
;
Roof, I.P.;Park Sangmoon;Vogt, T.;Rassolov, V.;Smith, M.D.;Omar, 
S.;Nino, J.;zur Loye, H.C.
;
_cell_length_a                     12.7460(2)
_cell_length_b                     5.7906(1)
_cell_length_c                     8.8719(2)
_cell_angle_alpha                  90.
_cell_angle_beta                   105.965(1)
_cell_angle_gamma                  90.
_cell_volume                       629.55
_cell_formula_units_Z              4
_symmetry_space_group_name_H-M     'C 1 2/m 1'
_symmetry_Int_Tables_number        12
_refine_ls_R_factor_all            .0222
loop_
_symmetry_equiv_pos_site_id
_symmetry_equiv_pos_as_xyz
  1	'-x, y, -z'
  2	'-x, -y, -z'
  3	'x, -y, z'
  4	'x, y, z'
  5	'-x+.5, y+.5, -z'
  6	'-x+.5, -y+.5, -z'
  7	'x+.5, -y+.5, z'
  8	'x+.5, y+.5, z'
loop_
_atom_type_symbol
_atom_type_oxidation_number
K1+	1
La3+	3
Nb5+	5
O2-	-2
loop_
_atom_site_label
_atom_site_type_symbol
_atom_site_symmetry_multiplicity
_atom_site_Wyckoff_symbol
_atom_site_fract_x
_atom_site_fract_y
_atom_site_fract_z
_atom_site_occupancy
_atom_site_attached_hydrogens
_atom_site_U_iso_or_equiv
La1 La3+ 4 i 0.3699(1) 0.5 0.0718(1) 1. 0 0.008(1) 
La2 La3+ 4 i 0.0899(1) 0.5 0.2071(1) 1. 0 0.008(1) 
Nb1 Nb5+ 4 i 0.3416(1) 0 0.2979(1) 1. 0 0.007(1) 
K1 K1+ 4 i 0.1148(1) 0 0.4809(1) 1. 0 0.015(1) 
O1 O2- 4 i 0.3228(2) 0 0.4945(3) 1. 0 0.013(1) 
O2 O2- 8 j 0.2373(1) 0.2308(3) 0.1698(2) 1. 0 0.011(1) 
O3 O2- 8 j 0.4508(1) 0.2296(3) 0.2950(2) 1. 0 0.010(1) 
O4 O2- 4 g 0 0.2525(4) 0 1. 0 0.010(1) 

#End of data_160450-ICSD


