data_391247-ICSD
#?2014 by Fachinformationszentrum Karlsruhe, and the U.S. Secretary of 
#Commerce on behalf of the United States.  All rights reserved.
_database_code_ICSD                391247
_audit_creation_date               2004/10/01
_audit_update_record               2014/08/01
_chemical_name_systematic          'Aluminium Iodide'
_chemical_formula_structural       'Al I3'
_chemical_formula_sum              'Al1 I3'
_publ_section_title
;
Crystal structures of Ga X3 (X= Cl, Br, I) and Al I3
;
loop_
_citation_id
_citation_journal_abbrev
_citation_year
_citation_journal_volume
_citation_page_first
_citation_page_last
_citation_journal_id_ASTM
primary 'Zeitschrift fuer Kristallographie (1979-2010)' 2004 219 88 92 ZEKRDZ
2 'Zhurnal Neorganicheskoi Khimii' 1994 39 552 555 ZNOKAQ
_publ_author_name
;
Troyanov, S.I.;Krahl, T.;Kemnitz, E.
;
_cell_length_a                     9.591(3)
_cell_length_b                     6.069(2)
_cell_length_c                     11.902(3)
_cell_angle_alpha                  90.
_cell_angle_beta                   108.05(3)
_cell_angle_gamma                  90.
_cell_volume                       658.69
_cell_formula_units_Z              4
_symmetry_space_group_name_H-M     'P 1 21/c 1'
_symmetry_Int_Tables_number        14
_refine_ls_R_factor_all            .046
loop_
_symmetry_equiv_pos_site_id
_symmetry_equiv_pos_as_xyz
  1	'x, -y+.5, z+.5'
  2	'-x, -y, -z'
  3	'-x, y+.5, -z+.5'
  4	'x, y, z'
loop_
_atom_type_symbol
_atom_type_oxidation_number
Al3+	3
I1-	-1
loop_
_atom_site_label
_atom_site_type_symbol
_atom_site_symmetry_multiplicity
_atom_site_Wyckoff_symbol
_atom_site_fract_x
_atom_site_fract_y
_atom_site_fract_z
_atom_site_occupancy
_atom_site_attached_hydrogens
_atom_site_U_iso_or_equiv
Al1 Al3+ 4 e 0.1947(3) -.0019(4) 0.0485(2) 1. 0 0.0246(6) 
I1 I1- 4 e 0.32952(6) 0.24475(10) 0.20940(4) 1. 0 0.0298(3) 
I2 I1- 4 e 0.32736(6) -.25054(10) 0.95383(5) 1. 0 0.0298(3) 
I3 I1- 4 e 0.00076(6) 0.23115(11) 0.88335(5) 1. 0 0.0283(3) 

loop_
_atom_site_aniso_label
_atom_site_aniso_type_symbol
_atom_site_aniso_U_11
_atom_site_aniso_U_22
_atom_site_aniso_U_33
_atom_site_aniso_U_12
_atom_site_aniso_U_13
_atom_site_aniso_U_23
Al1 Al3+ 0.0186(11) 0.0288(13) 0.0260(12) 0.0006(10) 0.0066(9) -.0016(9)
I1 I1- 0.0272(4) 0.0325(4) 0.0273(3) -.0057(2) 0.0048(2) -.0046(2)
I2 I1- 0.0274(4) 0.0322(4) 0.0327(4) 0.0044(2) 0.0135(2) -.0020(2)
I3 I1- 0.0192(3) 0.0384(4) 0.0268(3) -.0007(2) 0.0065(2) 0.0076(2)
#End of data_391247-ICSD


