data_83473-ICSD
#?2014 by Fachinformationszentrum Karlsruhe, and the U.S. Secretary of 
#Commerce on behalf of the United States.  All rights reserved.
_database_code_ICSD                83473
_audit_creation_date               1998/06/26
_chemical_name_systematic          'Dicalcium Iron(III) Antimonate'
_chemical_formula_structural       'Ca2 Fe (Sb O6)'
_chemical_formula_sum              'Ca2 Fe1 O6 Sb1'
_publ_section_title
;
Magnetic property of oxide with the perovskite structure, A2 Fe(III) 
B O6 (A = Ca, Sr, Ba and B = Sb, Bi)
;
loop_
_citation_id
_citation_journal_abbrev
_citation_year
_citation_journal_volume
_citation_journal_issue
_citation_page_first
_citation_page_last
_citation_journal_id_ASTM
primary 'Bulletin of the Korean Chemical Society' 1997 18 1 91 97 BKCSDE
_publ_author_name                  'Lee, S.-O.;Cho, T.Y.;Byeon, S.H.'
_cell_length_a                     5.4371(1)
_cell_length_b                     5.5259(1)
_cell_length_c                     7.7340(2)
_cell_angle_alpha                  90.
_cell_angle_beta                   89.97(1)
_cell_angle_gamma                  90.
_cell_volume                       232.37
_cell_formula_units_Z              2
_symmetry_space_group_name_H-M     'P 1 21/n 1'
_symmetry_Int_Tables_number        14
_refine_ls_R_factor_all            .026
loop_
_symmetry_equiv_pos_site_id
_symmetry_equiv_pos_as_xyz
  1	'-x+.5, y+.5, -z+.5'
  2	'-x, -y, -z'
  3	'x+.5, -y+.5, z+.5'
  4	'x, y, z'
loop_
_atom_type_symbol
_atom_type_oxidation_number
Ca2+	2
Fe3+	3
O2-	-2
Sb5+	5
loop_
_atom_site_label
_atom_site_type_symbol
_atom_site_symmetry_multiplicity
_atom_site_Wyckoff_symbol
_atom_site_fract_x
_atom_site_fract_y
_atom_site_fract_z
_atom_site_occupancy
_atom_site_attached_hydrogens
_atom_site_B_iso_or_equiv
Ca1 Ca2+ 4 e 0.0085(2) 0.0435(5) 0.2511(8) 1. 0 0.58(7) 
Fe1 Fe3+ 2 d 0.5 0 0 1. 0 0.82(6) 
Sb1 Sb5+ 2 c 0 0.5 0 1. 0 0.47(4) 
O1 O2- 4 e 0.305(3) 0.293(3) 0.045(4) 1. 0 0.9(5) 
O2 O2- 4 e 0.289(3) 0.298(3) 0.464(5) 1. 0 0.4(6) 
O3 O2- 4 e 0.915(3) 0.475(2) 0.252(3) 1. 0 0.9(4) 

#End of data_83473-ICSD


