data_413357-ICSD
#?2014 by Fachinformationszentrum Karlsruhe, and the U.S. Secretary of 
#Commerce on behalf of the United States.  All rights reserved.
_database_code_ICSD                413357
_audit_creation_date               2005/10/01
_audit_update_record               2006/10/01
_chemical_name_systematic
;
Dicalcium Tetranitridotetraberyllate
;
_chemical_formula_structural       'Ca2 (Be4 N4)'
_chemical_formula_sum              'Be4 Ca2 N4'
_publ_section_title
;
AE (Be2 N2): Nitridoberyllates of the heavier alkaline-earth metals
;
loop_
_citation_id
_citation_journal_abbrev
_citation_year
_citation_journal_volume
_citation_page_first
_citation_page_last
_citation_journal_id_ASTM
primary 'Angewandte Chemie. International Edition' 2004 43 1088 1088 ACIEF5
_publ_author_name
;
Somer, M.;Yarasik, A.;Aksel'rud, L.G.;Leoni, S.;Rosner, H.;Schnelle, 
W.;Kniep, R.
;
_cell_length_a                     5.5615(2)
_cell_length_b                     5.5615(2)
_cell_length_c                     6.8797(3)
_cell_angle_alpha                  90
_cell_angle_beta                   90
_cell_angle_gamma                  90
_cell_volume                       212.79
_cell_formula_units_Z              2
_symmetry_space_group_name_H-M     'I 4/m c m'
_symmetry_Int_Tables_number        140
loop_
_symmetry_equiv_pos_site_id
_symmetry_equiv_pos_as_xyz
  1	'y, x, -z+.5'
  2	'-y, -x, -z+.5'
  3	'-y, x, -z'
  4	'y, -x, -z'
  5	'x, -y, -z+.5'
  6	'-x, y, -z+.5'
  7	'x, y, -z'
  8	'-x, -y, -z'
  9	'-y, -x, z+.5'
 10	'y, x, z+.5'
 11	'y, -x, z'
 12	'-y, x, z'
 13	'-x, y, z+.5'
 14	'x, -y, z+.5'
 15	'-x, -y, z'
 16	'x, y, z'
 17	'y+.5, x+.5, -z'
 18	'-y+.5, -x+.5, -z'
 19	'-y+.5, x+.5, -z+.5'
 20	'y+.5, -x+.5, -z+.5'
 21	'x+.5, -y+.5, -z'
 22	'-x+.5, y+.5, -z'
 23	'x+.5, y+.5, -z+.5'
 24	'-x+.5, -y+.5, -z+.5'
 25	'-y+.5, -x+.5, z'
 26	'y+.5, x+.5, z'
 27	'y+.5, -x+.5, z+.5'
 28	'-y+.5, x+.5, z+.5'
 29	'-x+.5, y+.5, z'
 30	'x+.5, -y+.5, z'
 31	'-x+.5, -y+.5, z+.5'
 32	'x+.5, y+.5, z+.5'
loop_
_atom_type_symbol
_atom_type_oxidation_number
Be2+	2
Ca2+	2
N3-	-3
loop_
_atom_site_label
_atom_site_type_symbol
_atom_site_symmetry_multiplicity
_atom_site_Wyckoff_symbol
_atom_site_fract_x
_atom_site_fract_y
_atom_site_fract_z
_atom_site_occupancy
_atom_site_attached_hydrogens
_atom_site_U_iso_or_equiv
Ca1 Ca2+ 4 a 0 0 0.25 1. 0 0.0069(6) 
Be1 Be2+ 8 h 0.3794(9) 0.8794(9) 0 1. 0 0.014(2) 
N1 N3- 8 h 0.3312(5) 0.8312(5) 0.5 1. 0 0.0077(13) 

#End of data_413357-ICSD


