data_93228-ICSD
#?2014 by Fachinformationszentrum Karlsruhe, and the U.S. Secretary of 
#Commerce on behalf of the United States.  All rights reserved.
_database_code_ICSD                93228
_audit_creation_date               2003/04/01
_chemical_name_systematic
;
Gallium Magnesium Molybdenum Oxide (1/1/4/7)
;
_chemical_formula_structural       'Ga Mg Mo4 O7'
_chemical_formula_sum              'Ga1 Mg1 Mo4 O7'
_publ_section_title
;
Ga Mg Mo4 O7 and Fe2 Mo4 O7 - two low-valent molybdenum oxides with a 
fully ordered Sc0.75 Zn1.25 Mo4 O7 type structure
;
loop_
_citation_id
_citation_journal_abbrev
_citation_year
_citation_journal_volume
_citation_page_first
_citation_page_last
_citation_journal_id_ASTM
primary 'Journal of Alloys and Compounds' 2001 317 132 135 JALCEU
_publ_author_name                  'Hainz, M.;Boller, H.'
_cell_length_a                     6.016(3)
_cell_length_b                     5.712(1)
_cell_length_c                     16.606(4)
_cell_angle_alpha                  90
_cell_angle_beta                   90
_cell_angle_gamma                  90
_cell_volume                       570.64
_cell_formula_units_Z              4
_symmetry_space_group_name_H-M     'I m m a'
_symmetry_Int_Tables_number        74
_refine_ls_R_factor_all            .032
loop_
_symmetry_equiv_pos_site_id
_symmetry_equiv_pos_as_xyz
  1	'-x, y+.5, -z'
  2	'-x, -y+.5, z'
  3	'-x, y, z'
  4	'-x, -y, -z'
  5	'x, -y+.5, z'
  6	'x, y+.5, -z'
  7	'x, -y, -z'
  8	'x, y, z'
  9	'-x+.5, y, -z+.5'
 10	'-x+.5, -y, z+.5'
 11	'-x+.5, y+.5, z+.5'
 12	'-x+.5, -y+.5, -z+.5'
 13	'x+.5, -y, z+.5'
 14	'x+.5, y, -z+.5'
 15	'x+.5, -y+.5, -z+.5'
 16	'x+.5, y+.5, z+.5'
loop_
_atom_type_symbol
_atom_type_oxidation_number
Ga3+	3
Mg2+	2
Mo2.25+	2.25
O2-	-2
loop_
_atom_site_label
_atom_site_type_symbol
_atom_site_symmetry_multiplicity
_atom_site_Wyckoff_symbol
_atom_site_fract_x
_atom_site_fract_y
_atom_site_fract_z
_atom_site_occupancy
_atom_site_attached_hydrogens
_atom_site_B_iso_or_equiv
Ga1 Ga3+ 4 e 0 0.250 0.3063(2) 1. 0 0.41(6) 
Mg1 Mg2+ 4 d 0.250 0.250 0.750 1. 0 0.4(1) 
Mo1 Mo2.25+ 8 h 0 0.0197(3) 0.11337(7) 1. 0 0.29(2) 
Mo2 Mo2.25+ 8 i 0.2305(3) 0.250 0.99597(8) 1. 0 0.34(2) 
O1 O2- 4 b 0 0 0.5 1. 0 0.7(3) 
O2 O2- 8 i 0.263(3) 0.250 0.1207(5) 1. 0 0.1(2) 
O3 O2- 8 i 0.272(3) 0.250 0.6251(6) 1. 0 0.5(2) 
O4 O2- 8 h 0 0.506(2) 0.2421(6) 1. 0 0.5(2) 

#End of data_93228-ICSD


