data_418902-ICSD
#?2014 by Fachinformationszentrum Karlsruhe, and the U.S. Secretary of 
#Commerce on behalf of the United States.  All rights reserved.
_database_code_ICSD                418902
_audit_creation_date               2008/08/01
_chemical_name_systematic          'Tetrasilver Diiodide Selenate(VI)'
_chemical_formula_structural       'Ag4 I2 (Se O4)'
_chemical_formula_sum              'Ag4 I2 O4 Se1'
_publ_section_title
;
Ag4 I2 Se O4 and Ag3 I Te O4 - two new silver solid electrolytes
;
loop_
_citation_id
_citation_journal_abbrev
_citation_year
_citation_journal_volume
_citation_journal_issue
_citation_page_first
_citation_page_last
_citation_journal_id_ASTM
primary 'Zeitschrift fuer Anorganische und Allgemeine Chemie (1950) (DE)'
 2008 634 6-7 1071 1076 ZAACAB
_publ_author_name
;
Pitzschke, D.;Curda, J.;Cakmak, G.;Jansen, M.
;
_cell_length_a                     9.35141(10)
_cell_length_b                     13.1552(4)
_cell_length_c                     7.0866(4)
_cell_angle_alpha                  90.00
_cell_angle_beta                   90.00
_cell_angle_gamma                  90.00
_cell_volume                       871.79
_cell_formula_units_Z              4
_symmetry_space_group_name_H-M     'P n a 21'
_symmetry_Int_Tables_number        33
_refine_ls_R_factor_all            .0478
loop_
_symmetry_equiv_pos_site_id
_symmetry_equiv_pos_as_xyz
  1	'x+.5, -y+.5, z'
  2	'-x+.5, y+.5, z+.5'
  3	'-x, -y, z+.5'
  4	'x, y, z'
loop_
_atom_type_symbol
_atom_type_oxidation_number
Ag1+	1
I1-	-1
O2-	-2
Se6+	6
loop_
_atom_site_label
_atom_site_type_symbol
_atom_site_symmetry_multiplicity
_atom_site_Wyckoff_symbol
_atom_site_fract_x
_atom_site_fract_y
_atom_site_fract_z
_atom_site_occupancy
_atom_site_attached_hydrogens
_atom_site_U_iso_or_equiv
Ag1 Ag1+ 4 a 0.37915(15) 0.91943(11) 0.2829(2) 1 0 0.0505(3) 
Ag2 Ag1+ 4 a 0.24258(19) 0.18974(15) 0.9364(4) 1 0 0.0706(6) 
Ag3 Ag1+ 4 a 0.0124(2) 0.01013(16) 0.0383(3) 1 0 0.0689(5) 
Ag4 Ag1+ 4 a 0.46043(17) 0.25946(11) 0.3464(4) 1 0 0.0832(8) 
I1 I1- 4 a 0.95873(10) 0.18728(7) 0.77775(18) 1 0 0.0397(3) 
I2 I1- 4 a 0.23454(10) 0.11195(7) 0.31017(17) 1 0 0.0414(3) 
Se1 Se6+ 4 a 0.68304(15) 0.07195(10) 0.2829(2) 1 0 0.0353(3) 
O1 O2- 4 a 0.6331(12) 0.9539(8) 0.282(2) 1 0 0.045(2) 
O2 O2- 4 a 0.8568(9) 0.0760(7) 0.2797(17) 1 0 0.0318(18) 
O3 O2- 4 a 0.6311(13) 0.1289(9) 0.4680(14) 1 0 0.039(3) 
O4 O2- 4 a 0.6241(12) 0.1330(9) 0.1048(15) 1 0 0.040(3) 

loop_
_atom_site_aniso_label
_atom_site_aniso_type_symbol
_atom_site_aniso_U_11
_atom_site_aniso_U_22
_atom_site_aniso_U_33
_atom_site_aniso_U_12
_atom_site_aniso_U_13
_atom_site_aniso_U_23
Ag1 Ag1+ 0.0543(7) 0.0617(8) 0.0354(6) 0.0025(6) -0.0005(6) -0.0024(7)
Ag2 Ag1+ 0.0634(10) 0.0630(11) 0.0855(13) -0.0030(7) 0.0181(9) 0.0068(9)
Ag3 Ag1+ 0.0828(11) 0.0710(10) 0.0530(8) 0.0171(9) 0.0243(8) -0.0065(7)
Ag4 Ag1+ 0.0468(8) 0.0385(7) 0.164(3) 0.0084(5) -0.0191(10) 0.0030(10)
I1 I1- 0.0388(5) 0.0340(5) 0.0462(5) -0.0005(3) 0.0034(5) -0.0038(4)
I2 I1- 0.0326(4) 0.0385(5) 0.0532(6) 0.0010(3) 0.0023(4) 0.0019(4)
Se1 Se6+ 0.0342(7) 0.0365(7) 0.0351(6) 0.0015(5) 0.0007(6) 0.0010(6)
O1 O2- 0.040(5) 0.038(5) 0.058(6) -0.002(4) -0.006(5) 0.009(6)
O2 O2- 0.025(4) 0.034(4) 0.036(4) 0.002(3) -0.001(4) -0.003(5)
O3 O2- 0.053(7) 0.041(6) 0.024(4) 0.005(5) 0.000(4) -0.002(4)
O4 O2- 0.044(6) 0.040(6) 0.035(5) -0.001(5) -0.012(4) 0.001(5)
#End of data_418902-ICSD


