data_38232-ICSD
#?2014 by Fachinformationszentrum Karlsruhe, and the U.S. Secretary of 
#Commerce on behalf of the United States.  All rights reserved.
_database_code_ICSD                38232
_audit_creation_date               1980/01/01
_audit_update_record               2005/10/01
_chemical_name_systematic
;
Chromium Potassium Bis(sulfate(VI)) Dodecahydrate
;
_chemical_formula_structural       'Cr K (S O4)2 (H2 O)12'
_chemical_formula_sum              'H24 Cr1 K1 O20 S2'
_publ_section_title
;
The structure of chromium potassium alum
;
loop_
_citation_id
_citation_journal_abbrev
_citation_year
_citation_journal_volume
_citation_page_first
_citation_page_last
_citation_journal_id_ASTM
primary
;
Proceedings of the Royal Society of London, Series A: Mathematical 
and Physical Sciences (76,1906-)
;
 1958 246 79 90 PRLAAZ
_publ_author_name                  'Bacon, G.E.;Gardner, W.E.'
_cell_length_a                     12.2
_cell_length_b                     12.2
_cell_length_c                     12.2
_cell_angle_alpha                  90.
_cell_angle_beta                   90.
_cell_angle_gamma                  90.
_cell_volume                       1815.85
_cell_formula_units_Z              4
_symmetry_space_group_name_H-M     'P a -3'
_symmetry_Int_Tables_number        205
loop_
_symmetry_equiv_pos_site_id
_symmetry_equiv_pos_as_xyz
  1	'-z+.5, x+.5, y'
  2	'z+.5, x, -y+.5'
  3	'z, -x+.5, y+.5'
  4	'-z, -x, -y'
  5	'y, -z+.5, x+.5'
  6	'-y+.5, z+.5, x'
  7	'y+.5, z, -x+.5'
  8	'-y, -z, -x'
  9	'x+.5, y, -z+.5'
 10	'x, -y+.5, z+.5'
 11	'-x+.5, y+.5, z'
 12	'-x, -y, -z'
 13	'z+.5, -x+.5, -y'
 14	'-z+.5, -x, y+.5'
 15	'-z, x+.5, -y+.5'
 16	'z, x, y'
 17	'-y, z+.5, -x+.5'
 18	'y+.5, -z+.5, -x'
 19	'-y+.5, -z, x+.5'
 20	'y, z, x'
 21	'-x+.5, -y, z+.5'
 22	'-x, y+.5, -z+.5'
 23	'x+.5, -y+.5, -z'
 24	'x, y, z'
loop_
_atom_type_symbol
_atom_type_oxidation_number
Cr3+	3
H1+	1
K1+	1
O2-	-2
S6+	6
loop_
_atom_site_label
_atom_site_type_symbol
_atom_site_symmetry_multiplicity
_atom_site_Wyckoff_symbol
_atom_site_fract_x
_atom_site_fract_y
_atom_site_fract_z
_atom_site_occupancy
_atom_site_attached_hydrogens
_atom_site_B_iso_or_equiv
Cr1 Cr3+ 4 a 0 0 0 1. 0 3.0(7) 
K1 K1+ 4 b 0.5 0.5 0.5 1. 0 3.0(7) 
S1 S6+ 8 c 0.309(5) 0.309 0.309 1. 0 2.2(6) 
O1 O2- 8 c 0.238(9) 0.238 0.238 1. 0 8.00(13) 
O2 O2- 24 d 0.303(4) 0.263 0.432 1. 0 6.9(1) 
O3 O2- 24 d 0.012(2) 0.017 0.158 1. 0 2.5(4) 
O4 O2- 24 d 0.049(2) 0.14 0.306 1. 0 2.8(4) 
H1 H1+ 24 d 0.208(2) 0.029 0.048 1. 0 2.5(5) 
H2 H1+ 24 d 0.199(3) 0.035 0.087 1. 0 4.1(9) 
H3 H1+ 24 d 0.122(3) 0.165 0.297 1. 0 4.4(9) 
H4 H1+ 24 d 0.002(3) 0.205 0.279 1. 0 3.9(8) 

#End of data_38232-ICSD


