data_169990-ICSD
#?2014 by Fachinformationszentrum Karlsruhe, and the U.S. Secretary of 
#Commerce on behalf of the United States.  All rights reserved.
_database_code_ICSD                169990
_audit_creation_date               2011/08/01
_chemical_name_systematic
;
Sodium Potassium Dialuminium Oxide Diarsenate
;
_chemical_formula_structural       'Na K Al2 O (As O4)2'
_chemical_formula_sum              'Al2 As2 K1 Na1 O9'
_publ_section_title
;
New arsenates(V) Na K Al2 O (As O4)2 and Na2 K Al3 (As O4)4
;
loop_
_citation_id
_citation_journal_abbrev
_citation_year
_citation_journal_volume
_citation_page_first
_citation_page_last
_citation_journal_id_ASTM
primary 'Materials Research Bulletin' 2010 45 2017 2023 MRBUAC
_publ_author_name
;
Ben Yahia, H.;Nilges, T.;Rodewald, U.C.;Poettgen, R.
;
_cell_length_a                     8.2368(6)
_cell_length_b                     5.5228(3)
_cell_length_c                     17.0160(13)
_cell_angle_alpha                  90.
_cell_angle_beta                   90.
_cell_angle_gamma                  90.
_cell_volume                       774.06
_cell_formula_units_Z              4
_symmetry_space_group_name_H-M     'P n m a'
_symmetry_Int_Tables_number        62
_refine_ls_R_factor_all            .0365
loop_
_symmetry_equiv_pos_site_id
_symmetry_equiv_pos_as_xyz
  1	'x+.5, y, -z+.5'
  2	'x, -y+.5, z'
  3	'-x+.5, y+.5, z+.5'
  4	'-x, -y, -z'
  5	'-x+.5, -y, z+.5'
  6	'-x, y+.5, -z'
  7	'x+.5, -y+.5, -z+.5'
  8	'x, y, z'
loop_
_atom_type_symbol
_atom_type_oxidation_number
Al3+	3
As5+	5
K1+	1
Na1+	1
O2-	-2
loop_
_atom_site_label
_atom_site_type_symbol
_atom_site_symmetry_multiplicity
_atom_site_Wyckoff_symbol
_atom_site_fract_x
_atom_site_fract_y
_atom_site_fract_z
_atom_site_occupancy
_atom_site_attached_hydrogens
_atom_site_U_iso_or_equiv
Na1 Na1+ 4 c 0.5896(4) 0.250 0.36500(15) 1. 0 0.0299(7) 
K1 K1+ 4 c 0.45218(14) 0.750 0.23191(7) 1. 0 0.0221(3) 
Al1 Al3+ 4 c 0.78193(16) 0.750 0.06151(8) 1. 0 0.0062(3) 
Al2 Al3+ 4 b 0.5 0 0 1. 0 0.0050(3) 
As1 As5+ 4 c 0.69010(5) 0.250 0.14812(2) 1. 0 0.00598(10) 
As2 As5+ 4 c 0.17059(5) 0.750 0.05973(3) 1. 0 0.00560(10) 
O1 O2- 4 c 0.5980(5) 0.250 0.2332(2) 1. 0 0.0189(10) 
O2 O2- 8 d 0.8096(3) 0.0037(4) 0.13400(13) 1. 0 0.0113(5) 
O3 O2- 4 c 0.5424(4) 0.250 0.07610(17) 1. 0 0.0064(7) 
O4 O2- 8 d 0.2713(2) -0.0001(4) 0.02605(13) 1. 0 0.0081(5) 
O5 O2- 4 c 0.1696(5) 0.750 0.1555(2) 1. 0 0.0220(11) 
O6 O2- 4 c 0.9852(4) 0.750 0.0198(2) 1. 0 0.0097(8) 
O7 O2- 4 c 0.5571(3) 0.750 0.06339(18) 1. 0 0.0056(7) 

loop_
_atom_site_aniso_label
_atom_site_aniso_type_symbol
_atom_site_aniso_U_11
_atom_site_aniso_U_22
_atom_site_aniso_U_33
_atom_site_aniso_U_12
_atom_site_aniso_U_13
_atom_site_aniso_U_23
Na1 Na1+ 0.0475(16) 0.0235(12) 0.0187(11) 0. -0.0045(11) 0.
K1 K1+ 0.0183(5) 0.0312(6) 0.0167(5) 0. -0.0049(4) 0.
Al1 Al3+ 0.0041(5) 0.0047(5) 0.0096(5) 0. -0.0005(4) 0.
Al2 Al3+ 0.0041(5) 0.0024(5) 0.0084(5) -0.0002(4) -0.0013(4) 0.0004(4)
As1 As5+ 0.00714(18) 0.00462(18) 0.00620(18) 0. -0.00132(13) 0.
As2 As5+ 0.00356(17) 0.00547(18) 0.00776(18) 0. 0.00105(13) 0.
O1 O2- 0.0221(18) 0.0263(19) 0.0085(14) 0. 0.0046(13) 0.
O2 O2- 0.0115(9) 0.0069(9) 0.0155(10) 0.0043(8) -0.0052(8) -0.0027(8)
O3 O2- 0.0070(12) 0.0050(11) 0.0072(12) 0. -0.0033(10) 0.
O4 O2- 0.0056(8) 0.0042(8) 0.0146(9) -0.0012(7) 0.0008(7) 0.0017(8)
O5 O2- 0.0173(16) 0.045(3) 0.0041(13) 0. 0.0008(12) 0.
O6 O2- 0.0034(11) 0.0104(14) 0.0153(14) 0. -0.0012(11) 0.
O7 O2- 0.0048(12) 0.0042(11) 0.0078(12) 0. -0.0016(9) 0.
#End of data_169990-ICSD


