data_23477-ICSD
#?2014 by Fachinformationszentrum Karlsruhe, and the U.S. Secretary of 
#Commerce on behalf of the United States.  All rights reserved.
_database_code_ICSD                23477
_audit_creation_date               1980/01/01
_chemical_name_systematic          'Lithium Catena-vanadate'
_chemical_formula_structural       'Li V O3'
_chemical_formula_sum              'Li1 O3 V1'
_publ_section_title
;
Structure cristalline du metavanadate de lithium
;
loop_
_citation_id
_citation_journal_abbrev
_citation_year
_citation_journal_volume
_citation_page_first
_citation_page_last
_citation_journal_id_ASTM
primary
;
Comptes Rendus Hebdomadaires des Seances de l`Academie des Sciences, 
Serie C, Sciences Chimiques (1966-)
;
 1973 277 307 309 CHDCAQ
_publ_author_name                  'Mahe, P.;Lee, M.-R.'
_cell_length_a                     10.18(1)
_cell_length_b                     8.41(1)
_cell_length_c                     5.873(7)
_cell_angle_alpha                  90.
_cell_angle_beta                   110.83(17)
_cell_angle_gamma                  90.
_cell_volume                       469.95
_cell_formula_units_Z              8
_symmetry_space_group_name_H-M     'C 1 c 1'
_symmetry_Int_Tables_number        9
_refine_ls_R_factor_all            .14
loop_
_symmetry_equiv_pos_site_id
_symmetry_equiv_pos_as_xyz
  1	'x, -y, z+.5'
  2	'x, y, z'
  3	'x+.5, -y+.5, z+.5'
  4	'x+.5, y+.5, z'
loop_
_atom_type_symbol
_atom_type_oxidation_number
Li1+	1
O2-	-2
V5+	5
loop_
_atom_site_label
_atom_site_type_symbol
_atom_site_symmetry_multiplicity
_atom_site_Wyckoff_symbol
_atom_site_fract_x
_atom_site_fract_y
_atom_site_fract_z
_atom_site_occupancy
_atom_site_attached_hydrogens
_atom_site_B_iso_or_equiv
Li1 Li1+ 4 a 0.46 0.63 0.24 1. 0 -1.3 
Li2 Li1+ 4 a 0.48 0.27 0.16 1. 0 3.3 
V1 V5+ 4 a 0.2 0.092 0.249 1. 0 0.23 
V2 V5+ 4 a 0.277 0.594 0.286 1. 0 0.67 
O1 O2- 4 a 0.38 0.08 0.18 1. 0 1.6 
O2 O2- 4 a 0.13 0.97 0.47 1. 0 3.7 
O3 O2- 4 a 0.35 0.53 0.59 1. 0 1.5 
O4 O2- 4 a 0.17 0.3 0.27 1. 0 2.2 
O5 O2- 4 a 0.36 0.77 0.3 1. 0 -.2 
O6 O2- 4 a 0.1 0.62 0.18 1. 0 -1.1 

#End of data_23477-ICSD


