data_79478-ICSD
#?2014 by Fachinformationszentrum Karlsruhe, and the U.S. Secretary of 
#Commerce on behalf of the United States.  All rights reserved.
_database_code_ICSD                79478
_audit_creation_date               1996/10/14
_audit_update_record               2011/02/01
_chemical_name_systematic
;
Dibarium Phyllo-heptafluorochlorodizincate
;
_chemical_formula_structural       'Ba2 (Zn2 F7 Cl)'
_chemical_formula_sum              'Ba2 Cl1 F7 Zn2'
_publ_section_title
;
Synthesis, structural study, and magnetic behavior of a new 
chlorofluoride family: Ba2 M2 F7 Cl and Ba2 M M' F7 Cl (M,M'= 
Mn(2+),Fe(2+),Co(2+),Ni(2+),Zn(2+))
;
loop_
_citation_id
_citation_journal_abbrev
_citation_year
_citation_journal_volume
_citation_page_first
_citation_page_last
_citation_journal_id_ASTM
primary 'Journal of Solid State Chemistry' 1995 115 98 111 JSSCBI
_publ_author_name
;
Maguer, J.J.;Courbion, G.;Schriewer Poettgen, M.S.;Fompeyrine, 
J.;Darriet, J.
;
_cell_length_a                     7.700(2)
_cell_length_b                     5.801(2)
_cell_length_c                     8.939(2)
_cell_angle_alpha                  90.
_cell_angle_beta                   106.85(2)
_cell_angle_gamma                  90.
_cell_volume                       382.14
_cell_formula_units_Z              2
_symmetry_space_group_name_H-M     'P 1 21/m 1'
_symmetry_Int_Tables_number        11
_refine_ls_R_factor_all            .028
loop_
_symmetry_equiv_pos_site_id
_symmetry_equiv_pos_as_xyz
  1	'x, -y+.5, z'
  2	'-x, -y, -z'
  3	'-x, y+.5, -z'
  4	'x, y, z'
loop_
_atom_type_symbol
_atom_type_oxidation_number
Ba2+	2
Cl1-	-1
F1-	-1
Zn2+	2
loop_
_atom_site_label
_atom_site_type_symbol
_atom_site_symmetry_multiplicity
_atom_site_Wyckoff_symbol
_atom_site_fract_x
_atom_site_fract_y
_atom_site_fract_z
_atom_site_occupancy
_atom_site_attached_hydrogens
Ba1 Ba2+ 2 e 0.3317(1) 0.25 0.5871(1) 1. 0 
Ba2 Ba2+ 2 e 0.3047(1) 0.25 0.0750(1) 1. 0 
Zn1 Zn2+ 2 e 0.8274(1) 0.25 0.7354(1) 1. 0 
Zn2 Zn2+ 2 e 0.8184(2) 0.25 0.1732(1) 1. 0 
Cl1 Cl1- 2 e 0.8825(3) 0.25 0.4701(3) 1. 0 
F1 F1- 4 f 0.6302(6) 0.0072(9) 0.1608(5) 1. 0 
F2 F1- 4 f 0.0052(8) 0.0002(12) 0.8274(6) 1. 0 
F3 F1- 4 f 0.6397(6) 0.0028(9) 0.6552(5) 1. 0 
F4 F1- 2 e 0.7473(9) 0.25 0.9346(8) 1. 0 

loop_
_atom_site_aniso_label
_atom_site_aniso_type_symbol
_atom_site_aniso_U_11
_atom_site_aniso_U_22
_atom_site_aniso_U_33
_atom_site_aniso_U_12
_atom_site_aniso_U_13
_atom_site_aniso_U_23
Ba1 Ba2+ 0.0114(3) 0.0084(3) 0.0091(3) 0 0.0029(2) 0
Ba2 Ba2+ 0.0139(3) 0.0091(3) 0.0076(3) 0 0.0024(2) 0
Zn1 Zn2+ 0.0072(5) 0.0083(6) 0.0108(6) 0 0.0007(4) 0
Zn2 Zn2+ 0.0078(5) 0.0079(6) 0.0125(6) 0 0.0026(4) 0
Cl1 Cl1- 0.0164(10) 0.0126(12) 0.0145(11) 0 0.0052(9) 0
F1 F1- 0.0179(20) 0.0137(25) 0.0148(22) -0.0017(18) 0.0057(16) -0.0025(18)
F2 F1- 0.0328(26) 0.0375(36) 0.0216(26) 0.0269(27) 0.0079(21) 0.0044(24)
F3 F1- 0.0152(19) 0.0117(24) 0.0116(21) -0.0058(17) 0.0040(15) -0.0043(17)
F4 F1- 0.0213(32) 0.0143(33) 0.0189(33) 0 0.0131(27) 0
#End of data_79478-ICSD


