data_41537-ICSD
#?2014 by Fachinformationszentrum Karlsruhe, and the U.S. Secretary of 
#Commerce on behalf of the United States.  All rights reserved.
_database_code_ICSD                41537
_audit_creation_date               1999/11/30
_chemical_name_systematic          'Dicesium Zinc Bromide'
_chemical_formula_structural       'Cs2 Zn Br4'
_chemical_formula_sum              'Br4 Cs2 Zn1'
_publ_section_title
;
Correlation of zero field splittings and site distortions III: Mn 
Br4(2-) and crystal structure refinements for Rb3 Zn Br5 and Cs2 Zn 
Br4
;
loop_
_citation_id
_citation_journal_abbrev
_citation_year
_citation_journal_volume
_citation_page_first
_citation_page_last
_citation_journal_id_ASTM
primary 'Zeitschrift fuer Naturforschung, A: Phys. Sci.'
 1981 36 286 293 ZNASEI
_publ_author_name
;
Heming, M.;Lehmann, G.;Henkel, G.;Krebs, B.
;
_cell_length_a                     10.202(4)
_cell_length_b                     7.738(3)
_cell_length_c                     13.539(4)
_cell_angle_alpha                  90.
_cell_angle_beta                   90.
_cell_angle_gamma                  90.
_cell_volume                       1068.81
_cell_formula_units_Z              4
_symmetry_space_group_name_H-M     'P n m a'
_symmetry_Int_Tables_number        62
_refine_ls_R_factor_all            .066
loop_
_symmetry_equiv_pos_site_id
_symmetry_equiv_pos_as_xyz
  1	'x+.5, y, -z+.5'
  2	'x, -y+.5, z'
  3	'-x+.5, y+.5, z+.5'
  4	'-x, -y, -z'
  5	'-x+.5, -y, z+.5'
  6	'-x, y+.5, -z'
  7	'x+.5, -y+.5, -z+.5'
  8	'x, y, z'
loop_
_atom_type_symbol
_atom_type_oxidation_number
Br1-	-1
Cs1+	1
Zn2+	2
loop_
_atom_site_label
_atom_site_type_symbol
_atom_site_symmetry_multiplicity
_atom_site_Wyckoff_symbol
_atom_site_fract_x
_atom_site_fract_y
_atom_site_fract_z
_atom_site_occupancy
_atom_site_attached_hydrogens
Cs1 Cs1+ 4 c 0.63759(14) 0.25 0.39664(16) 1. 0 
Cs2 Cs1+ 4 c 0.47640(12) 0.25 0.82834(11) 1. 0 
Zn1 Zn2+ 4 c 0.23612(21) 0.25 0.42196(20) 1. 0 
Br1 Br1- 4 c 0.00288(20) 0.25 0.40094(21) 1. 0 
Br2 Br1- 4 c 0.31154(22) 0.25 0.58991(18) 1. 0 
Br3 Br1- 8 d 0.32667(16) -.00185(22) 0.34528(17) 1. 0 

loop_
_atom_site_aniso_label
_atom_site_aniso_type_symbol
_atom_site_aniso_U_11
_atom_site_aniso_U_22
_atom_site_aniso_U_33
_atom_site_aniso_U_12
_atom_site_aniso_U_13
_atom_site_aniso_U_23
Cs1 Cs1+ 0.0387(8) 0.0539(10) 0.0858(16) 0 -.0095(8) 0
Cs2 Cs1+ 0.0314(6) 0.0506(9) 0.0299(8) 0 -.0010(6) 0
Zn1 Zn2+ 0.0272(11) 0.0330(13) 0.0271(13) 0 0.0007(10) 0
Br1 Br1- 0.026(1) 0.0765(18) 0.0486(16) 0 -.0073(10) 0
Br2 Br1- 0.0414(12) 0.0796(18) 0.0263(13) 0 -.0096(10) 0
Br3 Br1- 0.0479(9) 0.0419(10) 0.0795(15) -.0035(7) 0.0173(9) -.0264(10)
#End of data_41537-ICSD


