data_421708-ICSD
#?2014 by Fachinformationszentrum Karlsruhe, and the U.S. Secretary of 
#Commerce on behalf of the United States.  All rights reserved.
_database_code_ICSD                421708
_audit_creation_date               2012/02/01
_chemical_name_systematic          'Dicalcium Orthosilicate - Beta'
_chemical_formula_structural       'Ca2 (Si O4)'
_chemical_formula_sum              'Ca2 O4 Si1'
_chemical_name_mineral             Larnite
_publ_section_title
;
Crystal structure of larnite - Ca2 Si O4 and specific features of 
polymorphic transitions in dicalcium orthosilicate
;
loop_
_citation_id
_citation_journal_abbrev
_citation_year
_citation_journal_volume
_citation_journal_issue
_citation_page_first
_citation_page_last
_citation_journal_id_ASTM
primary Kristallografiya 2011 56 2 235 245 KRISAJ
2 'Crystallography Reports' 2011 56 2 210 220 CYSTE3
_publ_author_name
;
Yamnova, N.A.;Zubkova, N.V.;Eremin, N.N.;Zadov, A.E.;Gazeev, V.M.
;
_cell_length_a                     5.5051(3)
_cell_length_b                     6.7551(3)
_cell_length_c                     9.3108(5)
_cell_angle_alpha                  90.00
_cell_angle_beta                   94.513(4)
_cell_angle_gamma                  90.00
_cell_volume                       345.17
_cell_formula_units_Z              4
_symmetry_space_group_name_H-M     'P 1 21/n 1'
_symmetry_Int_Tables_number        14
_refine_ls_R_factor_all            .0532
loop_
_symmetry_equiv_pos_site_id
_symmetry_equiv_pos_as_xyz
  1	'-x+.5, y+.5, -z+.5'
  2	'-x, -y, -z'
  3	'x+.5, -y+.5, z+.5'
  4	'x, y, z'
loop_
_atom_type_symbol
_atom_type_oxidation_number
Ca2+	2
O2-	-2
Si4+	4
loop_
_atom_site_label
_atom_site_type_symbol
_atom_site_symmetry_multiplicity
_atom_site_Wyckoff_symbol
_atom_site_fract_x
_atom_site_fract_y
_atom_site_fract_z
_atom_site_occupancy
_atom_site_attached_hydrogens
_atom_site_U_iso_or_equiv
Ca1 Ca2+ 4 e 0.22727(17) 0.34261(14) 0.43031(11) 1 0 0.0108(3) 
Ca2 Ca2+ 4 e 0.22074(17) -0.00235(13) 0.70202(10) 1 0 0.0090(3) 
Si1 Si4+ 4 e 0.2328(2) 0.28127(19) 0.08161(14) 1 0 0.0070(3) 
O1 O2- 4 e 0.2827(7) 0.5121(5) 0.0600(4) 1 0 0.0106(7) 
O2 O2- 4 e 0.4867(6) 0.1683(5) 0.1381(4) 1 0 0.0110(7) 
O3 O2- 4 e 0.1561(7) 0.1712(5) -0.0725(4) 1 0 0.0112(6) 
O4 O2- 4 e 0.0212(7) 0.2481(5) 0.1919(4) 1 0 0.0114(6) 

loop_
_atom_site_aniso_label
_atom_site_aniso_type_symbol
_atom_site_aniso_U_11
_atom_site_aniso_U_22
_atom_site_aniso_U_33
_atom_site_aniso_U_12
_atom_site_aniso_U_13
_atom_site_aniso_U_23
Ca1 Ca2+ 0.0121(4) 0.0069(4) 0.0135(5) 0.0000(3) 0.0011(3) -0.0002(3)
Ca2 Ca2+ 0.0110(4) 0.0072(4) 0.0089(4) -0.0007(3) 0.0009(3) 0.0003(3)
Si1 Si4+ 0.0087(5) 0.0050(6) 0.0075(6) -0.0001(4) 0.0011(4) 0.0000(4)
O1 O2- 0.0163(16) 0.0057(15) 0.0101(15) -0.0012(11) 0.0016(12) -0.0001(11)
O2 O2- 0.0096(15) 0.0127(17) 0.0105(16) 0.0032(12) -0.0005(12) 0.0009(12)
O3 O2- 0.0135(15) 0.0106(15) 0.0094(15) -0.0006(12) 0.0006(12) -0.0024(12)
O4 O2- 0.0123(15) 0.0129(16) 0.0096(15) -0.0002(12) 0.0046(11) 0.0017(13)
#End of data_421708-ICSD


