data_200907-ICSD
#?2014 by Fachinformationszentrum Karlsruhe, and the U.S. Secretary of 
#Commerce on behalf of the United States.  All rights reserved.
_database_code_ICSD                200907
_audit_creation_date               1980/01/01
_audit_update_record               1984/11/02
_chemical_name_systematic
;
Dipotassium Tetranitroplatinate(II) - Colorless Crystal
;
_chemical_formula_structural       'K2 (Pt (N O2)4)'
_chemical_formula_sum              'K2 N4 O8 Pt1'
_publ_section_title
;
Crystal structure of potassium tetranitroplatinate
;
loop_
_citation_id
_citation_journal_abbrev
_citation_year
_citation_journal_volume
_citation_page_first
_citation_page_last
_citation_journal_id_ASTM
primary 'Koordinatsionnaya Khimiya (= Coordination Chemistry (USSR))'
 1978 4 1435 1440 KOKHDC
_publ_author_name
;
Porai Koshits, M.A.;Kukina, G.A.;Nikolaev, V.P.
;
_cell_length_a                     7.771(2)
_cell_length_b                     12.795(4)
_cell_length_c                     9.219(2)
_cell_angle_alpha                  90.
_cell_angle_beta                   95.93(2)
_cell_angle_gamma                  90.
_cell_volume                       911.74
_cell_formula_units_Z              4
_symmetry_space_group_name_H-M     'P 1 21/a 1'
_symmetry_Int_Tables_number        14
_refine_ls_R_factor_all            .039
loop_
_symmetry_equiv_pos_site_id
_symmetry_equiv_pos_as_xyz
  1	'x+.5, -y+.5, z'
  2	'-x, -y, -z'
  3	'-x+.5, y+.5, -z'
  4	'x, y, z'
loop_
_atom_type_symbol
_atom_type_oxidation_number
K1+	1
N3+	3
O2-	-2
Pt2+	2
loop_
_atom_site_label
_atom_site_type_symbol
_atom_site_symmetry_multiplicity
_atom_site_Wyckoff_symbol
_atom_site_fract_x
_atom_site_fract_y
_atom_site_fract_z
_atom_site_occupancy
_atom_site_attached_hydrogens
K1 K1+ 4 e 0.4194(4) 0.1559(3) 0.1876(4) 1. 0 
K2 K1+ 4 e 1.1503(4) 0.3197(3) 0.6577(4) 1. 0 
Pt1 Pt2+ 2 a 0 0 0 1. 0 
Pt2 Pt2+ 2 d 0 0 0.5 1. 0 
N1 N3+ 4 e 0.0713(16) 0.1304(9) -.1042(13) 1. 0 
N2 N3+ 4 e 0.2354(16) -.0684(10) -.0146(14) 1. 0 
N3 N3+ 4 e -.2505(15) -.0240(9) 0.4171(14) 1. 0 
N4 N3+ 4 e 0.0071(16) 0.1423(10) 0.3994(13) 1. 0 
O1 O2- 4 e 0.2080(16) 0.174(1) -.0687(13) 1. 0 
O2 O2- 4 e -.0298(14) 0.1653(11) -.2074(13) 1. 0 
O3 O2- 4 e 0.3585(15) -.0523(10) 0.0802(15) 1. 0 
O4 O2- 4 e 0.2514(16) -.1268(10) -.1138(15) 1. 0 
O5 O2- 4 e -.3578(14) 0.0485(9) 0.4119(14) 1. 0 
O6 O2- 4 e -.2948(14) -.1122(9) 0.3766(14) 1. 0 
O7 O2- 4 e -.0792(15) 0.2148(8) 0.4389(11) 1. 0 
O8 O2- 4 e 0.1046(14) 0.1528(9) 0.3011(13) 1. 0 

loop_
_atom_site_aniso_label
_atom_site_aniso_type_symbol
_atom_site_aniso_B_11
_atom_site_aniso_B_22
_atom_site_aniso_B_33
_atom_site_aniso_B_12
_atom_site_aniso_B_13
_atom_site_aniso_B_23
K1 K1+ 1.99(13) 2.69(14) 2.84(14) 0.02(12) 0.03(10) -.68(12)
K2 K1+ 2.06(12) 2.34(13) 2.68(13) -.38(11) -.01(10) 0.22(11)
Pt1 Pt2+ 1.50(3) 1.60(3) 1.59(3) 0.09(4) 0.14(3) 0.04(4)
Pt2 Pt2+ 1.37(3) 1.24(3) 1.81(3) 0.01(3) 0.08(3) -.04(3)
N1 N3+ 1.97(54) 1.55(48) 2.37(55) -.04(41) 0.28(43) 0.45(40)
N2 N3+ 1.72(48) 2.36(51) 2.07(51) 0.00(42) 0.07(39) 0.32(42)
N3 N3+ 1.25(44) 2.04(57) 2.90(54) 0.12(35) 0.06(39) 0.17(38)
N4 N3+ 1.95(53) 2.19(53) 1.68(47) -.53(44) -.57(40) 0.62(42)
O1 O2- 3.64(60) 3.74(62) 3.67(57) -2.08(53) -.05(47) 0.51(51)
O2 O2- 2.37(50) 4.87(68) 3.35(53) 0.38(50) 0.18(40) 2.00(52)
O3 O2- 2.40(58) 2.89(61) 5.11(73) 0.24(48) -.56(50) 0.30(53)
O4 O2- 2.58(52) 4.87(70) 3.81(59) 1.48(50) 0.47(45) -1.54(52)
O5 O2- 2.13(53) 2.68(57) 4.68(68) 0.68(45) -.38(47) -.28(49)
O6 O2- 2.47(50) 1.94(46) 4.89(64) -.62(39) -.46(46) -1.13(44)
O7 O2- 3.52(55) 1.27(39) 2.87(48) 0.56(38) 0.65(43) -.05(35)
O8 O2- 1.88(44) 3.60(56) 3.59(54) -.23(43) 0.52(39) 1.24(48)
#End of data_200907-ICSD


