data_413874-ICSD
#?2014 by Fachinformationszentrum Karlsruhe, and the U.S. Secretary of 
#Commerce on behalf of the United States.  All rights reserved.
_database_code_ICSD                413874
_audit_creation_date               2005/10/01
_chemical_name_systematic          'Calcium Dithallium(III) Oxide'
_chemical_formula_structural       'Ca Tl2 O4'
_chemical_formula_sum              'Ca1 O4 Tl2'
_publ_section_title
;
Synthesis and crystal structure of the alkaline-earth thallates Mn(n) 
Tl2 O(3+n) (M = Ca, Sr)
;
loop_
_citation_id
_citation_journal_abbrev
_citation_year
_citation_journal_volume
_citation_page_first
_citation_page_last
_citation_journal_id_ASTM
primary 'Solid State Sciences' 2004 6 433 441 SSSCFJ
_publ_author_name
;
Berastegui, P.;Eriksson, S.;Hull, S.;Garcia Garcia, F.J.;Eriksen, J.
;
_cell_length_a                     3.325943(34)
_cell_length_b                     11.02014(12)
_cell_length_c                     10.48101(11)
_cell_angle_alpha                  90.0
_cell_angle_beta                   90.0
_cell_angle_gamma                  90.0
_cell_volume                       384.15
_cell_formula_units_Z              4
_symmetry_space_group_name_H-M     'C m c m'
_symmetry_Int_Tables_number        63
loop_
_symmetry_equiv_pos_site_id
_symmetry_equiv_pos_as_xyz
  1	'-x, y, -z+.5'
  2	'-x, -y, z+.5'
  3	'-x, y, z'
  4	'-x, -y, -z'
  5	'x, -y, z+.5'
  6	'x, y, -z+.5'
  7	'x, -y, -z'
  8	'x, y, z'
  9	'-x+.5, y+.5, -z+.5'
 10	'-x+.5, -y+.5, z+.5'
 11	'-x+.5, y+.5, z'
 12	'-x+.5, -y+.5, -z'
 13	'x+.5, -y+.5, z+.5'
 14	'x+.5, y+.5, -z+.5'
 15	'x+.5, -y+.5, -z'
 16	'x+.5, y+.5, z'
loop_
_atom_type_symbol
_atom_type_oxidation_number
Ca2+	2
O2-	-2
Tl3+	3
loop_
_atom_site_label
_atom_site_type_symbol
_atom_site_symmetry_multiplicity
_atom_site_Wyckoff_symbol
_atom_site_fract_x
_atom_site_fract_y
_atom_site_fract_z
_atom_site_occupancy
_atom_site_attached_hydrogens
_atom_site_U_iso_or_equiv
Tl1 Tl3+ 8 f 0.0 0.36529(6) 0.07205(5) 1.0 0 0.00547 
Ca1 Ca2+ 4 c 0.0 0.10891(12) 0.25 1.0 0 0.00956 
O1 O2- 8 f 0.0 0.27939(9) 0.61634(7) 1.0 0 0.0073 
O2 O2- 4 a 0.0 0.0 0.0 1.0 0 0.01236 
O3 O2- 4 c 0.0 0.46091(13) 0.25 1.0 0 0.00737 

loop_
_atom_site_aniso_label
_atom_site_aniso_type_symbol
_atom_site_aniso_U_11
_atom_site_aniso_U_22
_atom_site_aniso_U_33
_atom_site_aniso_U_12
_atom_site_aniso_U_13
_atom_site_aniso_U_23
Tl1 Tl3+ 0.00502(21) 0.00520(21) 0.00619(19) 0.0 0.0 -0.00173(20)
Ca1 Ca2+ 0.0016(5) 0.0072(7) 0.0199(7) 0.0 0.0 0.0
O1 O2- 0.0092(4) 0.0056(4) 0.00708(29) 0.0 0.0 0.00166(28)
O2 O2- 0.0048(5) 0.0094(5) 0.0229(6) 0.0 0.0 0.0084(5)
O3 O2- 0.0106(5) 0.0069(5) 0.0047(4) 0.0 0.0 0.0
#End of data_413874-ICSD


