data_280313-ICSD
#?2014 by Fachinformationszentrum Karlsruhe, and the U.S. Secretary of 
#Commerce on behalf of the United States.  All rights reserved.
_database_code_ICSD                280313
_audit_creation_date               2002/04/01
_audit_update_record               2008/02/01
_chemical_name_systematic
;
Potassium Trinickel Arsenate(V) Diarsenate(V)
;
_chemical_formula_structural       'K Ni3 (As O4) (As2 O7)'
_chemical_formula_sum              'As3 K1 Ni3 O11'
_publ_section_title                'K Ni3 (As O4) (As2 O7)'
loop_
_citation_id
_citation_journal_abbrev
_citation_year
_citation_journal_volume
_citation_page_first
_citation_page_last
_citation_journal_id_ASTM
primary 'Acta Crystallographica, Section C: Crystal Structure Communications'
 2000 56 513 514 ACSCEE
_publ_author_name                  'Ben Smail, R.;Jouini, T.'
_cell_length_a                     10.066(1)
_cell_length_b                     9.681(2)
_cell_length_c                     10.234(1)
_cell_angle_alpha                  90.
_cell_angle_beta                   119.780(1)
_cell_angle_gamma                  90.
_cell_volume                       865.59
_cell_formula_units_Z              4
_symmetry_space_group_name_H-M     'P 1 21/c 1'
_symmetry_Int_Tables_number        14
_refine_ls_R_factor_all            .059
loop_
_symmetry_equiv_pos_site_id
_symmetry_equiv_pos_as_xyz
  1	'x, -y+.5, z+.5'
  2	'-x, -y, -z'
  3	'-x, y+.5, -z+.5'
  4	'x, y, z'
loop_
_atom_type_symbol
_atom_type_oxidation_number
As5+	5
K1+	1
Ni2+	2
O2-	-2
loop_
_atom_site_label
_atom_site_type_symbol
_atom_site_symmetry_multiplicity
_atom_site_Wyckoff_symbol
_atom_site_fract_x
_atom_site_fract_y
_atom_site_fract_z
_atom_site_occupancy
_atom_site_attached_hydrogens
Ni1 Ni2+ 4 e 0.91265(7) 0.13238(6) 0.73634(7) 1. 0 
Ni2 Ni2+ 4 e 0.09243(7) 0.12885(6) 0.10055(7) 1. 0 
Ni3 Ni2+ 4 e 0.73818(7) 0.13548(6) 0.38145(7) 1. 0 
K1 K1+ 4 e 0.4101(1) 0.2333(1) 0.9109(1) 1. 0 
As1 As5+ 4 e 0.09995(6) 0.15740(5) 0.43237(5) 1. 0 
As2 As5+ 4 e 0.77020(6) 0.07247(5) 0.08381(5) 1. 0 
As3 As5+ 4 e 0.59179(6) 0.05737(5) 0.73943(5) 1. 0 
O1 O2- 4 e 0.7641(4) 0.2450(3) 0.0640(4) 1. 0 
O2 O2- 4 e 0.5818(4) 0.2279(4) 0.7291(4) 1. 0 
O3 O2- 4 e 0.8965(4) 0.0149(3) 0.5653(4) 1. 0 
O4 O2- 4 e 0.7446(4) 0.0151(4) 0.2205(4) 1. 0 
O5 O2- 4 e 0.5576(4) 0.0315(4) 0.3831(4) 1. 0 
O6 O2- 4 e 0.7562(4) 0.0031(4) 0.7487(4) 1. 0 
O7 O2- 4 e 0.0753(4) 0.0027(3) 0.9153(4) 1. 0 
O8 O2- 4 e 0.2371(4) 0.2360(4) 0.5841(4) 1. 0 
O9 O2- 4 e 0.6135(4) 0.0128(4) 0.9186(4) 1. 0 
O10 O2- 4 e 0.0871(4) 0.2268(3) 0.2731(4) 1. 0 
O11 O2- 4 e 0.9383(4) 0.2388(3) 0.4152(4) 1. 0 

loop_
_atom_site_aniso_label
_atom_site_aniso_type_symbol
_atom_site_aniso_U_11
_atom_site_aniso_U_22
_atom_site_aniso_U_33
_atom_site_aniso_U_12
_atom_site_aniso_U_13
_atom_site_aniso_U_23
Ni1 Ni2+ 0.0062(3) 0.0050(3) 0.0054(3) 0.0000(2) 0.0021(2) 0.0002(2)
Ni2 Ni2+ 0.0056(3) 0.0054(3) 0.0055(3) 0.0000(2) 0.0025(2) 0.0005(2)
Ni3 Ni2+ 0.0055(3) 0.0059(3) 0.0056(3) 0.0002(2) 0.0020(2) -.0002(2)
K1 K1+ 0.0115(5) 0.0140(5) 0.0188(6) 0.0000(4) 0.0061(5) 0.0002(4)
As1 As5+ 0.0046(2) 0.0044(2) 0.0047(2) 0.0002(2) 0.0017(2) -.0002(2)
As2 As5+ 0.0040(2) 0.0050(2) 0.0046(2) 0.0000(2) 0.0016(2) -.0002(2)
As3 As5+ 0.0035(2) 0.0060(2) 0.0051(2) -.0001(2) 0.0011(2) -.0005(2)
O1 O2- 0.010(2) 0.005(2) 0.007(2) 0.000(1) 0.005(1) 0.000(1)
O2 O2- 0.005(2) 0.006(2) 0.012(2) 0.001(1) 0.002(1) 0.000(1)
O3 O2- 0.010(2) 0.003(1) 0.008(2) 0.002(1) 0.005(1) 0.000(1)
O4 O2- 0.015(2) 0.008(2) 0.010(2) -.002(1) 0.009(2) 0.000(1)
O5 O2- 0.006(2) 0.014(2) 0.006(2) -.006(1) 0.003(1) -.004(1)
O6 O2- 0.004(2) 0.008(2) 0.007(2) 0.002(1) 0.002(1) 0.001(1)
O7 O2- 0.005(2) 0.006(2) 0.008(2) -.001(1) 0.003(1) 0.001(1)
O8 O2- 0.004(2) 0.009(2) 0.008(2) -.001(1) 0.000(1) -.004(1)
O9 O2- 0.009(2) 0.011(2) 0.004(2) -.004(1) 0.001(1) 0.001(1)
O10 O2- 0.010(2) 0.008(2) 0.008(2) 0.002(1) 0.006(1) 0.001(1)
O11 O2- 0.005(2) 0.008(2) 0.008(2) 0.000(1) 0.004(1) -.001(1)
#End of data_280313-ICSD


