data_247476-ICSD
#?2014 by Fachinformationszentrum Karlsruhe, and the U.S. Secretary of 
#Commerce on behalf of the United States.  All rights reserved.
_database_code_ICSD                247476
_audit_creation_date               2011/02/01
_chemical_name_systematic          'Distrontium Zinc Disilicate'
_chemical_formula_structural       'Sr2 Zn (Si2 O7)'
_chemical_formula_sum              'O7 Si2 Sr2 Zn1'
_chemical_name_mineral             Melilite-(Sr,Zn)
_publ_section_title
;
The crystal structure of Sr-hardystonite, Sr2 Zn Si2 O7
;
loop_
_citation_id
_citation_journal_abbrev
_citation_year
_citation_journal_volume
_citation_journal_issue
_citation_page_first
_citation_page_last
_citation_journal_id_ASTM
primary 'Zeitschrift fuer Kristallographie - Crystalline Materials'
 2010 225 7 298 301 ZKCMAJ
_publ_author_name                  'Ardit, M.;Cruciani, G.;Dondi, M.'
_cell_length_a                     8.0007(1)
_cell_length_b                     8.0007(1)
_cell_length_c                     5.1722(1)
_cell_angle_alpha                  90.
_cell_angle_beta                   90.
_cell_angle_gamma                  90.
_cell_volume                       331.08
_cell_formula_units_Z              2
_symmetry_space_group_name_H-M     'P -4 21 m'
_symmetry_Int_Tables_number        113
_refine_ls_R_factor_all            .0793
loop_
_symmetry_equiv_pos_site_id
_symmetry_equiv_pos_as_xyz
  1	'-y+.5, -x+.5, z'
  2	'y, -x, -z'
  3	'y+.5, x+.5, z'
  4	'-y, x, -z'
  5	'x+.5, -y+.5, -z'
  6	'-x, -y, z'
  7	'-x+.5, y+.5, -z'
  8	'x, y, z'
loop_
_atom_type_symbol
_atom_type_oxidation_number
O2-	-2
Si4+	4
Sr2+	2
Zn2+	2
loop_
_atom_site_label
_atom_site_type_symbol
_atom_site_symmetry_multiplicity
_atom_site_Wyckoff_symbol
_atom_site_fract_x
_atom_site_fract_y
_atom_site_fract_z
_atom_site_occupancy
_atom_site_attached_hydrogens
_atom_site_U_iso_or_equiv
Sr1 Sr2+ 4 e 0.3347(1) 0.1653(1) 0.5065(2) 1. 0 0.0094(2) 
Zn1 Zn2+ 2 a 0 0 0 1. 0 0.0092(4) 
Si1 Si4+ 4 e 0.1387(2) 0.3613(2) 0.9481(5) 1. 0 0.0053(7) 
O1 O2- 2 c 0.5 0 0.1546(14) 1. 0 0.0119(23) 
O2 O2- 4 e 0.1408(5) 0.3592(5) 0.2543(6) 1. 0 0.0145(17) 
O3 O2- 8 f 0.0805(4) 0.1939(3) 0.8050(6) 1. 0 0.0110(12) 

#End of data_247476-ICSD


