data_28178-ICSD
#?2014 by Fachinformationszentrum Karlsruhe, and the U.S. Secretary of 
#Commerce on behalf of the United States.  All rights reserved.
_database_code_ICSD                28178
_audit_creation_date               1980/01/01
_audit_update_record               2007/04/01
_chemical_name_systematic          'Dilithium Digermanium Oxide'
_chemical_formula_structural       'Li2 Ge2 O5'
_chemical_formula_sum              'Ge2 Li2 O5'
_publ_section_title
;
Die Verfeinerung der Kristallstruktur von Li2 Ge2 O5
;
loop_
_citation_id
_citation_journal_abbrev
_citation_year
_citation_journal_volume
_citation_page_first
_citation_page_last
_citation_journal_id_ASTM
primary 'Monatshefte fuer Chemie' 1968 99 251 254 MOCHAP
2 'Monatshefte fuer Chemie' 1965 96 1783 1788 MOCHAP
_publ_author_name                  'Voellenkle, H.;Wittmann, A.'
_cell_length_a                     5.99
_cell_length_b                     15.19
_cell_length_c                     4.97
_cell_angle_alpha                  90.
_cell_angle_beta                   90.
_cell_angle_gamma                  90.
_cell_volume                       452.21
_cell_formula_units_Z              4
_symmetry_space_group_name_H-M     'C 1 c 1'
_symmetry_Int_Tables_number        9
_refine_ls_R_factor_all            .078
loop_
_symmetry_equiv_pos_site_id
_symmetry_equiv_pos_as_xyz
  1	'x, -y, z+.5'
  2	'x, y, z'
  3	'x+.5, -y+.5, z+.5'
  4	'x+.5, y+.5, z'
loop_
_atom_type_symbol
_atom_type_oxidation_number
Ge4+	4
Li1+	1
O2-	-2
loop_
_atom_site_label
_atom_site_type_symbol
_atom_site_symmetry_multiplicity
_atom_site_Wyckoff_symbol
_atom_site_fract_x
_atom_site_fract_y
_atom_site_fract_z
_atom_site_occupancy
_atom_site_attached_hydrogens
_atom_site_B_iso_or_equiv
Li1 Li1+ 4 a 0.34 0.056 0.525 1. 0 0.5 
Li2 Li1+ 4 a 0.66 0.056 0.025 1. 0 0.5 
Ge1 Ge4+ 4 a 0.158 0.147 0.88 1. 0 0.3 
Ge2 Ge4+ 4 a 0.845 0.147 0.38 1. 0 0.3 
O1 O2- 4 a 0.264 0.25 0.95 1. 0 0.5 
O2 O2- 4 a 0.1 0.14 0.537 1. 0 0.5 
O3 O2- 4 a 0.9 0.14 0.037 1. 0 0.5 
O4 O2- 4 a 0.343 0.0665 0.933 1. 0 0.5 
O5 O2- 4 a 0.657 0.0665 0.433 1. 0 0.5 

#End of data_28178-ICSD


