data_26840-ICSD
#?2014 by Fachinformationszentrum Karlsruhe, and the U.S. Secretary of 
#Commerce on behalf of the United States.  All rights reserved.
_database_code_ICSD                26840
_audit_creation_date               1980/01/01
_audit_update_record               2011/02/01
_chemical_name_systematic          'Lead Zinc Silicate'
_chemical_formula_structural       'Pb Zn (Si O4)'
_chemical_formula_sum              'O4 Pb1 Si1 Zn1'
_chemical_name_mineral             Larsenite
_publ_section_title
;
Crystal structure of larsenite Pb Zn Si O4
;
loop_
_citation_id
_citation_journal_abbrev
_citation_year
_citation_journal_volume
_citation_page_first
_citation_page_last
_citation_journal_id_ASTM
primary
;
Zeitschrift fuer Kristallographie, Kristallgeometrie, Kristallphysik, 
Kristallchemie (-144,1977)
;
 1967 124 115 130 ZEKGAX
_publ_author_name
;
Prewitt, C.T.;Kirchner, E.;Preisinger, A.
;
_cell_length_a                     8.2441(1)
_cell_length_b                     18.96259(20)
_cell_length_c                     5.06(1)
_cell_angle_alpha                  90.
_cell_angle_beta                   90.
_cell_angle_gamma                  90.
_cell_volume                       791.03
_cell_formula_units_Z              8
_symmetry_space_group_name_H-M     'P n a 21'
_symmetry_Int_Tables_number        33
_refine_ls_R_factor_all            .055
loop_
_symmetry_equiv_pos_site_id
_symmetry_equiv_pos_as_xyz
  1	'x+.5, -y+.5, z'
  2	'-x+.5, y+.5, z+.5'
  3	'-x, -y, z+.5'
  4	'x, y, z'
loop_
_atom_type_symbol
_atom_type_oxidation_number
O2-	-2
Pb2+	2
Si4+	4
Zn2+	2
loop_
_atom_site_label
_atom_site_type_symbol
_atom_site_symmetry_multiplicity
_atom_site_Wyckoff_symbol
_atom_site_fract_x
_atom_site_fract_y
_atom_site_fract_z
_atom_site_occupancy
_atom_site_attached_hydrogens
_atom_site_B_iso_or_equiv
Pb1 Pb2+ 4 a 0.0373(1) 0.2702(1) 0.25 1. 0 0 
Pb2 Pb2+ 4 a 0.1476(1) 0.0588(1) 0.2780(4) 1. 0 0 
Zn1 Zn2+ 4 a 0.8220(4) 0.1560(2) 0.7170(9) 1. 0 0 
Zn2 Zn2+ 4 a 0.5017(4) 0.0579(2) 0.7220(9) 1. 0 0 
Si1 Si4+ 4 a 0.2008(8) 0.1781(4) 0.726(2) 1. 0 0 
Si2 Si4+ 4 a 0.7312(8) 0.0739(4) 0.215(2) 1. 0 0 
O1 O2- 4 a 0.220(3) 0.257(1) 0.593(6) 1. 0 1.4(4) 
O2 O2- 4 a 0.351(2) 0.130(1) 0.646(5) 1. 0 0.7(3) 
O3 O2- 4 a 0.037(2) 0.147(1) 0.584(5) 1. 0 0.8(4) 
O4 O2- 4 a 0.173(3) 0.183(1) 0.042(5) 1. 0 1.3(4) 
O5 O2- 4 a 0.748(3) 0.152(1) 0.081(5) 1. 0 0.9(4) 
O6 O2- 4 a 0.572(2) 0.034(1) 0.081(5) 1. 0 0.7(4) 
O7 O2- 4 a 0.886(3) 0.024(1) 0.144(5) 1. 0 0.8(4) 
O8 O2- 4 a 0.703(3) 0.079(1) 0.532(5) 1. 0 1.1(4) 

#End of data_26840-ICSD


