data_246227-ICSD
#?2014 by Fachinformationszentrum Karlsruhe, and the U.S. Secretary of 
#Commerce on behalf of the United States.  All rights reserved.
_database_code_ICSD                246227
_audit_creation_date               2009/08/01
_chemical_name_systematic          'Tribarium Dialuminate'
_chemical_formula_structural       'Ba3 (Al2 O6)'
_chemical_formula_sum              'Al2 Ba3 O6'
_publ_section_title
;
On the symmetry of Ba3 Al2 O6 - X-ray diffraction and Raman 
spectroscopy
;
loop_
_citation_id
_citation_journal_abbrev
_citation_year
_citation_journal_volume
_citation_journal_issue
_citation_page_first
_citation_page_last
_citation_journal_id_ASTM
primary 'Solid State Sciences' 2009 11 1 77 84 SSSCFJ
_publ_author_name
;
Lazic, B.;Kahlenberg, V.;Kaindl, R.;Kremenovic, A.
;
_cell_length_a                     16.4984(5)
_cell_length_b                     16.4984(5)
_cell_length_c                     16.4984(5)
_cell_angle_alpha                  90.
_cell_angle_beta                   90.
_cell_angle_gamma                  90.
_cell_volume                       4490.82
_cell_formula_units_Z              24
_symmetry_space_group_name_H-M     'P 21 3'
_symmetry_Int_Tables_number        198
_refine_ls_R_factor_all            .0403
loop_
_symmetry_equiv_pos_site_id
_symmetry_equiv_pos_as_xyz
  1	'-z+.5, -x, y+.5'
  2	'-y+.5, -z, x+.5'
  3	'-x+.5, -y, z+.5'
  4	'-z, x+.5, -y+.5'
  5	'-y, z+.5, -x+.5'
  6	'-x, y+.5, -z+.5'
  7	'z+.5, -x+.5, -y'
  8	'y+.5, -z+.5, -x'
  9	'x+.5, -y+.5, -z'
 10	'z, x, y'
 11	'y, z, x'
 12	'x, y, z'
loop_
_atom_type_symbol
_atom_type_oxidation_number
Al3+	3
Ba2+	2
O2-	-2
loop_
_atom_site_label
_atom_site_type_symbol
_atom_site_symmetry_multiplicity
_atom_site_Wyckoff_symbol
_atom_site_fract_x
_atom_site_fract_y
_atom_site_fract_z
_atom_site_occupancy
_atom_site_attached_hydrogens
_atom_site_U_iso_or_equiv
Ba1 Ba2+ 4 a 0.0046(1) 0.0046(1) 0.0046(1) 1. 0 0.017(1) 
Ba2 Ba2+ 4 a 0.2528(1) 0.2528(1) 0.2528(1) 1. 0 0.015(1) 
Ba3 Ba2+ 4 a 0.8745(1) 0.8745(1) 0.8745(1) 1. 0 0.011(1) 
Ba4 Ba2+ 4 a 0.1281(1) 0.1281(1) 0.1281(1) 1. 0 0.014(1) 
Ba5 Ba2+ 4 a 0.6233(1) 0.6233(1) 0.6233(1) 1. 0 0.014(1) 
Ba6 Ba2+ 4 a 0.3912(1) 0.3912(1) 0.3912(1) 1. 0 0.016(1) 
Ba7 Ba2+ 12 b 0.8658(1) 0.8645(1) 0.6468(1) 1. 0 0.011(1) 
Ba8 Ba2+ 12 b 0.1134(1) 0.1054(1) 0.3947(1) 1. 0 0.014(1) 
Ba9 Ba2+ 12 b 0.6340(1) 0.6351(1) 0.8497(1) 1. 0 0.010(1) 
Ba10 Ba2+ 12 b 0.3724(1) 0.3801(1) 0.1176(1) 1. 0 0.015(1) 
Al1 Al3+ 12 b 0.0021(1) 0.7286(1) 0.7300(1) 1. 0 0.007(1) 
Al2 Al3+ 12 b 0.4954(1) 0.7688(1) 0.7658(1) 1. 0 0.007(1) 
Al3 Al3+ 12 b 0.7444(1) 0.5162(1) 0.9812(1) 1. 0 0.005(1) 
Al4 Al3+ 12 b 0.7500(1) -0.0173(2) 0.5180(2) 1. 0 0.008(1) 
O1 O2- 12 b 0.6228(3) 0.9973(3) 0.7375(3) 1. 0 0.013(1) 
O2 O2- 12 b 0.8754(4) 0.4997(3) 0.7590(4) 1. 0 0.014(1) 
O3 O2- 12 b 0.6613(4) 0.5162(4) 0.5149(4) 1. 0 0.018(1) 
O4 O2- 12 b 0.3332(3) 0.4710(3) 0.5269(3) 1. 0 0.014(1) 
O5 O2- 12 b 0.5899(4) 0.7348(3) 0.7346(3) 1. 0 0.014(1) 
O6 O2- 12 b 0.4071(3) 0.2297(4) 0.2651(4) 1. 0 0.018(1) 
O7 O2- 12 b 0.1265(4) 0.2433(3) 0.0016(3) 1. 0 0.012(1) 
O8 O2- 12 b 0.3771(4) 0.2545(3) 0.4997(4) 1. 0 0.013(1) 
O9 O2- 12 b 0.9088(4) 0.7650(4) 0.7638(4) 1. 0 0.014(1) 
O10 O2- 12 b 0.0933(4) 0.2732(4) 0.2304(4) 1. 0 0.16(1) 
O11 O2- 12 b 0.1557(3) 0.0271(3) 0.9786(3) 1. 0 0.014(1) 
O12 O2- 12 b 0.8485(4) 0.9914(4) 0.9869(4) 1. 0 0.018(1) 

loop_
_atom_site_aniso_label
_atom_site_aniso_type_symbol
_atom_site_aniso_U_11
_atom_site_aniso_U_22
_atom_site_aniso_U_33
_atom_site_aniso_U_12
_atom_site_aniso_U_13
_atom_site_aniso_U_23
Ba1 Ba2+ 0.017(1) 0.017(1) 0.017(1) 0.000(1) 0.000(1) 0.000(1)
Ba2 Ba2+ 0.015(1) 0.015(1) 0.015(1) 0.000(1) 0.000(1) 0.000(1)
Ba3 Ba2+ 0.011(1) 0.011(1) 0.011(1) -0.004(1) -0.004(1) -0.004(1)
Ba4 Ba2+ 0.014(1) 0.014(1) 0.014(1) 0.003(1) 0.003(1) 0.003(1)
Ba5 Ba2+ 0.014(1) 0.014(1) 0.014(1) -0.002(1) -0.002(1) -0.002(1)
Ba6 Ba2+ 0.016(1) 0.016(1) 0.016(1) 0.005(1) 0.005(1) 0.005(1)
Ba7 Ba2+ 0.010(1) 0.010(1) 0.012(1) 0.001(1) -0.002(1) -0.001(1)
Ba8 Ba2+ 0.015(1) 0.015(1) 0.012(1) 0.007(1) -0.004(1) 0.000(1)
Ba9 Ba2+ 0.010(1) 0.009(1) 0.011(1) 0.002(1) -0.001(1) 0.000(1)
Ba10 Ba2+ 0.016(1) 0.018(1) 0.012(1) 0.004(1) -0.003(1) -0.002(1)
Al1 Al3+ 0.007(1) 0.007(1) 0.006(1) 0.001(1) 0.002(1) -0.002(1)
Al2 Al3+ 0.007(1) 0.007(1) 0.006(1) 0.001(1) 0.002(1) -0.002(1)
Al3 Al3+ 0.006(1) 0.006(1) 0.004(1) 0.001(1) 0.002(1) 0.001(1)
Al4 Al3+ 0.007(1) 0.005(1) 0.011(1) 0.002(1) -0.001(1) 0.002(1)
O1 O2- 0.007(2) 0.020(3) 0.013(2) -0.006(2) 0.002(2) 0.001(2)
O2 O2- 0.011(2) 0.014(2) 0.017(3) 0.007(2) 0.005(2) -0.003(2)
O3 O2- 0.014(2) 0.022(2) 0.017(2) 0.012(1) 0.006(1) 0.004(1)
O4 O2- 0.010(1) 0.015(1) 0.017(2) 0.005(1) -0.005(1) 0.003(1)
O5 O2- 0.013(1) 0.014(1) 0.015(1) 0.007(1) 0.009(1) 0.001(1)
O6 O2- 0.006(2) 0.021(3) 0.026(3) -0.007(2) -0.002(2) 0.010(2)
O7 O2- 0.007(2) 0.014(2) 0.016(2) -0.003(2) -0.002(2) -0.002(2)
O8 O2- 0.005(2) 0.013(2) 0.020(3) 0.003(2) 0.003(2) -0.002(2)
O9 O2- 0.013(1) 0.014(1) 0.015(1) 0.007(1) 0.009(1) 0.001(1)
O10 O2- 0.014(2) 0.019(3) 0.014(2) 0.003(2) 0.000(2) 0.008(2)
O11 O2- 0.010(1) 0.015(1) 0.017(2) 0.005(1) -0.005(1) 0.003(1)
O12 O2- 0.014(2) 0.022(2) 0.017(2) 0.012(1) 0.006(1) 0.004(1)
#End of data_246227-ICSD


