data_92876-ICSD
#?2014 by Fachinformationszentrum Karlsruhe, and the U.S. Secretary of 
#Commerce on behalf of the United States.  All rights reserved.
_database_code_ICSD                92876
_audit_creation_date               2003/04/01
_chemical_name_systematic          'Lithium Sulfamate(VI)'
_chemical_formula_structural       'Li (N H2 S O3)'
_chemical_formula_sum              'H2 Li1 N1 O3 S1'
_publ_section_title
;
Crystal growth, crystal structure and physical properties of lithium 
sulfamate Li (N H2 S O3)
;
loop_
_citation_id
_citation_journal_abbrev
_citation_year
_citation_journal_volume
_citation_journal_issue
_citation_page_first
_citation_page_last
_citation_journal_id_ASTM
primary 'Crystal Research and Technology' 2001 36 4 347 360 CRTEDF
_publ_author_name                  'Stade, J.;Held, P.;Bohaty, L.'
_cell_length_a                     16.253(2)
_cell_length_b                     5.0529(3)
_cell_length_c                     8.2469(7)
_cell_angle_alpha                  90
_cell_angle_beta                   90
_cell_angle_gamma                  90
_cell_volume                       677.27
_cell_formula_units_Z              8
_symmetry_space_group_name_H-M     'P c a 21'
_symmetry_Int_Tables_number        29
_refine_ls_R_factor_all            .019
loop_
_symmetry_equiv_pos_site_id
_symmetry_equiv_pos_as_xyz
  1	'x+.5, -y, z'
  2	'-x+.5, y, z+.5'
  3	'-x, -y, z+.5'
  4	'x, y, z'
loop_
_atom_type_symbol
_atom_type_oxidation_number
H1+	1
Li1+	1
N3-	-3
O2-	-2
S6+	6
loop_
_atom_site_label
_atom_site_type_symbol
_atom_site_symmetry_multiplicity
_atom_site_Wyckoff_symbol
_atom_site_fract_x
_atom_site_fract_y
_atom_site_fract_z
_atom_site_occupancy
_atom_site_attached_hydrogens
_atom_site_U_iso_or_equiv
Li1 Li1+ 4 a 0.4094(2) 0.0516(5) 0.2807(5) 1. 0 0.0209(6) 
Li2 Li1+ 4 a 0.3420(2) 0.5439(5) 0.4869(5) 1. 0 0.0214(7) 
S1 S6+ 4 a 0.40648(2) 0.04371(6) 0.65109(4) 1. 0 0.01475(9) 
S2 S6+ 4 a 0.34326(2) 0.55001(6) 0.11681(4) 1. 0 0.01466(9) 
O1 O2- 4 a 0.41491(6) 0.3264(2) 0.6196(2) 1. 0 0.0224(2) 
O2 O2- 4 a 0.47745(7) -0.0645(2) 0.7329(2) 1. 0 0.0276(3) 
O3 O2- 4 a 0.38509(7) -0.0955(2) 0.5007(1) 1. 0 0.0215(2) 
O4 O2- 4 a 0.34217(6) 0.8354(2) 0.1442(2) 1. 0 0.0235(2) 
O5 O2- 4 a 0.36312(7) 0.4105(2) 0.2675(1) 1. 0 0.0209(2) 
O6 O2- 4 a 0.26845(7) 0.4577(2) 0.0408(2) 1. 0 0.0276(3) 
N1 N3- 4 a 0.3304(1) -0.0198(3) 0.7707(3) 1.000 0 0.0244(4) 
N2 N3- 4 a 0.4162(1) 0.4641(3) -0.0066(2) 1.000 0 0.0235(4) 
H1 H1+ 4 a 0.338(2) 0.052(4) 0.855(4) 1. 0 0.035(7) 
H2 H1+ 4 a 0.285(1) 0.022(4) 0.728(4) 1. 0 0.027(6) 
H3 H1+ 4 a 0.459(1) 0.506(5) 0.026(4) 1. 0 0.044(8) 
H4 H1+ 4 a 0.408(2) 0.559(6) -0.097(2) 1. 0 0.074(12) 

#End of data_92876-ICSD


