data_153628-ICSD
#?2014 by Fachinformationszentrum Karlsruhe, and the U.S. Secretary of 
#Commerce on behalf of the United States.  All rights reserved.
_database_code_ICSD                153628
_audit_creation_date               2007/04/01
_chemical_name_systematic          'Potassium Calcium Fluoride'
_chemical_formula_structural       'K Ca F3'
_chemical_formula_sum              'Ca1 F3 K1'
_publ_section_title
;
The crystal structure of K Ca F3 at 4.2 and 300 K: a re-evaluation 
using high-resolution powder neutron diffraction
;
loop_
_citation_id
_citation_journal_abbrev
_citation_year
_citation_journal_volume
_citation_journal_issue
_citation_page_first
_citation_page_last
_citation_journal_id_ASTM
primary 'Powder Diffraction' 2005 20 1 7 13 PODIE2
_publ_author_name
;
Knight, K.S.;Darlington, C.N.W.;Wood, I.G.
;
_cell_length_a                     6.22879(5)
_cell_length_b                     8.70031(7)
_cell_length_c                     6.11210(5)
_cell_angle_alpha                  90.
_cell_angle_beta                   90.
_cell_angle_gamma                  90.
_cell_volume                       331.23
_cell_formula_units_Z              4
_symmetry_space_group_name_H-M     'P n m a'
_symmetry_Int_Tables_number        62
_refine_ls_R_factor_all            .033
loop_
_symmetry_equiv_pos_site_id
_symmetry_equiv_pos_as_xyz
  1	'x+.5, y, -z+.5'
  2	'x, -y+.5, z'
  3	'-x+.5, y+.5, z+.5'
  4	'-x, -y, -z'
  5	'-x+.5, -y, z+.5'
  6	'-x, y+.5, -z'
  7	'x+.5, -y+.5, -z+.5'
  8	'x, y, z'
loop_
_atom_type_symbol
_atom_type_oxidation_number
Ca2+	2
F1-	-1
K1+	1
loop_
_atom_site_label
_atom_site_type_symbol
_atom_site_symmetry_multiplicity
_atom_site_Wyckoff_symbol
_atom_site_fract_x
_atom_site_fract_y
_atom_site_fract_z
_atom_site_occupancy
_atom_site_attached_hydrogens
_atom_site_U_iso_or_equiv
K1 K1+ 4 c 0.0439(2) 0.250 0.4893(2) 1. 0 0.0076(3) 
Ca1 Ca2+ 4 a 0 0 0 1. 0 0.0053(2) 
F1 F1- 4 c -0.0290(1) 0.250 0.9163(1) 1. 0 0 
F2 F1- 8 d 0.29152(8) 0.04466(7) 0.20709(9) 1. 0 0 

loop_
_atom_site_aniso_label
_atom_site_aniso_type_symbol
_atom_site_aniso_U_11
_atom_site_aniso_U_22
_atom_site_aniso_U_33
_atom_site_aniso_U_12
_atom_site_aniso_U_13
_atom_site_aniso_U_23
F1 F1- 0.0108(5) 0.0059(5) 0.0114(5) 0.0000 -0.0013(4) 0.0000
F2 F1- 0.0081(3) 0.0108(3) 0.0082(3) -0.0006(3) -0.0007(3) 0.0004(3)
#End of data_153628-ICSD


