data_166952-ICSD
#?2014 by Fachinformationszentrum Karlsruhe, and the U.S. Secretary of 
#Commerce on behalf of the United States.  All rights reserved.
_database_code_ICSD                166952
_audit_creation_date               2010/08/01
_audit_update_record               2013/02/01
_chemical_name_systematic          'Disilver Tetraniobate'
_chemical_formula_structural       'Ag2 (Nb4 O11)'
_chemical_formula_sum              'Ag2 Nb4 O11'
_publ_section_title
;
A new family of ferroelectric materials: Me2 Nb4 O11 (Me= Na, Ag)
;
loop_
_citation_id
_citation_journal_abbrev
_citation_year
_citation_journal_volume
_citation_page_first
_citation_page_last
_citation_journal_id_ASTM
primary 'Journal of Materials Chemistry' 2010 20 2082 2084 JMACEP
_publ_author_name                  'Maso, N.;West, A.R.'
_cell_length_a                     10.76422(11)
_cell_length_b                     6.20097(5)
_cell_length_c                     12.85819(13)
_cell_angle_alpha                  90.0
_cell_angle_beta                   106.1830(15)
_cell_angle_gamma                  90.0
_cell_volume                       824.26
_cell_formula_units_Z              4
_symmetry_space_group_name_H-M     'C 1 c 1'
_symmetry_Int_Tables_number        9
_refine_ls_R_factor_all            .0665
loop_
_symmetry_equiv_pos_site_id
_symmetry_equiv_pos_as_xyz
  1	'x, -y, z+.5'
  2	'x, y, z'
  3	'x+.5, -y+.5, z+.5'
  4	'x+.5, y+.5, z'
loop_
_atom_type_symbol
_atom_type_oxidation_number
Ag1+	1
Nb5+	5
O2-	-2
loop_
_atom_site_label
_atom_site_type_symbol
_atom_site_symmetry_multiplicity
_atom_site_Wyckoff_symbol
_atom_site_fract_x
_atom_site_fract_y
_atom_site_fract_z
_atom_site_occupancy
_atom_site_attached_hydrogens
_atom_site_U_iso_or_equiv
Nb1 Nb5+ 4 a 0.1811(10) 0.5660(7) 0.2504(19) 1.0 0 0.0086(7) 
Nb2 Nb5+ 4 a 0.81794(17) 0.5720(8) 0.2496(4) 1.0 0 0.0064(6) 
Nb3 Nb5+ 4 a 0.00116(35) 0.1182(4) 0.2543(5) 1.0 0 0.0081(6) 
Nb4 Nb5+ 4 a 0.2532(4) 0.2589(11) 0.5034(6) 1.0 0 0.0100(5) 
Ag1 Ag1+ 4 a 0.07666(30) 0.2469(8) 0.98553(18) 1.0 0 0.0144(5) 
Ag2 Ag1+ 4 a 0.92054(32) 0.2542(10) 0.51562(18) 1.0 0 0.0281(6) 
O1 O2- 4 a 0.22835(35) 0.527(4) 0.4053(7) 1.0 0 0.0010(9) 
O2 O2- 4 a 0.76951(34) 0.504(4) 0.0922(7) 1.0 0 0.0010(9) 
O3 O2- 4 a 0.15802(35) 0.564(4) 0.0909(7) 1.0 0 0.0010(9) 
O4 O2- 4 a 0.84120(34) 0.617(4) 0.4099(7) 1.0 0 0.0010(9) 
O5 O2- 4 a 0.08384(35) 0.144(4) 0.4195(7) 1.0 0 0.0010(9) 
O6 O2- 4 a 0.92133(34) 0.130(4) 0.1051(7) 1.0 0 0.0010(9) 
O7 O2- 4 a 0.12585(35) 0.880(4) 0.2357(7) 1.0 0 0.0010(9) 
O8 O2- 4 a 0.87636(34) 0.877(5) 0.2496(7) 1.0 0 0.0010(9) 
O9 O2- 4 a 0.15993(35) 0.268(5) 0.2179(6) 1.0 0 0.0010(9) 
O10 O2- 4 a 0.83661(35) 0.251(6) 0.2771(6) 1.0 0 0.0010(9) 
O11 O2- 4 a -0.00288(35) 0.4958(25) 0.2382(7) 1.0 0 0.0010(9) 

#End of data_166952-ICSD


