data_107383-ICSD
#?2014 by Fachinformationszentrum Karlsruhe, and the U.S. Secretary of 
#Commerce on behalf of the United States.  All rights reserved.
_database_code_ICSD                107383
_audit_creation_date               2013/08/01
_chemical_name_systematic          'Aluminium Silicate Hydroxide *'
_chemical_formula_structural       'Al4 (O H)8 (Si4 O10)'
_chemical_formula_sum              'H8 Al4 O18 Si4'
_chemical_name_mineral             'Kaolinite 1A'
_publ_section_title
;
What is the Structure of Kaolinite? Reconciling Theory and Experiment
;
loop_
_citation_id
_citation_journal_abbrev
_citation_year
_citation_journal_volume
_citation_page_first
_citation_page_last
_citation_journal_id_ASTM
primary 'Clays and Clay Minerals (-28,1980)' 1988 36 225 232 CCMPA7
_publ_author_name
;
White, C.E.;Provis, J.L.;Riley, D.P.;Kearley, G.J.;van Deventer, 
J,S.J.
;
_cell_length_a                     5.149
_cell_length_b                     8.9335(1)
_cell_length_c                     7.3844(1)
_cell_angle_alpha                  91.930(1)
_cell_angle_beta                   105.042(1)
_cell_angle_gamma                  89.791(1)
_cell_volume                       327.84
_cell_formula_units_Z              1
_symmetry_space_group_name_H-M     'P 1'
_symmetry_Int_Tables_number        1
loop_
_symmetry_equiv_pos_site_id
_symmetry_equiv_pos_as_xyz
  1	'x, y, z'
loop_
_atom_type_symbol
_atom_type_oxidation_number
Al3+	3
H1+	1
O2-	-2
Si4+	4
loop_
_atom_site_label
_atom_site_type_symbol
_atom_site_symmetry_multiplicity
_atom_site_Wyckoff_symbol
_atom_site_fract_x
_atom_site_fract_y
_atom_site_fract_z
_atom_site_occupancy
_atom_site_attached_hydrogens
Al1 Al3+ 1 a 0.36198 0.49353 0.45903 1. 0 
Al2 Al3+ 1 a 0.354 0.82959 0.45771 1. 0 
Al3 Al3+ 1 a 0.86199 0.99344 0.45916 1. 0 
Al4 Al3+ 1 a 0.85415 0.32949 0.45722 1. 0 
Si1 Si4+ 1 a 0.05548 0.33515 0.07012 1. 0 
Si2 Si4+ 1 a 0.06892 0.664 0.06764 1. 0 
Si3 Si4+ 1 a 0.5556 0.83512 0.06881 1. 0 
Si4 Si4+ 1 a 0.56884 0.16384 0.07022 1. 0 
O1 O2- 1 a 0.11271 0.3498 0.29422 1. 0 
O2 O2- 1 a 0.17846 0.66134 0.2954 1. 0 
O3 O2- 1 a 0.07653 0.49626 -.02771 1. 0 
O4 O2- 1 a 0.25587 0.21863 -.00582 1. 0 
O5 O2- 1 a 0.24995 0.77035 -.02785 1. 0 
O6 O2- 1 a 0.61261 0.84977 0.2943 1. 0 
O7 O2- 1 a 0.67801 0.16109 0.29559 1. 0 
O8 O2- 1 a 0.57625 -.00379 -.02772 1. 0 
O9 O2- 1 a 0.75584 0.71858 -.00573 1. 0 
O10 O2- 1 a 0.74983 0.27032 -.02745 1. 0 
O11 O2- 1 a 0.11301 0.97006 0.30544 1. 0 
O12 O2- 1 a 0.02773 0.16594 0.58613 1. 0 
O13 O2- 1 a 0.09793 0.47636 0.58632 1. 0 
O14 O2- 1 a 0.097 0.85361 0.59282 1. 0 
O15 O2- 1 a 0.61351 0.46996 0.3055 1. 0 
O16 O2- 1 a 0.52812 0.66614 0.58579 1. 0 
O17 O2- 1 a 0.59596 0.97596 0.58591 1. 0 
O18 O2- 1 a 0.59945 0.35503 0.59393 1. 0 
H1 H1+ 1 a 0.21161 0.06415 0.31777 1. 0 
H2 H1+ 1 a 0.1164 0.17037 0.71905 1. 0 
H3 H1+ 1 a 0.11404 0.49877 0.71804 1. 0 
H4 H1+ 1 a 0.11002 0.81749 0.71707 1. 0 
H5 H1+ 1 a 0.71167 0.5642 0.31793 1. 0 
H6 H1+ 1 a 0.61729 0.66994 0.7186 1. 0 
H7 H1+ 1 a 0.61286 0.99973 0.71758 1. 0 
H8 H1+ 1 a 0.60806 0.31589 0.716 1. 0 

#End of data_107383-ICSD


