data_420521-ICSD
#?2014 by Fachinformationszentrum Karlsruhe, and the U.S. Secretary of 
#Commerce on behalf of the United States.  All rights reserved.
_database_code_ICSD                420521
_audit_creation_date               2010/02/01
_chemical_name_systematic          'Distrontium Zinc Digermanate'
_chemical_formula_structural       'Sr2 Zn (Ge2 O7)'
_chemical_formula_sum              'Ge2 O7 Sr2 Zn1'
_publ_section_title
;
Optical properties of the germanate melilites Sr2 Mg Ge2 O7, Sr2 Zn 
Ge2 O7 and Ba2 Zn Ge2 O7
;
loop_
_citation_id
_citation_journal_abbrev
_citation_year
_citation_journal_volume
_citation_journal_issue
_citation_page_first
_citation_page_last
_citation_journal_id_ASTM
primary 'Crystal Research and Technology' 2009 44 6 603 612 CRTEDF
_publ_author_name
;
Becker, P.;Held, P.;Liebertz, J.;Bohaty, L.
;
_cell_length_a                     8.1448(6)
_cell_length_b                     8.1448(6)
_cell_length_c                     5.3189(6)
_cell_angle_alpha                  90.
_cell_angle_beta                   90.
_cell_angle_gamma                  90.
_cell_volume                       352.84
_cell_formula_units_Z              2
_symmetry_space_group_name_H-M     'P -4 21 m'
_symmetry_Int_Tables_number        113
_refine_ls_R_factor_all            .0318
loop_
_symmetry_equiv_pos_site_id
_symmetry_equiv_pos_as_xyz
  1	'-y+.5, -x+.5, z'
  2	'y, -x, -z'
  3	'y+.5, x+.5, z'
  4	'-y, x, -z'
  5	'x+.5, -y+.5, -z'
  6	'-x, -y, z'
  7	'-x+.5, y+.5, -z'
  8	'x, y, z'
loop_
_atom_type_symbol
_atom_type_oxidation_number
Ge4+	4
O2-	-2
Sr2+	2
Zn2+	2
loop_
_atom_site_label
_atom_site_type_symbol
_atom_site_symmetry_multiplicity
_atom_site_Wyckoff_symbol
_atom_site_fract_x
_atom_site_fract_y
_atom_site_fract_z
_atom_site_occupancy
_atom_site_attached_hydrogens
_atom_site_U_iso_or_equiv
Sr1 Sr2+ 4 e 0.33484(8) 0.16516(8) 0.50664(14) 1 0 0.0097(2) 
Ge1 Ge4+ 4 e 0.14248(9) 0.35752(9) 0.95228(14) 1 0 0.0060(2) 
Zn1 Zn2+ 2 a 0.0000 0.0000 0.0000 1 0 0.0076(3) 
O1 O2- 2 c 0.5000 0.0000 0.1770(16) 1 0 0.010(2) 
O2 O2- 4 e 0.1386(7) 0.3614(7) 0.2752(9) 1 0 0.0078(14) 
O3 O2- 8 f 0.0813(7) 0.1789(7) 0.7945(9) 1 0 0.0119(12) 

loop_
_atom_site_aniso_label
_atom_site_aniso_type_symbol
_atom_site_aniso_U_11
_atom_site_aniso_U_22
_atom_site_aniso_U_33
_atom_site_aniso_U_12
_atom_site_aniso_U_13
_atom_site_aniso_U_23
Sr1 Sr2+ 0.0100(3) 0.0100(3) 0.0089(3) 0.0040(4) 0.0008(3) -0.0008(3)
Ge1 Ge4+ 0.0060(3) 0.0060(3) 0.0060(4) 0.0004(4) 0.0003(2) -0.0003(2)
Zn1 Zn2+ 0.0063(5) 0.0063(5) 0.0104(6) 0.000 0.000 0.000
O1 O2- 0.011(4) 0.011(4) 0.009(4) -0.007(5) 0.000 0.000
O2 O2- 0.007(2) 0.007(2) 0.009(2) 0.001(4) -0.0001(18) 0.0001(18)
O3 O2- 0.017(3) 0.006(3) 0.012(2) -0.003(3) 0.0077(19) -0.002(2)
#End of data_420521-ICSD


