data_191840-ICSD
#?2014 by Fachinformationszentrum Karlsruhe, and the U.S. Secretary of 
#Commerce on behalf of the United States.  All rights reserved.
_database_code_ICSD                191840
_audit_creation_date               2014/08/01
_chemical_name_systematic          'Lithium Aluminium Tetrahydride'
_chemical_formula_structural       'Li Al H4'
_chemical_formula_sum              'H4 Al1 Li1'
_publ_section_title
;
Huge-pressure-induced volume collapse in Li Al H4 and its 
implications to hydrogen storage
;
loop_
_citation_id
_citation_journal_abbrev
_citation_year
_citation_journal_volume
_citation_journal_issue
_citation_page_first
_citation_page_last
_citation_journal_id_ASTM
primary 'Physical Review, Serie 3. B - Condensed Matter (18,1978-)'
 2003 68 21 212101-1 212101-4 PRBMDO
_publ_author_name
;
Vajeeston, P.;Ravindran, P.;Vidya, R.;Fjellvag, H.;Kjekshus, A.
;
_cell_length_a                     6.4667
_cell_length_b                     5.3478
_cell_length_c                     6.5931
_cell_angle_alpha                  90.
_cell_angle_beta                   90.
_cell_angle_gamma                  90.
_cell_volume                       228.01
_cell_formula_units_Z              4
_symmetry_space_group_name_H-M     'P n m a'
_symmetry_Int_Tables_number        62
loop_
_symmetry_equiv_pos_site_id
_symmetry_equiv_pos_as_xyz
  1	'x+.5, y, -z+.5'
  2	'x, -y+.5, z'
  3	'-x+.5, y+.5, z+.5'
  4	'-x, -y, -z'
  5	'-x+.5, -y, z+.5'
  6	'-x, y+.5, -z'
  7	'x+.5, -y+.5, -z+.5'
  8	'x, y, z'
loop_
_atom_type_symbol
_atom_type_oxidation_number
Al3+	3
H1-	-1
Li1+	1
loop_
_atom_site_label
_atom_site_type_symbol
_atom_site_symmetry_multiplicity
_atom_site_Wyckoff_symbol
_atom_site_fract_x
_atom_site_fract_y
_atom_site_fract_z
_atom_site_occupancy
_atom_site_attached_hydrogens
Li1 Li1+ 4 c 0.2428 0.250 0.2467 1. 0 
Al1 Al3+ 4 c 0.5130 0.250 0.8221 1. 0 
H1 H1- 4 c 0.3067 0.250 0.9617 1. 0 
H2 H1- 4 c 0.7162 0.250 0.9631 1. 0 
H3 H1- 8 d 0.4889 0.9833 0.2943 1. 0 

#End of data_191840-ICSD


