data_400054-ICSD
#?2014 by Fachinformationszentrum Karlsruhe, and the U.S. Secretary of 
#Commerce on behalf of the United States.  All rights reserved.
_database_code_ICSD                400054
_audit_creation_date               1994/06/30
_chemical_name_systematic
;
Dieuropium Potassium Fluoride Phyllo-tetrasilicate
;
_chemical_formula_structural       'K Eu2 F (Si4 O10)'
_chemical_formula_sum              'Eu2 F1 K1 O10 Si4'
_publ_section_title
;
Synthesis, crystal growth and structure of KEu2(Si4O10)F
;
loop_
_citation_id
_citation_journal_abbrev
_citation_year
_citation_journal_volume
_citation_page_first
_citation_page_last
_citation_journal_id_ASTM
primary 'Zeitschrift fuer Kristallographie (1979-2010)' 1994 209 348 350 ZEKRDZ
_publ_author_name                  'Jacobsen, H.;Meyer, G.'
_cell_length_a                     11.4993(30)
_cell_length_b                     8.4879(20)
_cell_length_c                     11.6259(40)
_cell_angle_alpha                  90.
_cell_angle_beta                   112.10(1)
_cell_angle_gamma                  90.
_cell_volume                       1051.37
_cell_formula_units_Z              4
_symmetry_space_group_name_H-M     'P 1 21/n 1'
_symmetry_Int_Tables_number        14
_refine_ls_R_factor_all            .0733
loop_
_symmetry_equiv_pos_site_id
_symmetry_equiv_pos_as_xyz
  1	'-x+.5, y+.5, -z+.5'
  2	'-x, -y, -z'
  3	'x+.5, -y+.5, z+.5'
  4	'x, y, z'
loop_
_atom_type_symbol
_atom_type_oxidation_number
Eu2+	2
F1-	-1
K1+	1
O2-	-2
Si4+	4
loop_
_atom_site_label
_atom_site_type_symbol
_atom_site_symmetry_multiplicity
_atom_site_Wyckoff_symbol
_atom_site_fract_x
_atom_site_fract_y
_atom_site_fract_z
_atom_site_occupancy
_atom_site_attached_hydrogens
Eu1 Eu2+ 4 e 0.042(17) 0.218(18) 0.460(15) 1. 0 
Eu2 Eu2+ 4 e 0.288(16) 0.482(23) 0.721(13) 1. 0 
Si1 Si4+ 4 e -.016(14) 0.659(20) 0.231(11) 1. 0 
Si2 Si4+ 4 e 0.751(13) 0.123(19) 0.496(12) 1. 0 
Si3 Si4+ 4 e 0.619(12) 0.533(17) -.258(14) 1. 0 
Si4 Si4+ 4 e 0.724(15) -.026(16) 0.915(11) 1. 0 
O1 O2- 4 e 0.593(28) 0.218(29) 0.191(17) 1. 0 
O2 O2- 4 e 0.607(18) 0.084(19) 0.4041(83) 1. 0 
O3 O2- 4 e 0.756(17) 0.062(26) 0.6311(97) 1. 0 
O4 O2- 4 e 0.769(27) 0.313(15) 0.501(20) 1. 0 
O5 O2- 4 e -.018(19) -.074(25) -.264(12) 1. 0 
O6 O2- 4 e 0.738(22) 0.123(18) 0.001(14) 1. 0 
O7 O2- 4 e 0.438(22) 0.293(22) 0.31(2) 1. 0 
O8 O2- 4 e 0.413(11) 0.022(24) 0.200(18) 1. 0 
O9 O2- 4 e 0.852(15) 0.044(18) 0.454(15) 1. 0 
O10 O2- 4 e 0.834(20) -.042(18) 0.861(17) 1. 0 
K1 K1+ 4 e 0.967(32) 0.284(22) 0.074(35) 1. 0 
F1 F1- 4 e 0.361(17) 0.183(39) -.213(30) 1. 0 

loop_
_atom_site_aniso_label
_atom_site_aniso_type_symbol
_atom_site_aniso_U_11
_atom_site_aniso_U_22
_atom_site_aniso_U_33
_atom_site_aniso_U_12
_atom_site_aniso_U_13
_atom_site_aniso_U_23
Eu1 Eu2+ 0.017230(38) 0.018460(34) 0.014910(36) -.002610(35) 0.003591(29) 
-.000807(37)
Eu2 Eu2+ 0.016270(36) 0.022540(42) 0.013310(34) 0.000221(31) 0.004043(28) 
0.001088(32)
Si1 Si4+ 0.01398(22) 0.01953(21) 0.01086(20) -0.00244(16) 0.00102(17) 
-0.00003(16)
Si2 Si4+ 0.01338(21) 0.01853(21) 0.01168(20) 0.00224(16) 0.00243(16) 
0.00071(16)
Si3 Si4+ 0.01224(18) 0.01735(19) 0.01402(19) 0.00046(16) 0.00354(15) 
-0.00001(16)
Si4 Si4+ 0.01468(20) 0.01591(20) 0.01079(18) 0.00178(15) 0.00312(16) 
-0.00210(15)
O1 O2- 0.02757(57) 0.02920(51) 0.01724(49) 0.00458(47) 0.00840(42) 
0.00304(49)
O2 O2- 0.01787(50) 0.01908(47) 0.00828(46) -.00044(37) -.00278(39) 
-.00074(39)
O3 O2- 0.01719(50) 0.02562(53) 0.00970(46) 0.00379(38) 0.00117(40) 
0.00230(41)
O4 O2- 0.02704(57) 0.01497(53) 0.01963(50) -.00228(42) 0.00956(42) 
0.00161(44)
O5 O2- 0.01903(54) 0.02486(53) 0.01193(49) 0.00329(39) 0.00748(42) 
0.00244(41)
O6 O2- 0.02210(56) 0.01849(50) 0.01416(50) -.00378(40) 0.00855(43) 
0.00467(42)
O7 O2- 0.02153(52) 0.02152(47) 0.02037(49) -.00168(44) 0.01027(42) 
0.00234(46)
O8 O2- 0.01136(46) 0.02426(50) 0.01754(47) -.00034(41) -.00290(38) 
-.00082(40)
O9 O2- 0.01508(51) 0.01787(49) 0.01482(48) 0.00202(39) 0.00224(40) 
-.00209(40)
O10 O2- 0.01967(52) 0.01807(50) 0.01746(50) -.00101(38) 0.00808(42) 
-.00132(39)
K1 K1+ 0.03173(19) 0.02226(15) 0.03503(20) 0.00286(15) 0.01063(17) 
0.00241(16)
F1 F1- 0.01707(45) 0.03903(52) 0.03031(46) -.00660(39) 0.00138(36) 
-.00752(38)
#End of data_400054-ICSD


