data_68339-ICSD
#?2014 by Fachinformationszentrum Karlsruhe, and the U.S. Secretary of 
#Commerce on behalf of the United States.  All rights reserved.
_database_code_ICSD                68339
_audit_creation_date               1991/07/10
_chemical_name_systematic
;
Dilithium Nickel Trigermanium Oxide
;
_chemical_formula_structural       'Li2 Ni Ge3 O8'
_chemical_formula_sum              'Ge3 Li2 Ni1 O8'
_publ_section_title
;
Formation and structure of spinel solid solution in Li2O - MO - GeO2 
(M=Zn,Co,Ni) system
;
loop_
_citation_id
_citation_journal_abbrev
_citation_year
_citation_journal_volume
_citation_page_first
_citation_page_last
_citation_journal_id_ASTM
primary 'Nippon Seramikkusu Kyokai Gakujutsu Ronbunshi' 1988 96 92 96 NSKRE2
_publ_author_name
;
Hirota, K.;Ohtani, M.;Mochida, N.;Ohtsuka, A.
;
_cell_length_a                     8.181
_cell_length_b                     8.181
_cell_length_c                     8.181
_cell_angle_alpha                  90.
_cell_angle_beta                   90.
_cell_angle_gamma                  90.
_cell_volume                       547.54
_cell_formula_units_Z              4
_symmetry_space_group_name_H-M     'P 43 3 2'
_symmetry_Int_Tables_number        212
_refine_ls_R_factor_all            .0614
loop_
_symmetry_equiv_pos_site_id
_symmetry_equiv_pos_as_xyz
  1	'z+.25, y+.75, -x+.75'
  2	'-z+.75, y+.25, x+.75'
  3	'y+.25, x+.75, -z+.75'
  4	'-y+.75, x+.25, z+.75'
  5	'x+.25, z+.75, -y+.75'
  6	'-x+.75, z+.25, y+.75'
  7	'z+.75, -y+.75, x+.25'
  8	'-z+.25, -y+.25, -x+.25'
  9	'y+.75, -x+.75, z+.25'
 10	'-y+.25, -x+.25, -z+.25'
 11	'x+.75, -z+.75, y+.25'
 12	'-x+.25, -z+.25, -y+.25'
 13	'-y+.5, -z, x+.5'
 14	'-y, z+.5, -x+.5'
 15	'y+.5, -z+.5, -x'
 16	'y, z, x'
 17	'z+.5, -x+.5, -y'
 18	'-z+.5, -x, y+.5'
 19	'-z, x+.5, -y+.5'
 20	'z, x, y'
 21	'-x+.5, -y, z+.5'
 22	'-x, y+.5, -z+.5'
 23	'x+.5, -y+.5, -z'
 24	'x, y, z'
loop_
_atom_type_symbol
_atom_type_oxidation_number
Ge4+	4
Li1+	1
Ni2+	2
O2-	-2
loop_
_atom_site_label
_atom_site_type_symbol
_atom_site_symmetry_multiplicity
_atom_site_Wyckoff_symbol
_atom_site_fract_x
_atom_site_fract_y
_atom_site_fract_z
_atom_site_occupancy
_atom_site_attached_hydrogens
_atom_site_B_iso_or_equiv
Li1 Li1+ 8 c 0.0204(39) 0.0204(39) 0.0204(39) 1. 0 7.71(71) 
Ni1 Ni2+ 4 b 0.625 0.625 0.625 1. 0 2.08(19) 
Ge1 Ge4+ 12 d 0.125 0.3748(3) 0.8752(3) 1. 0 1.51(5) 
O1 O2- 8 c 0.3816(8) 0.3816(8) 0.3816(8) 1. 0 0.11(44) 
O2 O2- 24 e 0.0934(9) 0.1241(12) 0.3891(11) 1. 0 0.47(15) 

#End of data_68339-ICSD


