data_415534-ICSD
#?2014 by Fachinformationszentrum Karlsruhe, and the U.S. Secretary of 
#Commerce on behalf of the United States.  All rights reserved.
_database_code_ICSD                415534
_audit_creation_date               2006/10/01
_chemical_name_systematic
;
Silver Lanthanum Tetrakis(phosphate(V))
;
_chemical_formula_structural       'Ag La (P O3)4'
_chemical_formula_sum              'Ag1 La1 O12 P4'
_publ_section_title
;
Synthesis, crystal structure and vibrational spectra characterization 
of M(I) La (P O3)4
;
loop_
_citation_id
_citation_journal_abbrev
_citation_year
_citation_journal_volume
_citation_journal_issue
_citation_page_first
_citation_page_last
_citation_journal_id_ASTM
primary 'Journal of Solid State Chemistry' 2005 178 11 3581 3588 JSSCBI
_publ_author_name
;
El Masloumi, M.;Imaz, I.;Chaminade, J.P.;Videau, J.J.;Couzi, 
M.;Mesnaoui, M.;Maazaz, M.
;
_cell_length_a                     7.3001(5)
_cell_length_b                     13.2115(9)
_cell_length_c                     10.0795(7)
_cell_angle_alpha                  90.00
_cell_angle_beta                   90.47(4)
_cell_angle_gamma                  90.00
_cell_volume                       972.09
_cell_formula_units_Z              4
_symmetry_space_group_name_H-M     'P 1 21/n 1'
_symmetry_Int_Tables_number        14
_refine_ls_R_factor_all            .0555
loop_
_symmetry_equiv_pos_site_id
_symmetry_equiv_pos_as_xyz
  1	'-x+.5, y+.5, -z+.5'
  2	'-x, -y, -z'
  3	'x+.5, -y+.5, z+.5'
  4	'x, y, z'
loop_
_atom_type_symbol
_atom_type_oxidation_number
Ag1+	1
La3+	3
O2-	-2
P5+	5
loop_
_atom_site_label
_atom_site_type_symbol
_atom_site_symmetry_multiplicity
_atom_site_Wyckoff_symbol
_atom_site_fract_x
_atom_site_fract_y
_atom_site_fract_z
_atom_site_occupancy
_atom_site_attached_hydrogens
_atom_site_U_iso_or_equiv
La1 La3+ 4 e 0.51324(9) 0.21545(5) 0.97618(7) 1 0 0.0173(3) 
P1 P5+ 4 e 0.2668(4) 0.0880(2) 0.6960(3) 1 0 0.0175(7) 
O1 O2- 4 e 0.2353(11) 0.1569(6) 0.5824(9) 1 0 0.023(2) 
O2 O2- 4 e 0.0879(11) 0.0785(6) 0.7847(8) 1 0 0.0187(19) 
O3 O2- 4 e 0.4225(11) 0.1069(6) 0.7858(9) 1 0 0.0216(19) 
O4 O2- 4 e 0.8687(12) 0.1900(6) 0.6556(9) 1 0 0.0221(19) 
O5 O2- 4 e 0.8084(12) 0.1402(6) 0.8956(9) 1 0 0.0217(19) 
O6 O2- 4 e 0.7864(12) 0.0149(6) 0.7051(9) 1 0 0.0206(19) 
P2 P5+ 4 e 0.8809(4) 0.1138(2) 0.7626(3) 1 0 0.0168(7) 
O7 O2- 4 e 0.2814(11) -0.0233(6) 0.6316(8) 1 0 0.0170(18) 
P3 P5+ 4 e 0.7472(4) -0.0973(2) 0.7537(3) 1 0 0.0171(7) 
P4 P5+ 4 e 0.3557(4) -0.1265(2) 0.6931(3) 1 0 0.0175(7) 
O8 O2- 4 e 0.2870(11) -0.2087(6) 0.6053(9) 1 0 0.0211(19) 
O9 O2- 4 e 0.3205(12) -0.1317(6) 0.8359(9) 1 0 0.0223(19) 
O10 O2- 4 e 0.5689(11) -0.1201(6) 0.6659(8) 1 0 0.0186(18) 
O11 O2- 4 e 0.7092(12) -0.1023(6) 0.8967(9) 1 0 0.023(2) 
O12 O2- 4 e 0.8972(12) -0.1619(6) 0.7046(9) 1 0 0.023(2) 
Ag1 Ag1+ 4 e 0.50133(15) 0.27684(8) 0.56809(12) 1 0 0.0331(4) 

loop_
_atom_site_aniso_label
_atom_site_aniso_type_symbol
_atom_site_aniso_U_11
_atom_site_aniso_U_22
_atom_site_aniso_U_33
_atom_site_aniso_U_12
_atom_site_aniso_U_13
_atom_site_aniso_U_23
La1 La3+ 0.0155(4) 0.0169(4) 0.0194(4) 0.0000(3) -0.0002(3) 0.0001(3)
P1 P5+ 0.0159(16) 0.0157(15) 0.0208(17) -0.0003(12) 0.0013(12) -0.0001(12)
O1 O2- 0.017(4) 0.023(5) 0.029(5) 0.003(3) 0.004(4) 0.005(4)
O2 O2- 0.014(4) 0.018(4) 0.024(5) 0.002(3) 0.002(4) 0.000(4)
O3 O2- 0.016(4) 0.019(4) 0.029(5) -0.003(3) -0.004(4) -0.002(4)
O4 O2- 0.016(4) 0.021(4) 0.029(5) 0.001(4) 0.004(4) 0.003(4)
O5 O2- 0.023(5) 0.018(4) 0.025(5) 0.001(4) 0.001(4) -0.002(4)
O6 O2- 0.023(5) 0.017(4) 0.023(5) -0.004(3) -0.004(4) 0.000(4)
P2 P5+ 0.0157(16) 0.0152(15) 0.0195(17) 0.0007(12) 0.0015(12) 0.0004(12)
O7 O2- 0.022(4) 0.014(4) 0.015(4) 0.003(3) -0.001(3) 0.001(3)
P3 P5+ 0.0152(15) 0.0159(15) 0.0201(17) -0.0009(12) -0.0011(12) -0.0009(12)
P4 P5+ 0.0163(16) 0.0166(15) 0.0195(17) 0.0006(13) -0.0010(13) 0.0009(13)
O8 O2- 0.013(4) 0.022(4) 0.029(5) -0.004(3) -0.001(4) -0.003(4)
O9 O2- 0.022(5) 0.018(4) 0.028(5) 0.002(4) -0.001(4) 0.002(4)
O10 O2- 0.013(4) 0.023(4) 0.020(5) -0.001(3) 0.002(3) -0.003(4)
O11 O2- 0.021(5) 0.021(4) 0.026(5) -0.001(4) 0.003(4) -0.003(4)
O12 O2- 0.023(5) 0.021(4) 0.025(5) 0.010(4) -0.005(4) -0.003(4)
Ag1 Ag1+ 0.0245(6) 0.0449(7) 0.0298(7) -0.0078(4) -0.0022(5) -0.0036(5)
#End of data_415534-ICSD


