data_72099-ICSD
#?2014 by Fachinformationszentrum Karlsruhe, and the U.S. Secretary of 
#Commerce on behalf of the United States.  All rights reserved.
_database_code_ICSD                72099
_audit_creation_date               1993/08/22
_chemical_name_systematic          'Trilithium Phyllo-alumogermanate'
_chemical_formula_structural       'Li3 (Al Ge O5)'
_chemical_formula_sum              'Al1 Ge1 Li3 O5'
_publ_section_title
;
Crystal structure of Li3ABO5(A=Al,Ga;B=Si,Ge): a novel wurtzite 
superstructure
;
loop_
_citation_id
_citation_journal_abbrev
_citation_year
_citation_journal_volume
_citation_page_first
_citation_page_last
_citation_journal_id_ASTM
primary 'Journal of Solid State Chemistry' 1992 98 33 39 JSSCBI
_publ_author_name
;
Skakle, J.M.S.;Fletcher, J.G.;Howie, R.A.;Lee, C.-K.;West, A.R.
;
_cell_length_a                     4.8711(2)
_cell_length_b                     5.3953(2)
_cell_length_c                     15.8221(7)
_cell_angle_alpha                  90.
_cell_angle_beta                   90.
_cell_angle_gamma                  90.
_cell_volume                       415.82
_cell_formula_units_Z              4
_symmetry_space_group_name_H-M     'P 21 n b'
_symmetry_Int_Tables_number        33
_refine_ls_R_factor_all            .056
loop_
_symmetry_equiv_pos_site_id
_symmetry_equiv_pos_as_xyz
  1	'x, y+.5, -z+.5'
  2	'x+.5, -y+.5, z+.5'
  3	'x+.5, -y, -z'
  4	'x, y, z'
loop_
_atom_type_symbol
_atom_type_oxidation_number
Al3+	3
Ge4+	4
Li1+	1
O2-	-2
loop_
_atom_site_label
_atom_site_type_symbol
_atom_site_symmetry_multiplicity
_atom_site_Wyckoff_symbol
_atom_site_fract_x
_atom_site_fract_y
_atom_site_fract_z
_atom_site_occupancy
_atom_site_attached_hydrogens
Al1 Al3+ 4 a 0.49(2) 0.323(3) 0.202(2) 1. 0 
Ge1 Ge4+ 4 a 0 0.161(1) 0.0983(8) 1. 0 
O1 O2- 4 a 0.58(1) 0.651(9) 0.212(3) 1. 0 
O2 O2- 4 a 0.632(9) 0.196(6) 0.112(3) 1. 0 
O3 O2- 4 a 0.10(2) 0.322(8) 0.009(3) 1. 0 
O4 O2- 4 a 0.095(9) 0.860(6) 0.106(3) 1. 0 
O5 O2- 4 a 0.13(1) 0.300(8) 0.192(8) 1. 0 
Li1 Li1+ 4 a 0.99(6) 0.16(2) 0.303(7) 1. 0 
Li2 Li1+ 4 a 0.46(2) 0.36(2) 0.99(1) 1. 0 
Li3 Li1+ 4 a 0.51(5) 0.81(1) 0.093(9) 1. 0 

#End of data_72099-ICSD


