data_16399-ICSD
#?2014 by Fachinformationszentrum Karlsruhe, and the U.S. Secretary of 
#Commerce on behalf of the United States.  All rights reserved.
_database_code_ICSD                16399
_audit_creation_date               1980/12/31
_chemical_name_systematic
;
Cesium Potassium Tetracyanoniccolate
;
_chemical_formula_structural       'Cs K Ni (C N)4'
_chemical_formula_sum              'C4 Cs1 K1 N4 Ni1'
_publ_section_title
;
Crystal Structure and Spectra of Cesium Potassium 
Tetracyanonickelate(2-)
;
loop_
_citation_id
_citation_journal_abbrev
_citation_year
_citation_journal_volume
_citation_page_first
_citation_page_last
_citation_journal_id_ASTM
primary 'Inorganic Chemistry' 1980 19 3400 3403 INOCAJ
_publ_author_name
;
Musselman, R.L.;Stecher, L.C.;Watkins, S.
;
_cell_length_a                     7.421(2)
_cell_length_b                     8.626(4)
_cell_length_c                     9.364(3)
_cell_angle_alpha                  60.64(3)
_cell_angle_beta                   70.88(3)
_cell_angle_gamma                  70.88(3)
_cell_volume                       483.36
_cell_formula_units_Z              2
_symmetry_space_group_name_H-M     'P -1'
_symmetry_Int_Tables_number        2
_refine_ls_R_factor_all            .061
loop_
_symmetry_equiv_pos_site_id
_symmetry_equiv_pos_as_xyz
  1	'-x, -y, -z'
  2	'x, y, z'
loop_
_atom_type_symbol
_atom_type_oxidation_number
C2+	2
Cs1+	1
K1+	1
N3-	-3
Ni2+	2
loop_
_atom_site_label
_atom_site_type_symbol
_atom_site_symmetry_multiplicity
_atom_site_Wyckoff_symbol
_atom_site_fract_x
_atom_site_fract_y
_atom_site_fract_z
_atom_site_occupancy
_atom_site_attached_hydrogens
K1 K1+ 2 i 0.2632(5) -.0139(4) 0.4861(4) 1. 0 
Cs1 Cs1+ 2 i 0.6236(2) 0.6267(1) 0.1265(1) 1. 0 
Ni1 Ni2+ 1 a 0 0 0 1. 0 
Ni2 Ni2+ 1 g 0 0.5 0.5 1. 0 
C1 C2+ 2 i -.2268(22) 0.1456(21) 0.0951(21) 1. 0 
C2 C2+ 2 i 0.1287(21) -.0324(18) 0.1449(21) 1. 0 
C3 C2+ 2 i 0.0163(20) 0.4028(18) 0.3597(18) 1. 0 
C4 C2+ 2 i -.2396(20) 0.6437(18) 0.4668(17) 1. 0 
N1 N3- 2 i -.3711(21) 0.2242(19) 0.1590(19) 1. 0 
N2 N3- 2 i 0.2112(21) -.0514(17) 0.2297(17) 1. 0 
N3 N3- 2 i 0.0163(21) 0.3402(18) 0.2771(19) 1. 0 
N4 N3- 2 i -.3897(19) 0.7279(17) 0.4499(18) 1. 0 

loop_
_atom_site_aniso_label
_atom_site_aniso_type_symbol
_atom_site_aniso_U_11
_atom_site_aniso_U_22
_atom_site_aniso_U_33
_atom_site_aniso_U_12
_atom_site_aniso_U_13
_atom_site_aniso_U_23
K1 K1+ 0.0283(14) 0.0380(15) 0.0394(15) 0.0109(11) -.0190(12) -.0255(13)
Cs1 Cs1+ 0.0418(5) 0.0309(4) 0.0317(4) 0.0008(3) -.0112(4) -.0133(3)
Ni1 Ni2+ 0.0251(11) 0.0268(11) 0.0246(11) 0.0034(9) -.0106(9) -.0159(9)
Ni2 Ni2+ 0.0209(11) 0.023(1) 0.0275(11) 0.0064(8) -.0088(9) -.0150(9)
C1 C2+ 0.0353(75) 0.0474(82) 0.0504(85) 0.0079(62) -.0206(67) -.0337(73)
C2 C2+ 0.0322(66) 0.0312(63) 0.0318(63) 0.0029(52) -.0113(54) -.0208(54)
C3 C2+ 0.0270(63) 0.0324(64) 0.0345(66) 0.0082(51) -.0147(54) -.0192(56)
C4 C2+ 0.0267(63) 0.0311(62) 0.0273(60) 0.0053(51) -.0099(51) -.0144(52)
N1 N3- 0.0496(83) 0.0549(79) 0.0577(81) 0.0153(63) -.0173(62) -.0427(72)
N2 N3- 0.0587(83) 0.0358(63) 0.0399(66) -.0031(57) -.0222(62) -.0202(55)
N3 N3- 0.0517(82) 0.0456(73) 0.0512(78) 0.0127(61) -.0189(66) -.0329(67)
N4 N3- 0.0378(68) 0.0422(68) 0.0459(72) 0.0130(55) -.0169(57) -.0246(60)
#End of data_16399-ICSD


