data_182580-ICSD
#?2014 by Fachinformationszentrum Karlsruhe, and the U.S. Secretary of 
#Commerce on behalf of the United States.  All rights reserved.
_database_code_ICSD                182580
_audit_creation_date               2012/02/01
_chemical_name_systematic
;
Lithium Titanium Oxide (0.5/1/2) - Configuration 2
;
_chemical_formula_structural       'Li0.5 Ti O2'
_chemical_formula_sum              'Li0.5 O2 Ti1'
_publ_section_title
;
Role of lithium ordering in the Lix Ti O2 anatase to titanate phase 
transition
;
loop_
_citation_id
_citation_journal_abbrev
_citation_year
_citation_journal_volume
_citation_journal_issue
_citation_page_first
_citation_page_last
_citation_journal_id_ASTM
primary 'Journal of Physical Chemistry Letters' 2011 2 14 1657 1661 JPCLCD
_publ_author_name                  'Morgan, B.J.;Watson, G.W.'
_cell_length_a                     8.29312
_cell_length_b                     3.98339
_cell_length_c                     9.59847
_cell_angle_alpha                  90.01400
_cell_angle_beta                   91.06097
_cell_angle_gamma                  90.01128
_cell_volume                       317.03
_cell_formula_units_Z              8
_symmetry_space_group_name_H-M     'P 1'
_symmetry_Int_Tables_number        1
loop_
_symmetry_equiv_pos_site_id
_symmetry_equiv_pos_as_xyz
  1	'x, y, z'
loop_
_atom_type_symbol
_atom_type_oxidation_number
Li1+	1
O2-	-2
Ti3.5+	3.5
loop_
_atom_site_label
_atom_site_type_symbol
_atom_site_symmetry_multiplicity
_atom_site_Wyckoff_symbol
_atom_site_fract_x
_atom_site_fract_y
_atom_site_fract_z
_atom_site_occupancy
_atom_site_attached_hydrogens
_atom_site_B_iso_or_equiv
Li1 Li1+ 1 a 0.00138 0.99998 0.01369 1.0 0 1.000 
Li2 Li1+ 1 a 0.24931 0.50000 0.50946 1.0 0 1.000 
Li3 Li1+ 1 a 0.99860 0.49989 0.23626 1.0 0 1.000 
Li4 Li1+ 1 a 0.75069 0.00008 0.74064 1.0 0 1.000 
Ti1 Ti3.5+ 1 a 0.99138 -0.00002 0.49694 1.0 0 1.000 
Ti2 Ti3.5+ 1 a 0.26492 0.49985 0.00193 1.0 0 1.000 
Ti3 Ti3.5+ 1 a 0.00864 0.50010 0.75309 1.0 0 1.000 
Ti4 Ti3.5+ 1 a 0.73507 0.00031 0.24806 1.0 0 1.000 
Ti5 Ti3.5+ 1 a 0.50889 0.00004 0.49545 1.0 0 1.000 
Ti6 Ti3.5+ 1 a 0.74785 0.50004 0.99208 1.0 0 1.000 
Ti7 Ti3.5+ 1 a 0.49113 0.50012 0.75452 1.0 0 1.000 
Ti8 Ti3.5+ 1 a 0.25211 0.99988 0.25791 1.0 0 1.000 
O1 O2- 1 a 0.00322 0.99979 0.27252 1.0 0 1.000 
O2 O2- 1 a 0.48825 0.99996 0.29010 1.0 0 1.000 
O3 O2- 1 a 0.26339 0.50014 0.78175 1.0 0 1.000 
O4 O2- 1 a 0.74280 0.50010 0.78406 1.0 0 1.000 
O5 O2- 1 a 0.01772 0.50009 0.52510 1.0 0 1.000 
O6 O2- 1 a 0.48391 0.50002 0.53924 1.0 0 1.000 
O7 O2- 1 a 0.24263 0.99987 0.04601 1.0 0 1.000 
O8 O2- 1 a 0.76173 0.00001 0.01722 1.0 0 1.000 
O9 O2- 1 a 0.25718 0.99996 0.46593 1.0 0 1.000 
O10 O2- 1 a 0.73664 -0.00004 0.46823 1.0 0 1.000 
O11 O2- 1 a 0.99670 0.50003 0.97743 1.0 0 1.000 
O12 O2- 1 a 0.51172 0.49985 0.95989 1.0 0 1.000 
O13 O2- 1 a 0.23823 0.49987 0.23276 1.0 0 1.000 
O14 O2- 1 a 0.75742 0.49989 0.20399 1.0 0 1.000 
O15 O2- 1 a 0.98235 0.00007 0.72498 1.0 0 1.000 
O16 O2- 1 a 0.51613 0.00010 0.71076 1.0 0 1.000 

#End of data_182580-ICSD


