data_173489-ICSD
#?2014 by Fachinformationszentrum Karlsruhe, and the U.S. Secretary of 
#Commerce on behalf of the United States.  All rights reserved.
_database_code_ICSD                173489
_audit_creation_date               2009/02/01
_audit_update_record               2013/02/01
_chemical_name_systematic          'Distrontium Zinc Rhenium(VI) Oxide'
_chemical_formula_structural       'Sr2 Zn Re O6'
_chemical_formula_sum              'O6 Re1 Sr2 Zn1'
_chemical_name_mineral             'Perovskite, double'
_publ_section_title
;
Crystal and magnetic structure of Sr2 M Re O6 (M = Ni, Co, Zn) double 
perovskites: a neutron diffraction study
;
loop_
_citation_id
_citation_journal_abbrev
_citation_year
_citation_journal_volume
_citation_journal_issue
_citation_page_first
_citation_page_last
_citation_journal_id_ASTM
primary 'European Journal of Inorganic Chemistry  (online)'
 2008 2008 4 588 595 EJICFO
_publ_author_name
;
Retuerto, M.;Martinez Lope, M.J.;Garcia Hernandez, M.;Fernandez Diaz, 
M.T.;Alonso, J.A.
;
_cell_length_a                     5.5785(1)
_cell_length_b                     5.5785(1)
_cell_length_c                     8.0053(2)
_cell_angle_alpha                  90.
_cell_angle_beta                   90.
_cell_angle_gamma                  90.
_cell_volume                       249.12
_cell_formula_units_Z              2
_symmetry_space_group_name_H-M     'I 4/m'
_symmetry_Int_Tables_number        87
_refine_ls_R_factor_all            .0389
loop_
_symmetry_equiv_pos_site_id
_symmetry_equiv_pos_as_xyz
  1	'-y, x, -z'
  2	'y, -x, -z'
  3	'x, y, -z'
  4	'-x, -y, -z'
  5	'y, -x, z'
  6	'-y, x, z'
  7	'-x, -y, z'
  8	'x, y, z'
  9	'-y+.5, x+.5, -z+.5'
 10	'y+.5, -x+.5, -z+.5'
 11	'x+.5, y+.5, -z+.5'
 12	'-x+.5, -y+.5, -z+.5'
 13	'y+.5, -x+.5, z+.5'
 14	'-y+.5, x+.5, z+.5'
 15	'-x+.5, -y+.5, z+.5'
 16	'x+.5, y+.5, z+.5'
loop_
_atom_type_symbol
_atom_type_oxidation_number
O2-	-2
Re6+	6
Sr2+	2
Zn2+	2
loop_
_atom_site_label
_atom_site_type_symbol
_atom_site_symmetry_multiplicity
_atom_site_Wyckoff_symbol
_atom_site_fract_x
_atom_site_fract_y
_atom_site_fract_z
_atom_site_occupancy
_atom_site_attached_hydrogens
_atom_site_B_iso_or_equiv
Sr1 Sr2+ 4 d 0 0.5 0.25 1. 0 1.05(4) 
Zn1 Zn2+ 2 a 0 0 0 1. 0 .9(1) 
Re1 Re6+ 2 b 0 0 0.5 1. 0 .10(7) 
O1 O2- 4 e 0 0 0.2570(8) 1. 0 1.28(5) 
O2 O2- 8 h 0.2934(7) 0.2238(6) 0 1. 0 1.19(5) 

#End of data_173489-ICSD


