data_83844-ICSD
#?2014 by Fachinformationszentrum Karlsruhe, and the U.S. Secretary of 
#Commerce on behalf of the United States.  All rights reserved.
_database_code_ICSD                83844
_audit_creation_date               1999/01/19
_chemical_name_systematic          'Dipotassium Ditellurate(IV)'
_chemical_formula_structural       'K2 (Te2 O5)'
_chemical_formula_sum              'K2 O5 Te2'
_publ_section_title
;
Crystal structures of potassium tetratellurite, K2 Te4 O9, and 
potassium ditellurite, K2 Te2 O5, and structural trends in solid 
alkali tellurites
;
loop_
_citation_id
_citation_journal_abbrev
_citation_year
_citation_journal_volume
_citation_page_first
_citation_page_last
_citation_journal_id_ASTM
primary 'Inorganic Chemistry' 1997 36 5559 5564 INOCAJ
_publ_author_name
;
Becker, C.R.;Tagg, S.L.;Huffman, J.C.;Zwanziger, J.W.
;
_cell_length_a                     5.454(1)
_cell_length_b                     15.142(1)
_cell_length_c                     7.713(1)
_cell_angle_alpha                  90.
_cell_angle_beta                   93.71(1)
_cell_angle_gamma                  90.
_cell_volume                       635.64
_cell_formula_units_Z              4
_symmetry_space_group_name_H-M     'P 1 21/a 1'
_symmetry_Int_Tables_number        14
_refine_ls_R_factor_all            .021
loop_
_symmetry_equiv_pos_site_id
_symmetry_equiv_pos_as_xyz
  1	'x+.5, -y+.5, z'
  2	'-x, -y, -z'
  3	'-x+.5, y+.5, -z'
  4	'x, y, z'
loop_
_atom_type_symbol
_atom_type_oxidation_number
K1+	1
O2-	-2
Te4+	4
loop_
_atom_site_label
_atom_site_type_symbol
_atom_site_symmetry_multiplicity
_atom_site_Wyckoff_symbol
_atom_site_fract_x
_atom_site_fract_y
_atom_site_fract_z
_atom_site_occupancy
_atom_site_attached_hydrogens
_atom_site_U_iso_or_equiv
Te1 Te4+ 4 e 0.2521(1) 0.06303(3) 0.1216(1) 1. 0 0.00690(17) 
Te2 Te4+ 4 e 0.7018(1) 0.18351(3) 0.4162(1) 1. 0 0.00663(17) 
K1 K1+ 4 e 0.7658(3) 0.1815(1) 0.8810(2) 1. 0 0.0103(6) 
K2 K1+ 4 e 0.2366(3) 0.0674(1) 0.6277(2) 1. 0 0.0093(11) 
O1 O2- 4 e 0.7357(9) 0.0896(3) 0.5660(6) 1. 0 0.0103(17) 
O2 O2- 4 e 0.0033(9) 0.2442(3) 0.5548(6) 1. 0 0.0097(17) 
O3 O2- 4 e -.0846(9) 0.0625(3) 0.1455(7) 1. 0 0.0140(17) 
O4 O2- 4 e 0.3416(9) 0.1366(3) 0.3174(6) 1. 0 0.0107(17) 
O5 O2- 4 e 0.2774(9) 0.1458(3) -.0522(6) 1. 0 0.0113(17) 

#End of data_83844-ICSD


