data_171091-ICSD
#?2014 by Fachinformationszentrum Karlsruhe, and the U.S. Secretary of 
#Commerce on behalf of the United States.  All rights reserved.
_database_code_ICSD                171091
_audit_creation_date               2006/04/01
_chemical_name_systematic          'Sodium Tecto-alumotrisilicate'
_chemical_formula_structural       'Na Al Si3 O8'
_chemical_formula_sum              'Al1 Na1 O8 Si3'
_chemical_name_mineral             Albite
_publ_section_title
;
Compression of albite, Na Al Si3 O8
;
loop_
_citation_id
_citation_journal_abbrev
_citation_year
_citation_journal_volume
_citation_page_first
_citation_page_last
_citation_journal_id_ASTM
primary 'American Mineralogist' 2005 90 1115 1120 AMMIAY
_publ_author_name
;
Benusa, M.D.;Angel, R.J.;Ross, N.L.
;
_cell_length_a                     7.5713(5)
_cell_length_b                     12.5170(3)
_cell_length_c                     6.9697(5)
_cell_angle_alpha                  93.797(5)
_cell_angle_beta                   117.448(5)
_cell_angle_gamma                  87.508(4)
_cell_volume                       584.81
_cell_formula_units_Z              4
_symmetry_space_group_name_H-M     'C -1'
_symmetry_Int_Tables_number        2
loop_
_symmetry_equiv_pos_site_id
_symmetry_equiv_pos_as_xyz
  1	'-x, -y, -z'
  2	'x, y, z'
  3	'-x+.5, -y+.5, -z'
  4	'x+.5, y+.5, z'
loop_
_atom_type_symbol
_atom_type_oxidation_number
Al3+	3
Na1+	1
O2-	-2
Si4+	4
loop_
_atom_site_label
_atom_site_type_symbol
_atom_site_symmetry_multiplicity
_atom_site_Wyckoff_symbol
_atom_site_fract_x
_atom_site_fract_y
_atom_site_fract_z
_atom_site_occupancy
_atom_site_attached_hydrogens
_atom_site_U_iso_or_equiv
Na1 Na1+ 4 i 0.2419 0.99240 0.1592 1. 0 0.02609 
Al1 Al3+ 4 i -0.0102 0.16866 0.1994 1. 0 0.00671 
Si1 Si4+ 4 i -0.0185 0.82205 0.2325 1. 0 0.00608 
Si2 Si4+ 4 i 0.6853 0.10184 0.3109 1. 0 0.00545 
Si3 Si4+ 4 i 0.6446 0.87510 0.3493 1. 0 0.00595 
O1 O2- 4 i 0.0137 0.1305 0.971 1. 0 0.01305 
O2 O2- 4 i 0.5636 0.9968 0.293 1. 0 0.00722 
O3 O2- 4 i 0.7927 0.0899 0.162 1. 0 0.01127 
O4 O2- 4 i 0.7637 0.8399 0.212 1. 0 0.01203 
O5 O2- 4 i -0.0438 0.3017 0.266 1. 0 0.00823 
O6 O2- 4 i 0.0297 0.6969 0.255 1. 0 0.01229 
O7 O2- 4 i 0.2133 0.1229 0.397 1. 0 0.01684 
O8 O2- 4 i 0.1475 0.8860 0.440 1. 0 0.02039 

loop_
_atom_site_aniso_label
_atom_site_aniso_type_symbol
_atom_site_aniso_U_11
_atom_site_aniso_U_22
_atom_site_aniso_U_33
_atom_site_aniso_U_12
_atom_site_aniso_U_13
_atom_site_aniso_U_23
Na1 Na1+ 0.01395 0.02212 0.04368 0.00340 0.01577 -0.00469
#End of data_171091-ICSD


