data_84868-ICSD
#?2014 by Fachinformationszentrum Karlsruhe, and the U.S. Secretary of 
#Commerce on behalf of the United States.  All rights reserved.
_database_code_ICSD                84868
_audit_creation_date               1999/01/19
_chemical_name_systematic          'Calcium Copper Oxide - Ii'
_chemical_formula_structural       'Ca Cu O2'
_chemical_formula_sum              'Ca1 Cu1 O2'
_publ_section_title
;
Compounds and phase relations in the (Sr O) - (Ca O) - (Cu O) system 
under high pressure
;
loop_
_citation_id
_citation_journal_abbrev
_citation_year
_citation_journal_volume
_citation_page_first
_citation_page_last
_citation_journal_id_ASTM
primary 'Journal of Solid State Chemistry' 1997 132 274 283 JSSCBI
_publ_author_name                  'Kobayashi, N.;Hiroi, Z.;Takano, M.'
_cell_length_a                     5.4150(4)
_cell_length_b                     10.7079(1)
_cell_length_c                     3.1501(2)
_cell_angle_alpha                  90.
_cell_angle_beta                   90.886(7)
_cell_angle_gamma                  90.
_cell_volume                       182.63
_cell_formula_units_Z              4
_symmetry_space_group_name_H-M     'P 1 21 1'
_symmetry_Int_Tables_number        4
loop_
_symmetry_equiv_pos_site_id
_symmetry_equiv_pos_as_xyz
  1	'-x, y+.5, -z'
  2	'x, y, z'
loop_
_atom_type_symbol
_atom_type_oxidation_number
Ca2+	2
Cu2+	2
O2-	-2
loop_
_atom_site_label
_atom_site_type_symbol
_atom_site_symmetry_multiplicity
_atom_site_Wyckoff_symbol
_atom_site_fract_x
_atom_site_fract_y
_atom_site_fract_z
_atom_site_occupancy
_atom_site_attached_hydrogens
Cu1 Cu2+ 2 a 0.725 0.13 0.089 1. 0 
Cu2 Cu2+ 2 a 0.775 0.37 0.089 1. 0 
Ca1 Ca2+ 2 a 0.193 0.114 0.536 1. 0 
Ca2 Ca2+ 2 a 0.307 0.386 0.536 1. 0 
O1 O2- 2 a 0.974 0 0 1. 0 
O2 O2- 2 a 0.474 0 0 1. 0 
O3 O2- 2 a 0 0.251 0.042 1. 0 
O4 O2- 2 a 0.5 0.251 0.042 1. 0 

#End of data_84868-ICSD


