data_280200-ICSD
#?2014 by Fachinformationszentrum Karlsruhe, and the U.S. Secretary of 
#Commerce on behalf of the United States.  All rights reserved.
_database_code_ICSD                280200
_audit_creation_date               2002/04/01
_chemical_name_systematic
;
Potassium Europium(II) Tetraselenophosphate(V)
;
_chemical_formula_structural       'K Eu (P Se4)'
_chemical_formula_sum              'Eu1 K1 P1 Se4'
_publ_section_title
;
Li Eu P Se4 and K Eu P Se4: Novel selenophosphates with the 
tetrahedral (P Se4)3- building block
;
loop_
_citation_id
_citation_journal_abbrev
_citation_year
_citation_journal_volume
_citation_page_first
_citation_page_last
_citation_journal_id_ASTM
primary 'Inorganic Chemistry' 2000 39 1525 1533 INOCAJ
_publ_author_name
;
Aitken, J.A.;Chondroudis, K.;Young, V.G.jr.;Kanatzidis, M.G.
;
_cell_length_a                     6.8469(6)
_cell_length_b                     6.9521(6)
_cell_length_c                     9.0436(8)
_cell_angle_alpha                  90.
_cell_angle_beta                   107.677(2)
_cell_angle_gamma                  90.
_cell_volume                       410.15
_cell_formula_units_Z              2
_symmetry_space_group_name_H-M     'P 1 21/m 1'
_symmetry_Int_Tables_number        11
_refine_ls_R_factor_all            .0583
loop_
_symmetry_equiv_pos_site_id
_symmetry_equiv_pos_as_xyz
  1	'x, -y+.5, z'
  2	'-x, -y, -z'
  3	'-x, y+.5, -z'
  4	'x, y, z'
loop_
_atom_type_symbol
_atom_type_oxidation_number
Eu3+	3
K1+	1
P4+	4
Se2-	-2
loop_
_atom_site_label
_atom_site_type_symbol
_atom_site_symmetry_multiplicity
_atom_site_Wyckoff_symbol
_atom_site_fract_x
_atom_site_fract_y
_atom_site_fract_z
_atom_site_occupancy
_atom_site_attached_hydrogens
Eu1 Eu3+ 2 e 0.7287(2) 0.25 0.54747(13) 1. 0 
Se1 Se2- 2 e 1.0993(3) 0.25 0.8450(3) 1. 0 
Se2 Se2- 2 e 1.1298(3) 0.25 0.4471(3) 1. 0 
Se3 Se2- 4 f 0.4951(2) 0.0018(2) 0.2558(2) 1. 0 
K1 K1+ 2 e 0.7735(8) 0.25 0.0695(6) 1. 0 
P1 P4+ 2 e 0.3015(9) 0.25 0.6963(6) 1. 0 

loop_
_atom_site_aniso_label
_atom_site_aniso_type_symbol
_atom_site_aniso_U_11
_atom_site_aniso_U_22
_atom_site_aniso_U_33
_atom_site_aniso_U_12
_atom_site_aniso_U_13
_atom_site_aniso_U_23
Eu1 Eu3+ 0.0130(7) 0.0165(7) 0.0081(6) 0 0.0034(5) 0
Se1 Se2- 0.0130(12) 0.0198(13) 0.0082(11) 0 0.0054(10) 0
Se2 Se2- 0.0138(12) 0.0293(13) 0.0068(11) 0 0.0037(9) 0
Se3 Se2- 0.017(1) 0.0050(9) 0.0150(9) 0.0019(6) 0.0060(8) 0.0003(6)
K1 K1+ 0.024(3) 0.021(3) 0.010(2) 0 0.003(2) 0
P1 P4+ 0.013(3) 0.004(3) 0.007(3) 0 0.003(2) 0
#End of data_280200-ICSD


