data_424027-ICSD
#?2014 by Fachinformationszentrum Karlsruhe, and the U.S. Secretary of 
#Commerce on behalf of the United States.  All rights reserved.
_database_code_ICSD                424027
_audit_creation_date               2012/08/01
_chemical_name_systematic
;
Pentapotassium Borotetrasulfate(VI)
;
_chemical_formula_structural       'K5 (B (S O4)4)'
_chemical_formula_sum              'B1 K5 O16 S4'
_publ_section_title
;
The first borosulfate K5 [B (S O4)4]
;
loop_
_citation_id
_citation_journal_abbrev
_citation_year
_citation_journal_volume
_citation_journal_issue
_citation_page_first
_citation_page_last
_citation_journal_id_ASTM
primary 'Angewandte Chemie. International Edition' 2012 51 25 6255 6257 ACIEF5
_publ_author_name
;
Hoeppe, H.A.;Kazmierczak, K.;Daub, M.;Foerg, K.;Fuchs, 
F.;Hillebrecht, H.
;
_cell_length_a                     9.9023(5)
_cell_length_b                     9.9023(5)
_cell_length_c                     16.1871(10)
_cell_angle_alpha                  90.00
_cell_angle_beta                   90.00
_cell_angle_gamma                  90.00
_cell_volume                       1587.23
_cell_formula_units_Z              4
_symmetry_space_group_name_H-M     'P 41'
_symmetry_Int_Tables_number        76
_refine_ls_R_factor_all            .0467
loop_
_symmetry_equiv_pos_site_id
_symmetry_equiv_pos_as_xyz
  1	'y, -x, z+.75'
  2	'-y, x, z+.25'
  3	'-x, -y, z+.5'
  4	'x, y, z'
loop_
_atom_type_symbol
_atom_type_oxidation_number
B3+	3
K1+	1
O2-	-2
S6+	6
loop_
_atom_site_label
_atom_site_type_symbol
_atom_site_symmetry_multiplicity
_atom_site_Wyckoff_symbol
_atom_site_fract_x
_atom_site_fract_y
_atom_site_fract_z
_atom_site_occupancy
_atom_site_attached_hydrogens
_atom_site_U_iso_or_equiv
K1 K1+ 4 a 0.7549(3) 0.0474(3) 0.25635(14) 1 0 0.0471(6) 
K2 K1+ 4 a 0.8543(3) -0.3273(3) 0.08226(18) 1 0 0.0473(6) 
K3 K1+ 4 a 0.5842(3) 0.3492(2) 0.04888(14) 1 0 0.0384(6) 
K4 K1+ 4 a 0.1702(2) -0.0919(2) 0.10507(14) 1 0 0.0378(6) 
K5 K1+ 4 a 0.2437(2) -0.4964(2) 0.14894(14) 1 0 0.0379(5) 
S1 S6+ 4 a 0.7774(3) 0.0143(2) 0.03984(15) 1 0 0.0308(5) 
O1 O2- 4 a 0.6572(7) 0.0121(7) 0.1031(4) 1 0 0.0294(15) 
O2 O2- 4 a 0.7497(9) -0.0849(10) -0.0228(5) 1 0 0.062(3) 
O3 O2- 4 a 0.8936(8) -0.0200(9) 0.0890(5) 1 0 0.055(2) 
O4 O2- 4 a 0.7836(8) 0.1488(8) 0.0091(5) 1 0 0.050(2) 
S2 S6+ 4 a 0.4895(2) -0.2704(2) 0.11569(15) 1 0 0.0303(5) 
O5 O2- 4 a 0.4823(7) -0.1465(6) 0.0557(4) 1 0 0.0272(15) 
O6 O2- 4 a 0.4791(9) -0.3845(8) 0.0606(5) 1 0 0.049(2) 
O7 O2- 4 a 0.6167(8) -0.2663(10) 0.1591(6) 1 0 0.066(3) 
O8 O2- 4 a 0.3729(7) -0.2599(7) 0.1699(4) 1 0 0.0391(18) 
S3 S6+ 4 a 0.3950(3) 0.1576(3) 0.19628(14) 1 0 0.0341(6) 
O9 O2- 4 a 0.4302(7) 0.0226(6) 0.1529(4) 1 0 0.0292(15) 
O10 O2- 4 a 0.3377(13) 0.2454(10) 0.1388(5) 1 0 0.090(4) 
O11 O2- 4 a 0.3111(9) 0.1176(8) 0.2637(5) 1 0 0.055(2) 
O12 O2- 4 a 0.5227(9) 0.2089(11) 0.2269(6) 1 0 0.079(3) 
S4 S6+ 4 a 0.8997(3) 0.3801(2) 0.19494(14) 1 0 0.0287(5) 
O13 O2- 4 a 0.9351(9) 0.2525(7) 0.2305(4) 1 0 0.049(2) 
O14 O2- 4 a 0.9134(7) 0.4908(7) 0.2619(4) 1 0 0.0314(16) 
O15 O2- 4 a 0.7593(7) 0.3922(9) 0.1726(4) 1 0 0.050(2) 
O16 O2- 4 a 0.9878(8) 0.4195(8) 0.1288(4) 1 0 0.050(2) 
B1 B3+ 4 a 0.5162(12) -0.0070(10) 0.0807(8) 1 0 0.026(2) 

loop_
_atom_site_aniso_label
_atom_site_aniso_type_symbol
_atom_site_aniso_U_11
_atom_site_aniso_U_22
_atom_site_aniso_U_33
_atom_site_aniso_U_12
_atom_site_aniso_U_13
_atom_site_aniso_U_23
K1 K1+ 0.0403(14) 0.0631(17) 0.0380(12) -0.0019(13) 0.0016(11) 0.0054(13)
K2 K1+ 0.0485(16) 0.0415(15) 0.0518(13) 0.0026(12) 0.0036(13) 0.0077(12)
K3 K1+ 0.0388(14) 0.0358(13) 0.0405(12) -0.0021(9) 0.0010(10) -0.0048(11)
K4 K1+ 0.0348(12) 0.0390(14) 0.0397(12) -0.0044(10) -0.0005(10) 0.0073(11)
K5 K1+ 0.0370(13) 0.0401(14) 0.0366(11) -0.0063(10) -0.0001(10) 0.0031(10)
S1 S6+ 0.0276(13) 0.0297(14) 0.0352(13) 0.0010(10) 0.0041(10) -0.0008(11)
O1 O2- 0.025(3) 0.036(4) 0.026(3) -0.003(3) -0.002(3) -0.004(3)
O2 O2- 0.047(5) 0.074(6) 0.064(5) -0.014(5) 0.019(4) -0.046(5)
O3 O2- 0.024(4) 0.074(6) 0.066(5) 0.012(4) -0.005(4) 0.024(5)
O4 O2- 0.050(5) 0.041(5) 0.060(5) 0.003(3) 0.017(4) 0.024(4)
S2 S6+ 0.0259(12) 0.0298(13) 0.0351(13) -0.0014(10) 0.0017(10) 0.0087(11)
O5 O2- 0.032(4) 0.022(3) 0.028(3) -0.004(3) -0.004(3) 0.007(3)
O6 O2- 0.075(6) 0.020(4) 0.051(4) 0.003(4) 0.014(4) -0.007(4)
O7 O2- 0.038(4) 0.083(7) 0.078(6) -0.015(5) -0.035(4) 0.043(6)
O8 O2- 0.046(4) 0.028(4) 0.043(4) -0.004(3) 0.016(3) 0.005(3)
S3 S6+ 0.0457(16) 0.0283(13) 0.0283(11) 0.0032(12) 0.0059(11) -0.0003(11)
O9 O2- 0.027(4) 0.026(3) 0.034(4) 0.004(3) 0.009(3) -0.002(3)
O10 O2- 0.155(10) 0.074(6) 0.041(4) 0.079(7) 0.020(5) 0.015(4)
O11 O2- 0.065(6) 0.045(5) 0.055(5) 0.004(4) 0.038(4) 0.008(4)
O12 O2- 0.049(5) 0.094(7) 0.094(7) -0.026(5) 0.020(5) -0.050(6)
S4 S6+ 0.0288(12) 0.0305(13) 0.0269(10) -0.0009(10) -0.0014(10) -0.0018(10)
O13 O2- 0.080(6) 0.018(4) 0.049(4) 0.004(4) -0.016(4) 0.001(3)
O14 O2- 0.032(4) 0.032(4) 0.030(3) 0.007(3) -0.011(3) -0.012(3)
O15 O2- 0.020(3) 0.074(6) 0.057(5) 0.002(4) -0.006(3) -0.020(4)
O16 O2- 0.054(5) 0.064(5) 0.032(4) -0.020(4) 0.016(3) -0.005(4)
B1 B3+ 0.035(6) 0.014(5) 0.029(4) -0.007(4) -0.008(5) 0.001(4)
#End of data_424027-ICSD


