data_88168-ICSD
#?2014 by Fachinformationszentrum Karlsruhe, and the U.S. Secretary of 
#Commerce on behalf of the United States.  All rights reserved.
_database_code_ICSD                88168
_audit_creation_date               2001/07/16
_chemical_name_systematic
;
Disilver Diindium Germanium Selenide
;
_chemical_formula_structural       'Ag2 In2 Ge Se6'
_chemical_formula_sum              'Ag2 Ge1 In2 Se6'
_publ_section_title
;
Crystal structure of Ag2 In2 Ge Se6
;
loop_
_citation_id
_citation_journal_abbrev
_citation_year
_citation_journal_volume
_citation_page_first
_citation_page_last
_citation_journal_id_ASTM
primary 'Journal of Alloys and Compounds' 1999 287 181 184 JALCEU
_publ_author_name
;
Krykhovets, O.V.;Sysa, L.V.;Olekseyuk, I.D.;Glowyak, T.
;
_cell_length_a                     12.692(3)
_cell_length_b                     7.492(1)
_cell_length_c                     12.644(3)
_cell_angle_alpha                  90.
_cell_angle_beta                   109.50(3)
_cell_angle_gamma                  90.
_cell_volume                       1133.34
_cell_formula_units_Z              4
_symmetry_space_group_name_H-M     'C 1 c 1'
_symmetry_Int_Tables_number        9
loop_
_symmetry_equiv_pos_site_id
_symmetry_equiv_pos_as_xyz
  1	'x, -y, z+.5'
  2	'x, y, z'
  3	'x+.5, -y+.5, z+.5'
  4	'x+.5, y+.5, z'
loop_
_atom_type_symbol
_atom_type_oxidation_number
Ag1+	1
Ge4+	4
In3+	3
Se2-	-2
loop_
_atom_site_label
_atom_site_type_symbol
_atom_site_symmetry_multiplicity
_atom_site_Wyckoff_symbol
_atom_site_fract_x
_atom_site_fract_y
_atom_site_fract_z
_atom_site_occupancy
_atom_site_attached_hydrogens
Ag1 Ag1+ 4 a 0.3909(2) 0.5890(3) 0.2570(2) 1. 0 
Ag2 Ag1+ 4 a 0.5936(2) 0.2053(3) 0.4167(2) 1. 0 
In1 In3+ 4 a 0.4114(1) 0.0920(2) 0.0641(1) 1. 0 
In2 In3+ 4 a 0.2308(1) 0.0632(2) 0.2625(1) 1. 0 
Ge1 Ge4+ 4 a 0.1634(2) 0.7645(3) 0.0053(2) 1. 0 
Se1 Se2- 4 a 0.3556(2) 0.7535(3) 0.0510(2) 1. 0 
Se2 Se2- 4 a 0.4000(2) 0.2361(3) 0.2464(2) 1. 0 
Se3 Se2- 4 a 0.0850(2) 0.0089(3) 0.0628(2) 1. 0 
Se4 Se2- 4 a 0.0875(2) 0.2661(3) 0.3123(2) 1. 0 
Se5 Se2- 4 a 0.2834(2) 0.2300(3) 0.8770(2) 1. 0 
Se6 Se2- 4 a 0.6163(2) 0.0136(3) 0.0898(2) 1. 0 

loop_
_atom_site_aniso_label
_atom_site_aniso_type_symbol
_atom_site_aniso_B_11
_atom_site_aniso_B_22
_atom_site_aniso_B_33
_atom_site_aniso_B_12
_atom_site_aniso_B_13
_atom_site_aniso_B_23
Ag1 Ag1+ 2.88(9) 2.36(9) 2.86(10) 0.17(7) 0.89(8) 0.00(7)
Ag2 Ag1+ 2.53(9) 3.67(11) 3.18(10) 0.10(8) 0.88(8) 1.47(8)
In1 In3+ 0.99(6) 1.35(6) 0.85(6) -.12(5) 0.35(5) -.02(5)
In2 In3+ 1.20(6) 1.04(5) 1.06(6) 0.03(5) 0.45(5) 0.06(5)
Ge1 Ge4+ 0.59(8) 0.37(8) 0.69(8) -.08(7) 0.25(7) -.09(7)
Se1 Se2- 0.64(8) 1.07(7) 1.43(9) 0.01(7) 0.16(7) 0.13(7)
Se2 Se2- 1.18(8) 1.14(8) 1.31(9) -.09(7) 0.57(7) -.32(7)
Se3 Se2- 1.38(8) 0.93(8) 1.04(9) 0.57(7) 0.20(7) -.39(6)
Se4 Se2- 1.30(8) 1.41(8) 0.62(8) 0.62(8) 0.18(6) 0.18(7)
Se5 Se2- 1.29(8) 0.83(8) 0.86(8) 0.09(7) 0.29(7) 0.08(7)
Se6 Se2- 0.84(8) 0.67(8) 1.28(9) -.05(7) 0.49(7) 0.35(7)
#End of data_88168-ICSD


