data_260429-ICSD
#?2014 by Fachinformationszentrum Karlsruhe, and the U.S. Secretary of 
#Commerce on behalf of the United States.  All rights reserved.
_database_code_ICSD                260429
_audit_creation_date               2009/08/01
_chemical_name_systematic
;
Calcium Triiron(III) Tris(phosphate) Oxide
;
_chemical_formula_structural       'Ca Fe3 (P O4)3 O'
_chemical_formula_sum              'Ca1 Fe3 O13 P3'
_publ_section_title
;
The iron phosphate Ca Fe3 (P O4)3 O
;
loop_
_citation_id
_citation_journal_abbrev
_citation_year
_citation_journal_volume
_citation_journal_issue
_citation_page_first
_citation_page_last
_citation_journal_id_ASTM
primary 'Acta Crystallographica, Section E. Structure Reports Online'
 2009 65 8 i66 i66 ACSEBH
_publ_author_name                  'Hidouri, M.;Ben Amara, M.'
_cell_length_a                     7.521(2)
_cell_length_b                     6.330(2)
_cell_length_c                     10.160(2)
_cell_angle_alpha                  90.00
_cell_angle_beta                   100.03(2)
_cell_angle_gamma                  90.00
_cell_volume                       476.3
_cell_formula_units_Z              2
_symmetry_space_group_name_H-M     'P 1 21/m 1'
_symmetry_Int_Tables_number        11
_refine_ls_R_factor_all            .0306
loop_
_symmetry_equiv_pos_site_id
_symmetry_equiv_pos_as_xyz
  1	'x, -y+.5, z'
  2	'-x, -y, -z'
  3	'-x, y+.5, -z'
  4	'x, y, z'
loop_
_atom_type_symbol
_atom_type_oxidation_number
Ca2+	2
Fe3+	3
O2-	-2
P5+	5
loop_
_atom_site_label
_atom_site_type_symbol
_atom_site_symmetry_multiplicity
_atom_site_Wyckoff_symbol
_atom_site_fract_x
_atom_site_fract_y
_atom_site_fract_z
_atom_site_occupancy
_atom_site_attached_hydrogens
_atom_site_U_iso_or_equiv
Ca1 Ca2+ 2 e 0.66161(10) -0.2500 0.19595(7) 1 0 0.00891(18) 
Fe1 Fe3+ 2 a 0.0000 -0.5000 0.0000 1 0 0.00627(16) 
Fe2 Fe3+ 2 e -0.64926(7) -0.7500 0.20179(5) 1 0 0.00561(16) 
Fe3 Fe3+ 2 e -0.21388(7) -0.7500 0.43643(5) 1 0 0.00684(16) 
P1 P5+ 2 e -0.31703(11) -0.7500 0.11247(8) 1 0 0.0052(2) 
O1 O2- 2 e -0.5087(3) -0.7500 0.0310(2) 1 0 0.0081(5) 
O2 O2- 2 e -0.3598(3) -0.7500 0.2566(3) 1 0 0.0080(5) 
O3 O2- 4 f -0.2107(2) -0.5489(3) 0.09386(18) 1 0 0.0083(3) 
P2 P5+ 2 e 0.26341(12) -0.2500 0.23940(9) 1 0 0.0054(2) 
O4 O2- 2 e 0.0855(3) -0.2500 0.1340(3) 1 0 0.0084(5) 
O5 O2- 2 e 0.2123(4) -0.2500 0.3770(3) 1 0 0.0130(5) 
O6 O2- 4 f 0.3790(2) -0.4390(3) 0.21363(18) 1 0 0.0091(3) 
P3 P5+ 2 e 0.21762(12) -0.7500 0.48890(9) 1 0 0.0064(2) 
O7 O2- 2 e 0.0256(4) -0.7500 0.4084(3) 1 0 0.0140(5) 
O8 O2- 2 e 0.3513(4) -0.7500 0.3933(3) 1 0 0.0119(5) 
O9 O2- 4 f -0.2479(3) -1.0599(3) 0.41460(18) 1 0 0.0116(4) 
O10 O2- 2 e -0.8765(3) -0.7500 0.0924(2) 1 0 0.0070(5) 

loop_
_atom_site_aniso_label
_atom_site_aniso_type_symbol
_atom_site_aniso_U_11
_atom_site_aniso_U_22
_atom_site_aniso_U_33
_atom_site_aniso_U_12
_atom_site_aniso_U_13
_atom_site_aniso_U_23
Ca1 Ca2+ 0.0108(3) 0.0090(3) 0.0072(3) 0.000 0.0024(2) 0.000
Fe1 Fe3+ 0.0075(2) 0.0054(2) 0.0068(3) -0.00023(16) 0.00379(17) 0.00011(17)
Fe2 Fe3+ 0.0066(3) 0.0050(3) 0.0057(2) 0.000 0.00243(17) 0.000
Fe3 Fe3+ 0.0111(3) 0.0060(3) 0.0036(3) 0.000 0.00167(18) 0.000
P1 P5+ 0.0065(4) 0.0052(4) 0.0045(4) 0.000 0.0028(3) 0.000
O1 O2- 0.0075(11) 0.0106(12) 0.0066(11) 0.000 0.0019(9) 0.000
O2 O2- 0.0096(11) 0.0097(12) 0.0058(10) 0.000 0.0042(8) 0.000
O3 O2- 0.0089(7) 0.0075(8) 0.0096(8) -0.0013(6) 0.0048(6) 0.0000(6)
P2 P5+ 0.0077(4) 0.0049(4) 0.0038(4) 0.000 0.0019(3) 0.000
O4 O2- 0.0099(11) 0.0089(11) 0.0065(10) 0.000 0.0011(9) 0.000
O5 O2- 0.0189(13) 0.0164(13) 0.0047(11) 0.000 0.0050(9) 0.000
O6 O2- 0.0106(8) 0.0055(7) 0.0114(8) 0.0007(6) 0.0028(6) -0.0005(6)
P3 P5+ 0.0103(4) 0.0053(4) 0.0044(4) 0.000 0.0032(3) 0.000
O7 O2- 0.0114(12) 0.0208(14) 0.0093(12) 0.000 0.0005(9) 0.000
O8 O2- 0.0135(12) 0.0167(13) 0.0070(11) 0.000 0.0057(9) 0.000
O9 O2- 0.0213(9) 0.0059(7) 0.0078(8) -0.0006(7) 0.0031(7) 0.0016(6)
O10 O2- 0.0075(11) 0.0106(12) 0.0066(11) 0.000 0.0019(9) 0.000
#End of data_260429-ICSD


