data_39514-ICSD
#?2014 by Fachinformationszentrum Karlsruhe, and the U.S. Secretary of 
#Commerce on behalf of the United States.  All rights reserved.
_database_code_ICSD                39514
_audit_creation_date               1992/08/20
_chemical_name_systematic
;
Trilithium Dilanthanum Nitrate Trihydrate
;
_chemical_formula_structural       'Li3 (La2 (N O3)9) (H2 O)3'
_chemical_formula_sum              'H6 La2 Li3 N9 O30'
_publ_section_title
;
Synthesis and X-ray structural study of lithium rare-earth nitrates 
Li3(Ln2(NO3)9)*3H2O, where Ln=La,Nd
;
loop_
_citation_id
_citation_journal_abbrev
_citation_year
_citation_journal_volume
_citation_page_first
_citation_page_last
_citation_journal_id_ASTM
primary Kristallografiya 1991 36 1395 1402 KRISAJ
2 'Soviet Physics, Crystallography (= Kristallografiya)'
 1991 36 789 793 SPHCA6
_publ_author_name
;
Vigdorchik, A.G.;Malinovskii, Yu.A.;Dryuchko, A.G.;Verin, I.A.
;
_cell_length_a                     13.354(2)
_cell_length_b                     13.354(2)
_cell_length_c                     13.354(2)
_cell_angle_alpha                  90.
_cell_angle_beta                   90.
_cell_angle_gamma                  90.
_cell_volume                       2381.41
_cell_formula_units_Z              4
_symmetry_space_group_name_H-M     'P 21 3'
_symmetry_Int_Tables_number        198
_refine_ls_R_factor_all            .027
loop_
_symmetry_equiv_pos_site_id
_symmetry_equiv_pos_as_xyz
  1	'-z+.5, -x, y+.5'
  2	'-y+.5, -z, x+.5'
  3	'-x+.5, -y, z+.5'
  4	'-z, x+.5, -y+.5'
  5	'-y, z+.5, -x+.5'
  6	'-x, y+.5, -z+.5'
  7	'z+.5, -x+.5, -y'
  8	'y+.5, -z+.5, -x'
  9	'x+.5, -y+.5, -z'
 10	'z, x, y'
 11	'y, z, x'
 12	'x, y, z'
loop_
_atom_type_symbol
_atom_type_oxidation_number
H1+	1
La3+	3
Li1+	1
N5+	5
O2-	-2
loop_
_atom_site_label
_atom_site_type_symbol
_atom_site_symmetry_multiplicity
_atom_site_Wyckoff_symbol
_atom_site_fract_x
_atom_site_fract_y
_atom_site_fract_z
_atom_site_occupancy
_atom_site_attached_hydrogens
_atom_site_B_iso_or_equiv
La1 La3+ 4 a 0.4679(1) 0.4679(1) 0.4679(1) 1. 0 1.32(1) 
La2 La3+ 4 a 0.2221(1) 0.2779 0.7221 1. 0 1.38(1) 
Li1 Li1+ 12 b 0.044(1) 0.282(1) 0.300(1) 1. 0 3.2(3) 
N1 N5+ 12 b 0.3730(4) 0.5109(3) 0.2616(3) 1. 0 1.55(8) 
O1 O2- 12 b 0.0782(3) 0.1699(3) 0.6269(3) 1. 0 1.59(7) 
O2 O2- 12 b 0.4180(3) 0.4323(3) 0.2769(4) 1. 0 2.14(9) 
O3 O2- 12 b 0.0296(3) 0.3163(3) 0.6722(3) 1. 0 2.13(9) 
N2 N5+ 12 b 0.3913(4) 0.1283(4) 0.1136(4) 1. 0 1.84(9) 
O4 O2- 12 b 0.4039(3) 0.0474(3) 0.1604(3) 1. 0 2.02(9) 
O5 O2- 12 b 0.1439(3) 0.0373(4) 0.4426(3) 1. 0 2.29(9) 
O6 O2- 12 b 0.3293(4) 0.1891(4) 0.1442(4) 1. 0 2.7(1) 
N3 N5+ 12 b 0.4237(4) 0.3528(4) 0.7911(3) 1. 0 1.9(1) 
O7 O2- 12 b 0.3462(3) 0.4043(3) 0.7991(4) 1. 0 2.4(1) 
O8 O2- 12 b 0.4128(3) 0.2633(3) 0.7584(3) 1. 0 2.16(9) 
O9 O2- 12 b 0.1142(5) 0.1869(4) 0.0056(4) 1. 0 3.0(1) 
O10 O2- 12 b 0.3818(5) 0.0330(4) 0.3993(5) 1. 0 3.5(4) 
H1 H1+ 12 b 0.35(1) 0.025(9) 0.455(9) 1. 0 3.5(4) 
H2 H1+ 12 b 0.43(1) 0.08 0.40(1) 1. 0 3.5(4) 

#End of data_39514-ICSD


