data_67110-ICSD
#?2014 by Fachinformationszentrum Karlsruhe, and the U.S. Secretary of 
#Commerce on behalf of the United States.  All rights reserved.
_database_code_ICSD                67110
_audit_creation_date               1990/12/27
_audit_update_record               2011/02/01
_chemical_name_systematic          'Dilithium Phyllo-disilicate'
_chemical_formula_structural       'Li2 (Si2 O5)'
_chemical_formula_sum              'Li2 O5 Si2'
_publ_section_title
;
The structure of metastable lithium disilicate, Li2 Si2 O5
;
loop_
_citation_id
_citation_journal_abbrev
_citation_year
_citation_journal_volume
_citation_page_first
_citation_page_last
_citation_journal_id_ASTM
primary 'Acta Crystallographica, Section C: Crystal Structure Communications'
 1990 46 363 365 ACSCEE
_publ_author_name
;
Smith, R.I.;Howie, R.A.;West, A.R.;Aragon Pina, A.;Villafuerte 
Castrejon, M.E.
;
_cell_length_a                     5.683(4)
_cell_length_b                     4.784(5)
_cell_length_c                     14.648(13)
_cell_angle_alpha                  90.
_cell_angle_beta                   90.
_cell_angle_gamma                  90.
_cell_volume                       398.24
_cell_formula_units_Z              4
_symmetry_space_group_name_H-M     'P b c n'
_symmetry_Int_Tables_number        60
_refine_ls_R_factor_all            .063
loop_
_symmetry_equiv_pos_site_id
_symmetry_equiv_pos_as_xyz
  1	'x, -y, z+.5'
  2	'-x+.5, y+.5, z'
  3	'x+.5, y+.5, -z+.5'
  4	'-x, -y, -z'
  5	'-x, y, -z+.5'
  6	'x+.5, -y+.5, -z'
  7	'-x+.5, -y+.5, z+.5'
  8	'x, y, z'
loop_
_atom_type_symbol
_atom_type_oxidation_number
Li1+	1
O2-	-2
Si4+	4
loop_
_atom_site_label
_atom_site_type_symbol
_atom_site_symmetry_multiplicity
_atom_site_Wyckoff_symbol
_atom_site_fract_x
_atom_site_fract_y
_atom_site_fract_z
_atom_site_occupancy
_atom_site_attached_hydrogens
_atom_site_B_iso_or_equiv
Li1 Li1+ 8 d 0.6043(20) 0.3058(21) 0.4492(6) 1. 0 1.59(13) 
Si1 Si4+ 8 d 0.0944(3) 0.3062(3) 0.3513(1) 1. 0 0 
O1 O2- 4 c 0 0.2438(10) 0.25 1. 0 0 
O2 O2- 8 d -.0751(8) 0.2127(7) 0.4314(2) 1. 0 0 
O3 O2- 8 d 0.3466(7) 0.1434(6) 0.3608(2) 1. 0 0 

loop_
_atom_site_aniso_label
_atom_site_aniso_type_symbol
_atom_site_aniso_U_11
_atom_site_aniso_U_22
_atom_site_aniso_U_33
_atom_site_aniso_U_12
_atom_site_aniso_U_13
_atom_site_aniso_U_23
Si1 Si4+ 0.0139(3) 0.0048(4) 0.0010(1) -.0004(8) -.0012(3) -.0004(3)
O1 O2- 0.027(2) 0.0074(19) 0.0010(2) 0 -.0028(10) 0
O2 O2- -.0162(12) 0.0100(13) 0.0011(1) -.0003(23) 0.0018(7) 0.0016(7)
O3 O2- 0.0180(11) 0.0033(10) 0.0015(1) 0.0021(18) -.0025(7) 0.0010(7)
#End of data_67110-ICSD


