data_260197-ICSD
#?2014 by Fachinformationszentrum Karlsruhe, and the U.S. Secretary of 
#Commerce on behalf of the United States.  All rights reserved.
_database_code_ICSD                260197
_audit_creation_date               2009/08/01
_audit_update_record               2012/02/01
_chemical_name_systematic
;
Dipotassium Di-mue-hydrogenphosphato-bis(aquaplatinum(III))
;
_chemical_formula_structural       'K2 (Pt2 (H P O4)4 (H2 O)2)'
_chemical_formula_sum              'H8 K2 O18 P4 Pt2'
_publ_section_title
;
Synthesis, crystal structure and Raman spectrum of the dumbbell-
shaped (Pt2)6+ ion in K2 [(Pt2) (H P O4)4 (H2 O)2]
;
loop_
_citation_id
_citation_journal_abbrev
_citation_year
_citation_journal_volume
_citation_journal_issue
_citation_page_first
_citation_page_last
_citation_journal_id_ASTM
primary 'Acta Crystallographica, Section E. Structure Reports Online'
 2009 65 3 i18 i19 ACSEBH
_publ_author_name                  'Panagiotidis, K.;Glaum, R.'
_cell_length_a                     7.8852(2)
_cell_length_b                     7.9657(2)
_cell_length_c                     13.7739(4)
_cell_angle_alpha                  82.3580(10)
_cell_angle_beta                   81.5090(10)
_cell_angle_gamma                  65.5280(10)
_cell_volume                       776.32
_cell_formula_units_Z              2
_symmetry_space_group_name_H-M     'P -1'
_symmetry_Int_Tables_number        2
_refine_ls_R_factor_all            .0334
loop_
_symmetry_equiv_pos_site_id
_symmetry_equiv_pos_as_xyz
  1	'-x, -y, -z'
  2	'x, y, z'
loop_
_atom_type_symbol
_atom_type_oxidation_number
H1+	1
K1+	1
O2-	-2
P5+	5
Pt3+	3
loop_
_atom_site_label
_atom_site_type_symbol
_atom_site_symmetry_multiplicity
_atom_site_Wyckoff_symbol
_atom_site_fract_x
_atom_site_fract_y
_atom_site_fract_z
_atom_site_occupancy
_atom_site_attached_hydrogens
_atom_site_U_iso_or_equiv
K1 K1+ 2 i 0.1242(4) -0.3657(4) 0.6326(2) 1 0 0.0790(9) 
K2 K1+ 2 i 0.3845(3) -0.1884(3) 0.90856(15) 1 0 0.0472(5) 
O1 O2- 2 i 0.6393(7) 0.2464(8) 0.6286(4) 1 0 0.0289(11) 
H1 H1+ 2 i 0.566(8) 0.299(10) 0.676(4) 1 0 0.043 
H2 H1+ 2 i 0.734(6) 0.175(9) 0.656(5) 1 0 0.043 
O2 O2- 2 i 0.6784(7) -0.1304(6) 0.6372(3) 1 0 0.0238(10) 
O3 O2- 2 i 0.4660(7) -0.2761(7) 0.7170(4) 1 0 0.0305(11) 
H3 H1+ 2 i 0.486(13) -0.387(4) 0.717(6) 1 0 0.046 
O4 O2- 2 i 0.8028(7) -0.4742(7) 0.6678(3) 1 0 0.0256(10) 
O5 O2- 2 i 0.5849(7) -0.3216(6) 0.5370(3) 1 0 0.0245(10) 
O6 O2- 2 i 0.7832(6) 0.0412(7) 0.4628(4) 1 0 0.0247(10) 
O7 O2- 2 i 0.9754(7) -0.3003(7) 0.4569(3) 1 0 0.0276(11) 
H4 H1+ 2 i 1.045(10) -0.372(10) 0.415(5) 1 0 0.041 
O8 O2- 2 i 0.9903(7) -0.0893(7) 0.3117(4) 1 0 0.0298(11) 
O9 O2- 2 i 0.6936(6) -0.1446(7) 0.3608(3) 1 0 0.0267(10) 
O10 O2- 2 i 0.2526(7) 0.5993(7) 0.1437(3) 1 0 0.0249(10) 
H5 H1+ 2 i 0.207(11) 0.719(3) 0.141(5) 1 0 0.037 
H6 H1+ 2 i 0.226(11) 0.582(9) 0.2058(19) 1 0 0.037 
O11 O2- 2 i -0.1067(6) 0.5907(6) 0.1622(3) 1 0 0.0212(9) 
O12 O2- 2 i -0.3103(6) 0.5226(6) 0.0567(3) 1 0 0.0199(9) 
O13 O2- 2 i -0.4078(7) 0.8408(7) 0.1168(4) 1 0 0.0286(11) 
H7 H1+ 2 i -0.520(4) 0.896(11) 0.107(6) 1 0 0.043 
O14 O2- 2 i -0.4038(6) 0.5674(7) 0.2362(3) 1 0 0.0231(10) 
O15 O2- 2 i -0.0110(6) 0.8018(7) 0.0001(3) 1 0 0.0236(10) 
O16 O2- 2 i -0.2456(6) 1.0558(6) -0.0996(3) 1 0 0.0233(10) 
O17 O2- 2 i -0.2059(6) 0.7307(6) -0.1068(3) 1 0 0.0210(9) 
O18 O2- 2 i 0.0530(7) 0.8330(7) -0.1816(4) 1 0 0.0310(12) 
H8 H1+ 2 i 0.050(13) 0.930(7) -0.162(6) 1 0 0.047 
P1 P5+ 2 i 0.6381(2) -0.3051(2) 0.63814(12) 1 0 0.0220(3) 
P2 P5+ 2 i 0.8592(2) -0.1187(2) 0.39488(12) 1 0 0.0215(3) 
P3 P5+ 2 i -0.3082(2) 0.6280(2) 0.14389(12) 1 0 0.0180(3) 
P4 P5+ 2 i -0.1056(2) 0.8585(2) -0.09741(12) 1 0 0.0187(3) 
Pt1 Pt3+ 2 i 0.54549(3) 0.09217(3) 0.549475(17) 1 0 0.01966(7) 
Pt2 Pt3+ 2 i 0.09528(3) 0.53533(3) 0.052197(16) 1 0 0.01543(6) 

loop_
_atom_site_aniso_label
_atom_site_aniso_type_symbol
_atom_site_aniso_U_11
_atom_site_aniso_U_22
_atom_site_aniso_U_33
_atom_site_aniso_U_12
_atom_site_aniso_U_13
_atom_site_aniso_U_23
K1 K1+ 0.101(2) 0.087(2) 0.0691(17) -0.0526(18) -0.0488(16) 0.0208(15)
K2 K1+ 0.0525(12) 0.0601(13) 0.0406(10) -0.0346(11) 0.0048(9) -0.0133(9)
O1 O2- 0.030(3) 0.030(3) 0.029(3) -0.013(2) 0.000(2) -0.010(2)
O2 O2- 0.030(2) 0.020(2) 0.021(2) -0.011(2) -0.0040(19) 0.0035(18)
O3 O2- 0.032(3) 0.028(3) 0.028(3) -0.014(2) 0.007(2) 0.001(2)
O4 O2- 0.028(2) 0.021(2) 0.019(2) -0.003(2) -0.0023(19) 0.0031(18)
O5 O2- 0.029(2) 0.019(2) 0.021(2) -0.006(2) -0.0018(19) 0.0019(18)
O6 O2- 0.019(2) 0.023(2) 0.030(3) -0.007(2) 0.0021(19) -0.005(2)
O7 O2- 0.029(3) 0.026(3) 0.019(2) -0.005(2) 0.0028(19) 0.0021(19)
O8 O2- 0.022(2) 0.031(3) 0.029(3) -0.008(2) 0.0055(19) 0.007(2)
O9 O2- 0.021(2) 0.028(3) 0.025(2) -0.005(2) 0.0031(19) -0.006(2)
O10 O2- 0.028(2) 0.032(3) 0.020(2) -0.018(2) -0.0068(19) 0.0045(19)
O11 O2- 0.018(2) 0.023(2) 0.020(2) -0.0061(19) -0.0014(17) -0.0005(18)
O12 O2- 0.018(2) 0.025(2) 0.016(2) -0.0101(19) 0.0043(16) -0.0019(17)
O13 O2- 0.020(2) 0.025(3) 0.038(3) -0.006(2) -0.003(2) -0.001(2)
O14 O2- 0.024(2) 0.026(3) 0.019(2) -0.013(2) 0.0055(18) -0.0032(18)
O15 O2- 0.021(2) 0.023(2) 0.028(2) -0.011(2) -0.0080(18) 0.0054(19)
O16 O2- 0.021(2) 0.017(2) 0.031(3) -0.0073(19) -0.0051(19) 0.0016(19)
O17 O2- 0.022(2) 0.020(2) 0.019(2) -0.0077(19) -0.0011(17) 0.0025(17)
O18 O2- 0.025(2) 0.025(3) 0.034(3) -0.007(2) 0.008(2) 0.004(2)
P1 P5+ 0.0237(8) 0.0200(8) 0.0183(8) -0.0061(7) -0.0002(6) 0.0009(6)
P2 P5+ 0.0194(8) 0.0218(9) 0.0189(8) -0.0066(7) 0.0020(6) 0.0024(6)
P3 P5+ 0.0150(7) 0.0204(8) 0.0172(7) -0.0071(6) 0.0016(6) -0.0005(6)
P4 P5+ 0.0167(7) 0.0176(8) 0.0190(7) -0.0057(6) -0.0011(6) 0.0033(6)
Pt1 Pt3+ 0.02042(12) 0.01997(13) 0.01736(12) -0.00806(10) 0.00056(9) 
-0.00042(9)
Pt2 Pt3+ 0.01457(11) 0.01729(12) 0.01430(11) -0.00707(9) -0.00109(8) 
0.00101(8)
#End of data_260197-ICSD


