data_240708-ICSD
#?2014 by Fachinformationszentrum Karlsruhe, and the U.S. Secretary of 
#Commerce on behalf of the United States.  All rights reserved.
_database_code_ICSD                240708
_audit_creation_date               2007/04/01
_chemical_name_systematic
;
Poly[diammonium Hexahydroxyoctadecaoxodisodiohexamolybdonickelate(II) 
Dihydrate]
;
_chemical_formula_structural
;
(N H4)2 (Na2 Ni (O H)6 Mo6 O18) (H2 O)6
;
_chemical_formula_sum              'H26 Mo6 N2 Na2 Ni1 O30'
_publ_section_title
;
Poly[diammonium hexahydroxyoctadecaoxodisodiohexamolybdonickelate 
dihydrate]
;
loop_
_citation_id
_citation_journal_abbrev
_citation_year
_citation_journal_volume
_citation_journal_issue
_citation_page_first
_citation_page_last
_citation_journal_id_ASTM
primary 'Acta Crystallographica, Section E. Structure Reports Online'
 2007 63 1 i14 i15 ACSEBH
_publ_author_name
;
Liu, B.;Feng, L.;Zhou, S.;Li, C.-B.;Zhou, W.
;
_cell_length_a                     11.7792(10)
_cell_length_b                     10.9353(9)
_cell_length_c                     11.7793(10)
_cell_angle_alpha                  90.000
_cell_angle_beta                   116.223(4)
_cell_angle_gamma                  90.000
_cell_volume                       1361.12
_cell_formula_units_Z              2
_symmetry_space_group_name_H-M     'P 1 21/c 1'
_symmetry_Int_Tables_number        14
_refine_ls_R_factor_all            .0763
loop_
_symmetry_equiv_pos_site_id
_symmetry_equiv_pos_as_xyz
  1	'x, -y+.5, z+.5'
  2	'-x, -y, -z'
  3	'-x, y+.5, -z+.5'
  4	'x, y, z'
loop_
_atom_type_symbol
_atom_type_oxidation_number
H1+	1
Mo6+	6
N3-	-3
Na1+	1
Ni2+	2
O2-	-2
loop_
_atom_site_label
_atom_site_type_symbol
_atom_site_symmetry_multiplicity
_atom_site_Wyckoff_symbol
_atom_site_fract_x
_atom_site_fract_y
_atom_site_fract_z
_atom_site_occupancy
_atom_site_attached_hydrogens
_atom_site_U_iso_or_equiv
Ni1 Ni2+ 2 b 0.5000 0.0000 0.0000 1 0 0.0203(5) 
Mo1 Mo6+ 4 e 0.66140(9) 0.23128(9) 0.17284(9) 1 0 0.0236(3) 
Mo2 Mo6+ 4 e 0.18736(9) 0.00712(9) -0.13713(10) 1 0 0.0254(3) 
Mo3 Mo6+ 4 e 0.34982(9) 0.23942(9) 0.03826(9) 1 0 0.0234(3) 
Na1 Na1+ 4 e 0.9161(9) 0.3036(9) 0.0681(10) 1 0 0.041(2) 
O1 O2- 4 e 0.6445(7) 0.1090(6) 0.0168(7) 1 0 0.0209(18) 
H1 H1+ 4 e 0.6418 0.1459 -0.0501 1 0 0.025 
O2 O2- 4 e 0.5023(7) 0.1086(6) 0.1401(7) 1 0 0.0216(18) 
H2 H1+ 4 e 0.5026 0.0683 0.2045 1 0 0.026 
O3 O2- 4 e 0.3572(7) 0.1142(6) -0.1057(7) 1 0 0.0225(19) 
H3 H1+ 4 e 0.3600 0.1514 -0.1701 1 0 0.027 
O4 O2- 4 e 0.7677(7) 0.0902(7) 0.2457(7) 1 0 0.028(2) 
O5 O2- 4 e 0.7639(7) 0.3216(6) 0.1453(8) 1 0 0.033(2) 
O6 O2- 4 e 0.6677(7) 0.2872(7) 0.3064(7) 1 0 0.032(2) 
O7 O2- 4 e 0.5069(7) 0.3068(6) 0.0507(7) 1 0 0.0244(19) 
O8 O2- 4 e 0.3515(7) 0.2902(7) 0.1731(7) 1 0 0.032(2) 
O9 O2- 4 e 0.2531(7) 0.3397(7) -0.0730(8) 1 0 0.033(2) 
O10 O2- 4 e 0.2343(7) 0.1050(6) 0.0124(7) 1 0 0.0259(19) 
O11 O2- 4 e 0.0886(7) 0.1044(7) -0.2473(8) 1 0 0.036(2) 
O12 O2- 4 e 0.0900(7) -0.0897(7) -0.1066(8) 1 0 0.039(2) 
O13 O2- 4 e 0.9912(11) 0.2577(10) -0.0731(11) 1 0 0.048(2) 
H4 H1+ 4 e 0.9470 0.2645 -0.1555 1 0 0.057 
H5 H1+ 4 e 1.0551 0.2294 -0.0796 1 0 0.057 
O14 O2- 4 e 0.4796(9) 0.0467(7) 0.3465(8) 1 0 0.053(3) 
H6 H1+ 4 e 0.4068 0.0235 0.3251 1 0 0.064 
H7 H1+ 4 e 0.5186 -0.0010 0.4165 1 0 0.064 
O15 O2- 4 e 0.8692(9) 0.4746(10) -0.0089(9) 1 0 0.082(4) 
H8 H1+ 4 e 0.8921 0.5422 0.0318 1 0 0.099 
H9 H1+ 4 e 0.8691 0.4982 -0.0770 1 0 0.099 
N1 N3- 4 e 0.1695(9) 0.0346(8) 0.1939(9) 1 0 0.040(3) 
H10 H1+ 4 e 0.2009 0.0386 0.1421 1 0 0.048 
H11 H1+ 4 e 0.2021 0.1014 0.2474 1 0 0.048 
H12 H1+ 4 e 0.2019 -0.0199 0.2500 1 0 0.048 
H13 H1+ 4 e 0.0901 0.0386 0.1589 1 0 0.048 

loop_
_atom_site_aniso_label
_atom_site_aniso_type_symbol
_atom_site_aniso_U_11
_atom_site_aniso_U_22
_atom_site_aniso_U_33
_atom_site_aniso_U_12
_atom_site_aniso_U_13
_atom_site_aniso_U_23
Ni1 Ni2+ 0.0232(12) 0.0228(11) 0.0154(11) -0.0013(10) 0.0090(9) -0.0017(10)
Mo1 Mo6+ 0.0287(6) 0.0229(6) 0.0181(6) -0.0044(5) 0.0094(5) -0.0062(5)
Mo2 Mo6+ 0.0227(6) 0.0285(6) 0.0215(6) 0.0015(6) 0.0066(5) -0.0025(5)
Mo3 Mo6+ 0.0294(6) 0.0221(6) 0.0189(6) 0.0040(5) 0.0108(5) -0.0011(5)
Na1 Na1+ 0.041(2) 0.040(2) 0.042(2) -0.0002(10) 0.0175(14) 0.0002(10)
O1 O2- 0.029(5) 0.018(4) 0.014(4) 0.002(3) 0.007(4) 0.004(3)
O2 O2- 0.028(5) 0.024(4) 0.011(4) 0.000(4) 0.007(4) 0.001(3)
O3 O2- 0.024(5) 0.021(4) 0.014(4) 0.002(4) 0.000(4) -0.002(3)
O4 O2- 0.031(5) 0.036(5) 0.014(4) 0.000(4) 0.008(4) -0.001(4)
O5 O2- 0.032(5) 0.029(5) 0.041(6) -0.002(4) 0.018(5) -0.004(4)
O6 O2- 0.040(5) 0.032(5) 0.019(5) -0.001(4) 0.009(4) -0.020(4)
O7 O2- 0.026(5) 0.025(4) 0.023(5) 0.004(4) 0.012(4) 0.003(4)
O8 O2- 0.042(6) 0.035(5) 0.021(5) 0.006(4) 0.015(4) -0.009(4)
O9 O2- 0.035(6) 0.037(5) 0.030(5) 0.007(4) 0.016(4) 0.005(4)
O10 O2- 0.027(5) 0.032(5) 0.020(5) 0.002(4) 0.011(4) -0.004(4)
O11 O2- 0.033(6) 0.043(5) 0.024(5) 0.017(4) 0.005(4) 0.000(4)
O12 O2- 0.028(6) 0.047(5) 0.040(6) -0.003(4) 0.013(5) -0.009(5)
O13 O2- 0.048(3) 0.049(3) 0.048(3) 0.0015(10) 0.0226(15) -0.0011(10)
O14 O2- 0.100(9) 0.037(5) 0.030(6) 0.002(5) 0.035(6) 0.008(4)
O15 O2- 0.077(9) 0.118(10) 0.042(7) -0.013(7) 0.019(6) -0.023(7)
N1 N3- 0.0232(12) 0.0228(11) 0.0154(11) -0.0013(10) 0.0090(9) -0.0017(10)
#End of data_240708-ICSD


