data_68700-ICSD
#?2014 by Fachinformationszentrum Karlsruhe, and the U.S. Secretary of 
#Commerce on behalf of the United States.  All rights reserved.
_database_code_ICSD                68700
_audit_creation_date               1992/01/20
_chemical_name_systematic          'Tetralithium Nitridoferrate(II)'
_chemical_formula_structural       'Li4 (Fe N2)'
_chemical_formula_sum              'Fe1 Li4 N2'
_publ_section_title
;
Li4(FeN2): Ein Nitridoferrat(II) mit CO2-isosteren Anionen (FeN2)(4-
), eine Defektvariante des Li3N-Strukturtyps
;
loop_
_citation_id
_citation_journal_abbrev
_citation_year
_citation_journal_volume
_citation_page_first
_citation_page_last
_citation_journal_id_ASTM
primary 'Angewandte Chemie (German Edition)' 1991 103 217 218 ANCEAD
_publ_author_name                  'Gudat, A.;Kniep, R.;Rabenau, A.'
_cell_length_a                     3.710(1)
_cell_length_b                     6.413(4)
_cell_length_c                     7.536(2)
_cell_angle_alpha                  90.
_cell_angle_beta                   90.
_cell_angle_gamma                  90.
_cell_volume                       179.3
_cell_formula_units_Z              2
_symmetry_space_group_name_H-M     'I m m m'
_symmetry_Int_Tables_number        71
_refine_ls_R_factor_all            .072
loop_
_symmetry_equiv_pos_site_id
_symmetry_equiv_pos_as_xyz
  1	'x, y, -z'
  2	'x, -y, z'
  3	'-x, y, z'
  4	'-x, -y, -z'
  5	'-x, -y, z'
  6	'-x, y, -z'
  7	'x, -y, -z'
  8	'x, y, z'
  9	'x+.5, y+.5, -z+.5'
 10	'x+.5, -y+.5, z+.5'
 11	'-x+.5, y+.5, z+.5'
 12	'-x+.5, -y+.5, -z+.5'
 13	'-x+.5, -y+.5, z+.5'
 14	'-x+.5, y+.5, -z+.5'
 15	'x+.5, -y+.5, -z+.5'
 16	'x+.5, y+.5, z+.5'
loop_
_atom_type_symbol
_atom_type_oxidation_number
Fe2+	2
Li1+	1
N3-	-3
loop_
_atom_site_label
_atom_site_type_symbol
_atom_site_symmetry_multiplicity
_atom_site_Wyckoff_symbol
_atom_site_fract_x
_atom_site_fract_y
_atom_site_fract_z
_atom_site_occupancy
_atom_site_attached_hydrogens
Fe1 Fe2+ 2 a 0 0 0 1. 0 
N1 N3- 4 i 0 0 0.2466(10) 1. 0 
Li1 Li1+ 8 l 0 0.3332(55) 0.2609(20) 1. 0 

loop_
_atom_site_aniso_label
_atom_site_aniso_type_symbol
_atom_site_aniso_U_11
_atom_site_aniso_U_22
_atom_site_aniso_U_33
_atom_site_aniso_U_12
_atom_site_aniso_U_13
_atom_site_aniso_U_23
Fe1 Fe2+ 0.0351(20) 0.0072(6) 0.0041(2) 0 0 0
N1 N3- 0.014(9) 0.0035(37) 0.0041(8) 0 0 0
Li1 Li1+ 0.053(17) 0.0071(42) 0.0119(16) 0 0 0
#End of data_68700-ICSD


