data_248231-ICSD
#?2014 by Fachinformationszentrum Karlsruhe, and the U.S. Secretary of 
#Commerce on behalf of the United States.  All rights reserved.
_database_code_ICSD                248231
_audit_creation_date               2011/02/01
_chemical_name_systematic
;
Potassium Bis(uranyl) Uranate Hydroxide Dinitrate Hydrate
;
_chemical_formula_structural
;
K ((U O2)2 (U O4) (O H) (N O3)2) (H2 O)
;
_chemical_formula_sum              'H3 K1 N2 O16 U3'
_publ_section_title
;
Uranium(VI) tetraoxido core coordinated by bidentate nitrate
;
loop_
_citation_id
_citation_journal_abbrev
_citation_year
_citation_journal_volume
_citation_journal_issue
_citation_page_first
_citation_page_last
_citation_journal_id_ASTM
primary 'Inorganic Chemistry' 2010 49 15 6793 6795 INOCAJ
_publ_author_name
;
Unruh, D.K.;Baranay, Mi.;Baranay, M.;Burns, P.C.
;
_cell_length_a                     7.2675(8)
_cell_length_b                     17.120(2)
_cell_length_c                     21.551(2)
_cell_angle_alpha                  90.00
_cell_angle_beta                   90.00
_cell_angle_gamma                  90.00
_cell_volume                       2681.37
_cell_formula_units_Z              8
_symmetry_space_group_name_H-M     'P b c a'
_symmetry_Int_Tables_number        61
_refine_ls_R_factor_all            .06
loop_
_symmetry_equiv_pos_site_id
_symmetry_equiv_pos_as_xyz
  1	'x+.5, y, -z+.5'
  2	'x, -y+.5, z+.5'
  3	'-x+.5, y+.5, z'
  4	'-x, -y, -z'
  5	'-x+.5, -y, z+.5'
  6	'-x, y+.5, -z+.5'
  7	'x+.5, -y+.5, -z'
  8	'x, y, z'
loop_
_atom_type_symbol
_atom_type_oxidation_number
H1+	1
K1+	1
N5+	5
O2-	-2
U6+	6
loop_
_atom_site_label
_atom_site_type_symbol
_atom_site_symmetry_multiplicity
_atom_site_Wyckoff_symbol
_atom_site_fract_x
_atom_site_fract_y
_atom_site_fract_z
_atom_site_occupancy
_atom_site_attached_hydrogens
_atom_site_U_iso_or_equiv
U1 U6+ 8 c 0.13410(9) 0.18519(4) 0.12103(3) 1 0 0.01081(16) 
U2 U6+ 8 c 0.12942(9) 0.27685(4) -0.02846(2) 1 0 0.01069(17) 
U3 U6+ 8 c 0.13781(9) 0.15378(4) 0.28527(2) 1 0 0.01009(16) 
K1 K1+ 8 c 0.3326(7) -0.0860(3) 0.3275(2) 1 0 0.0400(13) 
N1 N5+ 8 c 0.140(2) 0.3534(9) 0.1684(7) 1 0 0.026(4) 
N2 N5+ 8 c 0.116(2) 0.0208(9) 0.0758(7) 1 0 0.024(4) 
O1 O2- 8 c 0.1421(15) 0.0497(6) 0.2796(4) 1 0 0.012(2) 
O2 O2- 8 c 0.3108(14) 0.1590(7) 0.1872(5) 1 0 0.014(3) 
O3 O2- 8 c -0.0419(14) 0.1670(7) 0.1929(5) 1 0 0.010(3) 
O4 O2- 8 c -0.0390(16) 0.2055(7) 0.0526(5) 1 0 0.019(3) 
O5 O2- 8 c 0.1354(15) 0.2577(7) 0.2904(4) 1 0 0.016(3) 
O6 O2- 8 c 0.3097(15) 0.2220(7) 0.0545(5) 1 0 0.014(3) 
O7 O2- 8 c 0.1342(17) 0.3610(6) -0.1094(5) 1 0 0.013(2) 
O8 O2- 8 c 0.1048(17) 0.3602(7) 0.0182(5) 1 0 0.022(3) 
O9 O2- 8 c 0.1522(16) 0.1916(6) -0.0734(5) 1 0 0.017(3) 
O10 O2- 8 c 0.0162(17) 0.0485(7) 0.1194(6) 1 0 0.026(3) 
O11 O2- 8 c 0.0002(19) 0.3193(8) 0.1490(7) 1 0 0.035(4) 
O12 O2- 8 c 0.2358(18) 0.0663(9) 0.0557(6) 1 0 0.036(4) 
O13 O2- 8 c 0.2898(19) 0.3183(9) 0.1632(8) 1 0 0.050(5) 
O14 O2- 8 c 0.131(3) 0.4187(8) 0.1895(8) 1 0 0.067(5) 
O15 O2- 8 c 0.091(2) -0.0430(9) 0.0557(8) 1 0 0.067(6) 
O16 O2- 8 c 0.134(2) 0.5150(8) -0.0734(6) 1 0 0.037(4) 
H1 H1+ 8 c 0.027(17) 0.547(10) -0.077(9) 1 0 0.050 
H2 H1+ 8 c 0.17(3) 0.545(10) -0.037(6) 1 0 0.050 
H3 H1+ 8 c 0.11(3) 0.414(4) -0.096(8) 1 0 0.050 

loop_
_atom_site_aniso_label
_atom_site_aniso_type_symbol
_atom_site_aniso_U_11
_atom_site_aniso_U_22
_atom_site_aniso_U_33
_atom_site_aniso_U_12
_atom_site_aniso_U_13
_atom_site_aniso_U_23
U1 U6+ 0.0059(3) 0.0202(3) 0.0063(3) 0.0007(3) 0.0000(3) 0.0026(2)
U2 U6+ 0.0068(3) 0.0185(4) 0.0068(3) -0.0005(3) -0.0009(3) 0.0022(3)
U3 U6+ 0.0071(3) 0.0165(4) 0.0067(3) 0.0002(3) 0.0000(3) 0.0000(2)
K1 K1+ 0.061(4) 0.024(3) 0.035(3) 0.005(2) -0.002(2) -0.004(2)
O1 O2- 0.014(6) 0.012(6) 0.009(5) 0.004(5) -0.001(5) -0.003(5)
O2 O2- 0.008(6) 0.018(7) 0.017(7) 0.002(5) 0.004(5) 0.005(6)
O4 O2- 0.019(7) 0.023(8) 0.015(7) 0.002(5) 0.004(5) 0.007(6)
O5 O2- 0.017(6) 0.018(7) 0.013(6) 0.003(6) 0.004(6) -0.001(5)
O6 O2- 0.009(6) 0.020(7) 0.011(6) -0.002(5) -0.003(5) 0.007(5)
O8 O2- 0.022(7) 0.034(8) 0.010(6) 0.012(6) 0.006(6) 0.011(5)
O9 O2- 0.018(7) 0.015(6) 0.017(6) 0.007(5) -0.006(6) -0.003(5)
O10 O2- 0.031(8) 0.020(7) 0.026(8) -0.007(6) 0.021(6) -0.004(6)
O11 O2- 0.035(9) 0.023(8) 0.047(10) -0.003(7) -0.005(7) 0.011(7)
O12 O2- 0.022(8) 0.045(10) 0.041(9) -0.013(7) 0.011(7) -0.002(8)
O13 O2- 0.023(8) 0.051(11) 0.076(12) 0.020(8) -0.014(8) -0.017(9)
O14 O2- 0.103(15) 0.020(9) 0.078(12) -0.003(11) -0.019(12) -0.022(9)
O15 O2- 0.069(13) 0.039(10) 0.093(14) -0.013(9) 0.028(11) -0.040(10)
O16 O2- 0.044(10) 0.027(8) 0.040(9) 0.003(8) -0.005(9) -0.016(7)
#End of data_248231-ICSD


