data_9483-ICSD
#?2014 by Fachinformationszentrum Karlsruhe, and the U.S. Secretary of 
#Commerce on behalf of the United States.  All rights reserved.
_database_code_ICSD                9483
_audit_creation_date               1980/01/01
_audit_update_record               2006/04/01
_chemical_name_systematic
;
Potassium Chlorate(V) - Hp, Lt, Phase Ii
;
_chemical_formula_structural       'K Cl O3'
_chemical_formula_sum              'Cl1 K1 O3'
_publ_section_title
;
Lattice constants of the high-pressure phase K Cl O3 (II)
;
loop_
_citation_id
_citation_journal_abbrev
_citation_year
_citation_journal_volume
_citation_page_first
_citation_page_last
_citation_journal_id_ASTM
primary 'Journal of Chemical Physics' 1972 56 6263 6264 JCPSA6
_publ_author_name                  'Pistorius, C.W.F.T.'
_cell_length_a                     4.273(10)
_cell_length_b                     4.273(10)
_cell_length_c                     4.273(10)
_cell_angle_alpha                  85.2(2)
_cell_angle_beta                   85.2(2)
_cell_angle_gamma                  85.2(2)
_cell_volume                       77.24
_cell_formula_units_Z              1
_symmetry_space_group_name_H-M     'R 3 m R'
_symmetry_Int_Tables_number        160
loop_
_symmetry_equiv_pos_site_id
_symmetry_equiv_pos_as_xyz
  1	'z, y, x'
  2	'z, x, y'
  3	'x, z, y'
  4	'y, z, x'
  5	'y, x, z'
  6	'x, y, z'
loop_
_atom_type_symbol
_atom_type_oxidation_number
Cl5+	5
K1+	1
O2-	-2
loop_
_atom_site_label
_atom_site_type_symbol
_atom_site_symmetry_multiplicity
_atom_site_Wyckoff_symbol
_atom_site_fract_x
_atom_site_fract_y
_atom_site_fract_z
_atom_site_occupancy
_atom_site_attached_hydrogens
K1 K1+ 1 a 0 0 0 1. 0 
Cl1 Cl5+ 1 a 0.5 0.5 0.5 1. 0 
O1 O2- 3 b 0.625 0.625 0.125 1. 0 

#End of data_9483-ICSD


