data_173208-ICSD
#?2014 by Fachinformationszentrum Karlsruhe, and the U.S. Secretary of 
#Commerce on behalf of the United States.  All rights reserved.
_database_code_ICSD                173208
_audit_creation_date               2008/08/01
_chemical_name_systematic
;
Lithium Tris(trifluoromethyl-isobutylate)
;
_chemical_formula_structural       'Li O C (C F3)3'
_chemical_formula_sum              'C4 F9 Li1 O1'
_publ_section_title
;
Ag O C (C F3)3: Synthesis and applications of the first donor-free 
silver(I) alkoxide
;
loop_
_citation_id
_citation_journal_abbrev
_citation_year
_citation_journal_volume
_citation_journal_issue
_citation_page_first
_citation_page_last
_citation_journal_id_ASTM
primary Organometallics 2007 26 8 2096 2105 ORGND7
_publ_author_name
;
Reisinger, A.;Trapp, N.;Krossing, I.
;
_cell_length_a                     16.519(3)
_cell_length_b                     11.058(2)
_cell_length_c                     16.794(3)
_cell_angle_alpha                  90
_cell_angle_beta                   104.33(3)
_cell_angle_gamma                  90
_cell_volume                       2972.26
_cell_formula_units_Z              16
_symmetry_space_group_name_H-M     'P 1 21/c 1'
_symmetry_Int_Tables_number        14
_refine_ls_R_factor_all            .0792
loop_
_symmetry_equiv_pos_site_id
_symmetry_equiv_pos_as_xyz
  1	'x, -y+.5, z+.5'
  2	'-x, -y, -z'
  3	'-x, y+.5, -z+.5'
  4	'x, y, z'
loop_
_atom_type_symbol
_atom_type_oxidation_number
C2+	2
C4+	4
F1-	-1
Li1+	1
O2-	-2
loop_
_atom_site_label
_atom_site_type_symbol
_atom_site_symmetry_multiplicity
_atom_site_Wyckoff_symbol
_atom_site_fract_x
_atom_site_fract_y
_atom_site_fract_z
_atom_site_occupancy
_atom_site_attached_hydrogens
_atom_site_U_iso_or_equiv
Li1 Li1+ 4 e 1.3277(6) .6578(10) .1279(7) 1. 0 .027(3) 
Li2 Li1+ 4 e 1.2843(6) .4408(10) .1860(6) 1. 0 .021(2) 
Li3 Li1+ 4 e 1.2306(6) .6528(9) .2375(6) 1. 0 .022(2) 
Li4 Li1+ 4 e 1.1665(6) .5800(10) .0800(6) 1. 0 .023(3) 
O1 O2- 4 e 1.2758(2) .5107(4) .0763(2) 1. 0 .019(1) 
O2 O2- 4 e 1.3400(2) .5847(4) .2386(2) 1. 0 .020(1) 
O3 O2- 4 e 1.2190(2) .7294(3) .1300(2) 1. 0 .019(1) 
O4 O2- 4 e 1.1742(2) .5048(4) .1864(2) 1. 0 .018(1) 
C1 C4+ 4 e 1.2864(4) .4474(5) .0101(3) 1. 0 .017(1) 
C2 C2+ 4 e 1.2732(4) .3106(6) .0219(4) 1. 0 .029(2) 
C3 C2+ 4 e 1.3768(4) .4685(7) -.0010(4) 1. 0 .037(2) 
C4 C2+ 4 e 1.2224(5) .4916(6) -.0686(4) 1. 0 .031(2) 
C5 C2+ 4 e 1.4121(4) .5866(6) .2990(4) 1. 0 .020(2) 
C6 C2+ 4 e 1.4873(4) .6027(7) .2593(4) 1. 0 .032(2) 
C7 C2+ 4 e 1.4234(4) .4653(6) .3476(4) 1. 0 .030(2) 
C8 C4+ 4 e 1.4102(4) .6920(6) .3590(4) 1. 0 .029(2) 
C9 C4+ 4 e 1.1977(4) .8435(5) .1031(4) 1. 0 .018(1) 
C10 C2+ 4 e 1.1042(5) .8487(7) .0574(5) 1. 0 .045(2) 
C11 C2+ 4 e 1.2508(5) .8837(7) .0450(5) 1. 0 .044(2) 
C12 C2+ 4 e 1.2132(6) .9315(7) .1786(5) 1. 0 .055(2) 
C13 C4+ 4 e 1.1132(3) .4543(5) .2179(4) 1. 0 .017(1) 
C14 C2+ 4 e 1.0636(4) .5563(7) .2475(4) 1. 0 .035(2) 
C15 C2+ 4 e 1.1545(4) .3724(6) .2917(4) 1. 0 .029(2) 
C16 C2+ 4 e 1.0534(4) .3788(6) .1498(4) 1. 0 .028(2) 
F1 F1- 4 e 1.1925(2) .2820(3) .0066(2) 1. 0 .037(1) 
F2 F1- 4 e 1.3092(3) .2388(3) -.0227(2) 1. 0 .045(1) 
F3 F1- 4 e 1.3062(2) .2818(3) .1030(2) 1. 0 .040(1) 
F4 F1- 4 e 1.3975(2) .5874(4) .0137(2) 1. 0 .043(1) 
F5 F1- 4 e 1.4325(2) .4062(4) .0552(3) 1. 0 .051(1) 
F6 F1- 4 e 1.3859(3) .4408(4) -.0749(2) 1. 0 .055(1) 
F7 F1- 4 e 1.1471(2) .5061(4) -.0506(2) 1. 0 .039(1) 
F8 F1- 4 e 1.2438(3) .5993(3) -.0919(2) 1. 0 .041(1) 
F9 F1- 4 e 1.2121(3) .4163(3) -.1319(2) 1. 0 .042(1) 
F10 F1- 4 e 1.5056(2) .5008(4) .2257(3) 1. 0 .050(1) 
F11 F1- 4 e 1.5565(2) .6444(4) .3105(2) 1. 0 .049(1) 
F12 F1- 4 e 1.4658(2) .6850(4) .1965(2) 1. 0 .042(1) 
F13 F1- 4 e 1.5015(2) .4419(4) .3877(3) 1. 0 .051(1) 
F14 F1- 4 e 1.3974(2) .3733(3) .2933(3) 1. 0 .042(1) 
F15 F1- 4 e 1.3748(2) .4614(4) .4002(2) 1. 0 .042(1) 
F16 F1- 4 e 1.3334(3) .6984(4) .3729(2) 1. 0 .045(1) 
F17 F1- 4 e 1.4653(3) .6801(4) .4317(2) 1. 0 .046(1) 
F18 F1- 4 e 1.4239(2) .7979(3) .3262(2) 1. 0 .041(1) 
F19 F1- 4 e 1.0850(3) .9426(4) .0061(3) 1. 0 .058(1) 
F20 F1- 4 e 1.0563(2) .8499(4) .1130(3) 1. 0 .052(1) 
F21 F1- 4 e 1.0850(2) .7465(4) .0106(2) 1. 0 .046(1) 
F22 F1- 4 e 1.3300(2) .8406(4) .0715(3) 1. 0 .048(1) 
F23 F1- 4 e 1.2175(3) .8351(4) -.0322(2) 1. 0 .049(1) 
F24 F1- 4 e 1.2577(3) 1.0040(4) .0378(3) 1. 0 .051(1) 
F25 F1- 4 e 1.1865(3) .8789(4) .2394(2) 1. 0 .057(1) 
F26 F1- 4 e 1.1720(3) 1.0368(4) .1608(3) 1. 0 .064(1) 
F27 F1- 4 e 1.2980(3) .9522(4) .2044(3) 1. 0 .072(2) 
F28 F1- 4 e 1.0193(3) .5222(4) .2999(3) 1. 0 .052(1) 
F29 F1- 4 e 1.0122(2) .6115(4) .1832(3) 1. 0 .046(1) 
F30 F1- 4 e 1.1184(2) .6438(3) .2869(2) 1. 0 .040(1) 
F31 F1- 4 e 1.1896(2) .4381(4) .3579(2) 1. 0 .041(1) 
F32 F1- 4 e 1.1006(2) .2953(4) .3129(2) 1. 0 .043(1) 
F33 F1- 4 e 1.2160(2) .3065(3) .2734(2) 1. 0 .035(1) 
F34 F1- 4 e 1.0366(2) .4387(4) .0779(2) 1. 0 .036(1) 
F35 F1- 4 e 1.0886(2) .2739(3) .1380(2) 1. 0 .036(1) 
F36 F1- 4 e 0.9803(2) .3547(4) .1680(2) 1. 0 .037(1) 

#End of data_173208-ICSD


