data_156765-ICSD
#?2014 by Fachinformationszentrum Karlsruhe, and the U.S. Secretary of 
#Commerce on behalf of the United States.  All rights reserved.
_database_code_ICSD                156765
_audit_creation_date               2008/02/01
_chemical_name_systematic
;
Tetrasilver Manganese Bis(trithioantimonate(III))
;
_chemical_formula_structural       'Ag4 Mn (Sb S3)2'
_chemical_formula_sum              'Ag4 Mn1 S6 Sb2'
_chemical_name_mineral             Samsonite
_publ_section_title
;
Gram-Charlier development of the atomic displacement factors into 
mineral structures: the case of samsonite, Ag4 Mn Sb2 S6
;
loop_
_citation_id
_citation_journal_abbrev
_citation_year
_citation_journal_volume
_citation_page_first
_citation_page_last
_citation_journal_id_ASTM
primary 'American Mineralogist' 2007 92 886 891 AMMIAY
_publ_author_name                  'Bindi, L.;Evain, M.'
_cell_length_a                     10.3861(6)
_cell_length_b                     8.1108(7)
_cell_length_c                     6.6630(7)
_cell_angle_alpha                  90.
_cell_angle_beta                   92.639(12)
_cell_angle_gamma                  90.
_cell_volume                       560.69
_cell_formula_units_Z              2
_symmetry_space_group_name_H-M     'P 1 21/n 1'
_symmetry_Int_Tables_number        14
_refine_ls_R_factor_all            .0282
loop_
_symmetry_equiv_pos_site_id
_symmetry_equiv_pos_as_xyz
  1	'-x+.5, y+.5, -z+.5'
  2	'-x, -y, -z'
  3	'x+.5, -y+.5, z+.5'
  4	'x, y, z'
loop_
_atom_type_symbol
_atom_type_oxidation_number
Ag1+	1
Mn2+	2
S2-	-2
Sb3+	3
loop_
_atom_site_label
_atom_site_type_symbol
_atom_site_symmetry_multiplicity
_atom_site_Wyckoff_symbol
_atom_site_fract_x
_atom_site_fract_y
_atom_site_fract_z
_atom_site_occupancy
_atom_site_attached_hydrogens
_atom_site_U_iso_or_equiv
Mn1 Mn2+ 2 b 0 0 0.5 1. 0 0.01673(14) 
Sb1 Sb3+ 4 e 0.184035(19) 0.16448(2) 0.03847(3) 1. 0 0.01579(5) 
Ag1 Ag1+ 4 e 0.30710(7) 0.24815(11) 0.57129(10) 1. 0 0.04309(12) 
Ag2 Ag1+ 4 e 0.49587(13) 0.97000(10) 0.76079(12) 1. 0 0.06270(18) 
S1 S2- 4 e 0.09171(8) 0.26901(9) 0.34369(11) 1. 0 0.01627(15) 
S2 S2- 4 e 0.51791(7) 0.67354(9) 0.66932(10) 1. 0 0.01590(15) 
S3 S2- 4 e 0.26400(7) 0.42128(10) -0.11123(11) 1. 0 0.01807(16) 

loop_
_atom_site_aniso_label
_atom_site_aniso_type_symbol
_atom_site_aniso_U_11
_atom_site_aniso_U_22
_atom_site_aniso_U_33
_atom_site_aniso_U_12
_atom_site_aniso_U_13
_atom_site_aniso_U_23
Mn1 Mn2+ 0.0168(3) 0.0178(3) 0.0157(2) 0.0005(2) 0.00148(18) 0.00025(19)
Sb1 Sb3+ 0.01591(8) 0.01611(8) 0.01541(8) 0.00237(6) 0.00141(5) 0.00059(6)
Ag1 Ag1+ 0.03112(16) 0.0704(3) 0.02837(13) -0.01957(16) 0.00785(12) 
-0.00721(15)
Ag2 Ag1+ 0.1105(4) 0.0302(2) 0.0476(2) -0.0348(2) 0.0056(2) -0.01010(16)
S1 S2- 0.0197(3) 0.0146(3) 0.0147(2) 0.0009(2) 0.0023(2) 0.0010(2)
S2 S2- 0.0154(3) 0.0184(3) 0.0139(2) 0.0008(2) 0.00080(19) 0.0018(2)
S3 S2- 0.0157(3) 0.0167(3) 0.0219(3) -0.0029(2) 0.0008(2) 0.0019(2)
#End of data_156765-ICSD


