data_25619-ICSD
#?2014 by Fachinformationszentrum Karlsruhe, and the U.S. Secretary of 
#Commerce on behalf of the United States.  All rights reserved.
_database_code_ICSD                25619
_audit_creation_date               1980/01/01
_audit_update_record               2012/02/01
_chemical_name_systematic          'Potassium Amide - Alpha'
_chemical_formula_structural       'K (N H2)'
_chemical_formula_sum              'H2 K1 N1'
_publ_section_title
;
Die Kristallstrukturen der Tieftemperaturmodifikationen von Kalium- 
und Rubidiumamid
;
loop_
_citation_id
_citation_journal_abbrev
_citation_year
_citation_journal_volume
_citation_page_first
_citation_page_last
_citation_journal_id_ASTM
primary 'Zeitschrift fuer Anorganische und Allgemeine Chemie (1950) (DE)'
 1965 338 171 178 ZAACAB
2 'Golden Book of Phase Transitions, Wroclaw' 2002 1 1 123 GBOPT5
_publ_author_name                  'Juza, R.;Jacobs, H.;Klose, W.'
_cell_length_a                     4.586
_cell_length_b                     3.904
_cell_length_c                     6.223
_cell_angle_alpha                  90.
_cell_angle_beta                   95.8
_cell_angle_gamma                  90.
_cell_volume                       110.84
_cell_formula_units_Z              2
_symmetry_space_group_name_H-M     'P 1 21/m 1'
_symmetry_Int_Tables_number        11
loop_
_symmetry_equiv_pos_site_id
_symmetry_equiv_pos_as_xyz
  1	'x, -y+.5, z'
  2	'-x, -y, -z'
  3	'-x, y+.5, -z'
  4	'x, y, z'
loop_
_atom_type_symbol
_atom_type_oxidation_number
H1+	1
K1+	1
N3-	-3
loop_
_atom_site_label
_atom_site_type_symbol
_atom_site_symmetry_multiplicity
_atom_site_Wyckoff_symbol
_atom_site_fract_x
_atom_site_fract_y
_atom_site_fract_z
_atom_site_occupancy
_atom_site_attached_hydrogens
K1 K1+ 2 e 0.228 0.25 0.295 1. 0 
N1 N3- 2 e 0.289 0.25 0.778 1. 0 
H1 H1+ 4 f 0.29 0.04 0.88 1. 0 

#End of data_25619-ICSD


