data_280355-ICSD
#?2014 by Fachinformationszentrum Karlsruhe, and the U.S. Secretary of 
#Commerce on behalf of the United States.  All rights reserved.
_database_code_ICSD                280355
_audit_creation_date               2002/04/01
_audit_update_record               2008/08/01
_chemical_name_systematic
;
Dicesium Phyllo-alumotriphosphate(V)
;
_chemical_formula_structural       'Cs2 (Al P3 O10)'
_chemical_formula_sum              'Al1 Cs2 O10 P3'
_publ_section_title
;
Synthesis and characterisation of novel layered compounds, Cs2 M P3 
O10 (M= Al or Ga), containing triphosphate groups
;
loop_
_citation_id
_citation_journal_abbrev
_citation_year
_citation_journal_volume
_citation_page_first
_citation_page_last
_citation_journal_id_ASTM
primary
;
Journal of the Chemical Society. Dalton Transactions, Inorganic 
Chemistry (1972-)
;
 2000 2000 1605 1608 JCDTBI
_publ_author_name                  'Nandini Devi, R.;Vidyasagar, K.'
_cell_length_a                     9.420(4)
_cell_length_b                     9.016(3)
_cell_length_c                     12.258(2)
_cell_angle_alpha                  90.
_cell_angle_beta                   94.88(3)
_cell_angle_gamma                  90.
_cell_volume                       1037.31
_cell_formula_units_Z              4
_symmetry_space_group_name_H-M     'P 1 21/a 1'
_symmetry_Int_Tables_number        14
_refine_ls_R_factor_all            .0451
loop_
_symmetry_equiv_pos_site_id
_symmetry_equiv_pos_as_xyz
  1	'x+.5, -y+.5, z'
  2	'-x, -y, -z'
  3	'-x+.5, y+.5, -z'
  4	'x, y, z'
loop_
_atom_type_symbol
_atom_type_oxidation_number
Al3+	3
Cs1+	1
O2-	-2
P5+	5
loop_
_atom_site_label
_atom_site_type_symbol
_atom_site_symmetry_multiplicity
_atom_site_Wyckoff_symbol
_atom_site_fract_x
_atom_site_fract_y
_atom_site_fract_z
_atom_site_occupancy
_atom_site_attached_hydrogens
Cs1 Cs1+ 4 e 0.75857(5) 0.10640(6) 0.45851(4) 1. 0 
Cs2 Cs1+ 4 e 1.00557(5) 0.12267(5) 0.14611(4) 1. 0 
P1 P5+ 4 e 0.6781(2) 0.0838(2) -.0479(2) 1. 0 
P2 P5+ 4 e 0.4226(2) 0.0298(2) 0.2598(2) 1. 0 
P3 P5+ 4 e 1.0661(2) 0.2107(2) 0.6946(2) 1. 0 
Al1 Al3+ 4 e 0.6458(2) -.1485(2) 0.1479(2) 1. 0 
O1 O2- 4 e 0.5314(5) 0.1528(6) -.0561(4) 1. 0 
O2 O2- 4 e 0.8168(5) -.1335(6) 0.2334(5) 1. 0 
O3 O2- 4 e 0.6216(5) 0.1170(6) 0.6820(5) 1. 0 
O4 O2- 4 e 0.9303(5) 0.2200(6) 0.7523(4) 1. 0 
O5 O2- 4 e 0.6784(5) -.0341(6) 0.8518(4) 1. 0 
O6 O2- 4 e 0.7978(5) 0.1919(6) -.0640(4) 1. 0 
O7 O2- 4 e 0.7178(5) -.0071(6) 0.0521(4) 1. 0 
O8 O2- 4 e 0.5731(5) 0.0161(6) 0.2291(4) 1. 0 
O9 O2- 4 e 0.3891(6) 0.1601(6) 0.3256(5) 1. 0 
O10 O2- 4 e 1.0486(6) 0.1536(7) 0.5815(5) 1. 0 

loop_
_atom_site_aniso_label
_atom_site_aniso_type_symbol
_atom_site_aniso_U_11
_atom_site_aniso_U_22
_atom_site_aniso_U_33
_atom_site_aniso_U_12
_atom_site_aniso_U_13
_atom_site_aniso_U_23
Cs1 Cs1+ 0.0248(3) 0.0236(3) 0.0196(3) 0.0002(2) 0.0042(2) -.0007(2)
Cs2 Cs1+ 0.0187(3) 0.0187(3) 0.0239(3) 0.0006(2) -.0012(2) 0.0006(2)
P1 P5+ 0.0096(8) 0.0092(9) 0.0131(10) -.0004(7) 0.0008(7) 0.0014(7)
P2 P5+ 0.0149(9) 0.0125(9) 0.0087(9) 0.0002(7) -.0001(7) -.0027(7)
P3 P5+ 0.0121(8) 0.0109(9) 0.0113(9) 0.0024(7) -.0006(7) -.0014(7)
Al1 Al3+ 0.0096(10) 0.0092(10) 0.0100(11) 0.0011(8) 0.0004(8) 0.0006(8)
O1 O2- 0.011(2) 0.013(2) 0.010(3) 0.004(2) -.004(2) -.001(2)
O2 O2- 0.014(3) 0.013(3) 0.024(3) -.001(2) -.002(2) 0.005(2)
O3 O2- 0.021(3) 0.010(3) 0.022(3) 0.001(2) 0.011(2) -.003(2)
O4 O2- 0.016(3) 0.014(3) 0.013(3) -.001(2) 0.003(2) -.003(2)
O5 O2- 0.017(3) 0.017(3) 0.016(3) 0.006(2) -.001(2) -.004(2)
O6 O2- 0.014(3) 0.011(3) 0.021(3) -.003(2) -.001(2) 0.004(2)
O7 O2- 0.012(2) 0.018(3) 0.013(3) -.002(2) -.001(2) 0.005(2)
O8 O2- 0.014(2) 0.013(3) 0.009(3) -.001(2) -.001(2) -.003(2)
O9 O2- 0.029(3) 0.014(3) 0.027(3) 0.005(2) 0.004(3) -.009(2)
O10 O2- 0.027(3) 0.027(3) 0.016(3) 0.005(3) -.003(2) -.006(3)
#End of data_280355-ICSD


