data_280349-ICSD
#?2014 by Fachinformationszentrum Karlsruhe, and the U.S. Secretary of 
#Commerce on behalf of the United States.  All rights reserved.
_database_code_ICSD                280349
_audit_creation_date               2002/04/01
_audit_update_record               2010/08/01
_chemical_name_systematic
;
Tricalcium Tetranitridodialuminate - Gamma
;
_chemical_formula_structural       'Ca3 (Al2 N4)'
_chemical_formula_sum              'Al2 Ca3 N4'
_publ_section_title
;
Crystal structures of two polymorphs of Ca3 (Al2 N4)
;
loop_
_citation_id
_citation_journal_abbrev
_citation_year
_citation_journal_volume
_citation_page_first
_citation_page_last
_citation_journal_id_ASTM
primary 'Inorganic Chemistry' 2000 39 5909 5911 INOCAJ
_publ_author_name
;
Ludwig, M.;Jaeger, J.;Niewa, R.;Kniep, R.
;
_cell_length_a                     10.606(2)
_cell_length_b                     8.260(2)
_cell_length_c                     5.517(1)
_cell_angle_alpha                  90.
_cell_angle_beta                   92.1(1)
_cell_angle_gamma                  90.
_cell_volume                       483
_cell_formula_units_Z              4
_symmetry_space_group_name_H-M     'C 1 2/c 1'
_symmetry_Int_Tables_number        15
_refine_ls_R_factor_all            .082
loop_
_symmetry_equiv_pos_site_id
_symmetry_equiv_pos_as_xyz
  1	'x, -y, z+.5'
  2	'-x, -y, -z'
  3	'-x, y, -z+.5'
  4	'x, y, z'
  5	'x+.5, -y+.5, z+.5'
  6	'-x+.5, -y+.5, -z'
  7	'-x+.5, y+.5, -z+.5'
  8	'x+.5, y+.5, z'
loop_
_atom_type_symbol
_atom_type_oxidation_number
Al3+	3
Ca2+	2
N3-	-3
loop_
_atom_site_label
_atom_site_type_symbol
_atom_site_symmetry_multiplicity
_atom_site_Wyckoff_symbol
_atom_site_fract_x
_atom_site_fract_y
_atom_site_fract_z
_atom_site_occupancy
_atom_site_attached_hydrogens
Ca1 Ca2+ 4 e 0 0.39868(18) 0.25 1. 0 
Ca2 Ca2+ 8 f 0.11571(10) 0.86251(13) 0.0441(2) 1. 0 
Al1 Al3+ 8 f 0.29552(14) 0.11889(18) 0.0877(3) 1. 0 
N1 N3- 8 f 0.3373(4) 0.0725(5) 0.4178(7) 1. 0 
N2 N3- 8 f 0.1225(4) 0.1802(6) 0.0219(8) 1. 0 

loop_
_atom_site_aniso_label
_atom_site_aniso_type_symbol
_atom_site_aniso_U_11
_atom_site_aniso_U_22
_atom_site_aniso_U_33
_atom_site_aniso_U_12
_atom_site_aniso_U_13
_atom_site_aniso_U_23
Ca1 Ca2+ 0.0079(6) 0.0124(7) 0.0130(7) 0 -.0006(5) 0
Ca2 Ca2+ 0.0103(5) 0.0092(6) 0.0174(6) -.0003(3) -.0005(4) 0.0006(4)
Al1 Al3+ 0.0072(7) 0.0073(7) 0.0108(8) 0.0004(5) 0.0000(5) -.0006(5)
N1 N3- 0.0078(17) 0.0100(19) 0.0109(19) 0.0002(15) 0.0014(14) 0.0025(15)
N2 N3- 0.0078(18) 0.0103(19) 0.0135(19) -.0009(14) 0.0023(14) -.0005(15)
#End of data_280349-ICSD


