data_201281-ICSD
#?2014 by Fachinformationszentrum Karlsruhe, and the U.S. Secretary of 
#Commerce on behalf of the United States.  All rights reserved.
_database_code_ICSD                201281
_audit_creation_date               1981/12/31
_audit_update_record               2010/02/01
_chemical_name_systematic
;
Tripotassium Scandium Tris(molybdate)
;
_chemical_formula_structural       'K3 Sc (Mo O4)3'
_chemical_formula_sum              'K3 Mo3 O12 Sc1'
_publ_section_title
;
The double molybdate K3 Sc (Mo O4)3
;
loop_
_citation_id
_citation_journal_abbrev
_citation_year
_citation_journal_volume
_citation_page_first
_citation_page_last
_citation_journal_id_ASTM
primary 'Zhurnal Neorganicheskoi Khimii' 1981 26 2112 2116 ZNOKAQ
2 'Russian Journal of Inorganic Chemistry' 1981 26 1138 1141 RJICAQ
_publ_author_name
;
Efremov, V.A.;Kudin, O.V.;Velikodnyi, Yu.A.;Trunov, V.K.;Makarevich, 
L.G.
;
_cell_length_a                     9.327(4)
_cell_length_b                     10.867(3)
_cell_length_c                     13.635(5)
_cell_angle_alpha                  90.
_cell_angle_beta                   90.
_cell_angle_gamma                  90.
_cell_volume                       1382
_cell_formula_units_Z              4
_symmetry_space_group_name_H-M     'P b c 21'
_symmetry_Int_Tables_number        29
_refine_ls_R_factor_all            .48
loop_
_symmetry_equiv_pos_site_id
_symmetry_equiv_pos_as_xyz
  1	'-x, y+.5, z'
  2	'x, -y+.5, z+.5'
  3	'-x, -y, z+.5'
  4	'x, y, z'
loop_
_atom_type_symbol
_atom_type_oxidation_number
K1+	1
Mo6+	6
O2-	-2
Sc3+	3
loop_
_atom_site_label
_atom_site_type_symbol
_atom_site_symmetry_multiplicity
_atom_site_Wyckoff_symbol
_atom_site_fract_x
_atom_site_fract_y
_atom_site_fract_z
_atom_site_occupancy
_atom_site_attached_hydrogens
Mo1 Mo6+ 4 a 0.2488(3) 0.0508(2) 0.5054(3) 1. 0 
Mo2 Mo6+ 4 a -.2539(2) -.0477(2) -.4979(2) 1. 0 
Mo3 Mo6+ 4 a 0.1837(2) -.1661(1) 0.25 1. 0 
Sc1 Sc3+ 4 a -.0694(3) 0.2493(12) 0.5023(8) 1. 0 
K1 K1+ 4 a 0.4562(6) 0.7355(5) -.0260(6) 1. 0 
K2 K1+ 4 a 0.4628(6) 0.5174(6) 0.2457(7) 1. 0 
K3 K1+ 4 a 0.1872(6) 0.2328(4) 0.2556(13) 1. 0 
O1 O2- 4 a 0.3142(32) 0.1021(18) 0.6102(15) 1. 0 
O2 O2- 4 a 0.3801(25) 0.067(2) 0.4218(23) 1. 0 
O3 O2- 4 a 0.0833(21) 0.1267(15) 0.4688(13) 1. 0 
O4 O2- 4 a 0.2179(28) -.1141(18) 0.5255(13) 1. 0 
O5 O2- 4 a -.3168(23) -.1242(18) -.6054(18) 1. 0 
O6 O2- 4 a -.3838(23) -.0757(15) -.4117(13) 1. 0 
O7 O2- 4 a -.0964(19) -.1207(18) -.4584(18) 1. 0 
O8 O2- 4 a -.2310(15) 0.1110(12) -.5144(24) 1. 0 
O9 O2- 4 a 0.1967(35) -.0098(18) 0.2733(18) 1. 0 
O10 O2- 4 a 0.3522(18) -.2273(17) 0.2386(21) 1. 0 
O11 O2- 4 a 0.0706(28) -.2138(29) 0.1586(22) 1. 0 
O12 O2- 4 a 0.0860(25) -.1978(21) 0.3608(12) 1. 0 

#End of data_201281-ICSD


