data_65011-ICSD
#?2014 by Fachinformationszentrum Karlsruhe, and the U.S. Secretary of 
#Commerce on behalf of the United States.  All rights reserved.
_database_code_ICSD                65011
_audit_creation_date               1989/06/19
_audit_update_record               2009/08/01
_chemical_name_systematic
;
Sodium Dihydrogen Catena-triarsenate(V)
;
_chemical_formula_structural       'Na H2 (As3 O9)'
_chemical_formula_sum              'H2 As3 Na1 O9'
_publ_section_title
;
Structure de Na H2 As3 O9: Un nouvel anion arseniate condense
;
loop_
_citation_id
_citation_journal_abbrev
_citation_year
_citation_journal_volume
_citation_journal_issue
_citation_page_first
_citation_page_last
_citation_journal_id_ASTM
primary 'Acta Crystallographica, Section C: Crystal Structure Communications'
 1988 44 9 1507 1510 ACSCEE
_publ_author_name                  'Driss, A.;Jouini, T.'
_cell_length_a                     7.167(1)
_cell_length_b                     7.575(1)
_cell_length_c                     7.850(1)
_cell_angle_alpha                  109.89(1)
_cell_angle_beta                   107.27(1)
_cell_angle_gamma                  106.15(1)
_cell_volume                       346.9
_cell_formula_units_Z              2
_symmetry_space_group_name_H-M     'P -1'
_symmetry_Int_Tables_number        2
_refine_ls_R_factor_all            .034
loop_
_symmetry_equiv_pos_site_id
_symmetry_equiv_pos_as_xyz
  1	'-x, -y, -z'
  2	'x, y, z'
loop_
_atom_type_symbol
_atom_type_oxidation_number
As5+	5
H1+	1
Na1+	1
O2-	-2
loop_
_atom_site_label
_atom_site_type_symbol
_atom_site_symmetry_multiplicity
_atom_site_Wyckoff_symbol
_atom_site_fract_x
_atom_site_fract_y
_atom_site_fract_z
_atom_site_occupancy
_atom_site_attached_hydrogens
As1 As5+ 2 i 0.3665(1) 0.3468(1) 0.1674(1) 1. 0 
As2 As5+ 2 i 0.1550(1) 0.4360(1) 0.4772(1) 1. 0 
As3 As5+ 2 i 0.1878(1) 0.8369(1) 0.4527(1) 1. 0 
Na1 Na1+ 2 i 0.3154(7) 0.8223(6) 0.0425(6) 1. 0 
O1 O2- 2 i 0.3948(11) 0.1433(10) 0.0475(10) 1. 0 
O2 O2- 2 i 0.2784(11) 0.4672(11) 0.0349(11) 1. 0 
O3 O2- 2 i 0.1061(10) 0.7991(11) 0.2202(9) 1. 0 
O4 O2- 2 i 0.1853(10) 0.2833(10) 0.2640(9) 1. 0 
O5 O2- 2 i 0.0914(9) 0.5683(10) 0.6802(9) 1. 0 
O6 O2- 2 i 0.3972(10) 0.4448(10) 0.6474(9) 1. 0 
O7 O2- 2 i 0.3922(10) 0.077(1) 0.6277(10) 1. 0 
O8 O2- 2 i 0.0103(10) 0.1835(10) 0.4613(10) 1. 0 
O9 O2- 2 i 0.3146(10) 0.6859(9) 0.4961(9) 1. 0 
H1 H1+ 2 i 0.1275 0.3619 -.0658 1. 0 
H2 H1+ 2 i 0.41(3) 0.22(3) 0.67(3) 1. 0 

#End of data_65011-ICSD


