data_78368-ICSD
#?2014 by Fachinformationszentrum Karlsruhe, and the U.S. Secretary of 
#Commerce on behalf of the United States.  All rights reserved.
_database_code_ICSD                78368
_audit_creation_date               1996/04/22
_chemical_name_systematic
;
Octacadmium Disulfide Dodecaaluminate
;
_chemical_formula_structural       'Cd8 (Al O2)12 S2'
_chemical_formula_sum              'Al12 Cd8 O24 S2'
_publ_section_title
;
Synthese, Struktur und optische Eigenschaften von (Cd4 S)6+ -clustern 
in Aluminatkaefigen
;
loop_
_citation_id
_citation_journal_abbrev
_citation_year
_citation_journal_volume
_citation_journal_issue
_citation_page_first
_citation_page_last
_citation_journal_id_ASTM
primary 'Angewandte Chemie (German Edition)' 1993 105 11 1726 1727 ANCEAD
_publ_author_name                  'Brenchley, M.E.;Weller, M.T.'
_cell_length_a                     8.8181(1)
_cell_length_b                     8.8181(1)
_cell_length_c                     8.8181(1)
_cell_angle_alpha                  90.
_cell_angle_beta                   90.
_cell_angle_gamma                  90.
_cell_volume                       685.69
_cell_formula_units_Z              1
_symmetry_space_group_name_H-M     'I -4 3 m'
_symmetry_Int_Tables_number        217
_refine_ls_R_factor_all            .0879
loop_
_symmetry_equiv_pos_site_id
_symmetry_equiv_pos_as_xyz
  1	'-z, -y, x'
  2	'-y, -x, z'
  3	'-x, -z, y'
  4	'-z, -x, y'
  5	'-y, -z, x'
  6	'-x, -y, z'
  7	'-z, y, -x'
  8	'-y, x, -z'
  9	'-x, z, -y'
 10	'-z, x, -y'
 11	'-y, z, -x'
 12	'-x, y, -z'
 13	'z, -y, -x'
 14	'y, -x, -z'
 15	'x, -z, -y'
 16	'z, -x, -y'
 17	'y, -z, -x'
 18	'x, -y, -z'
 19	'z, y, x'
 20	'y, x, z'
 21	'x, z, y'
 22	'z, x, y'
 23	'y, z, x'
 24	'x, y, z'
 25	'-z+.5, -y+.5, x+.5'
 26	'-y+.5, -x+.5, z+.5'
 27	'-x+.5, -z+.5, y+.5'
 28	'-z+.5, -x+.5, y+.5'
 29	'-y+.5, -z+.5, x+.5'
 30	'-x+.5, -y+.5, z+.5'
 31	'-z+.5, y+.5, -x+.5'
 32	'-y+.5, x+.5, -z+.5'
 33	'-x+.5, z+.5, -y+.5'
 34	'-z+.5, x+.5, -y+.5'
 35	'-y+.5, z+.5, -x+.5'
 36	'-x+.5, y+.5, -z+.5'
 37	'z+.5, -y+.5, -x+.5'
 38	'y+.5, -x+.5, -z+.5'
 39	'x+.5, -z+.5, -y+.5'
 40	'z+.5, -x+.5, -y+.5'
 41	'y+.5, -z+.5, -x+.5'
 42	'x+.5, -y+.5, -z+.5'
 43	'z+.5, y+.5, x+.5'
 44	'y+.5, x+.5, z+.5'
 45	'x+.5, z+.5, y+.5'
 46	'z+.5, x+.5, y+.5'
 47	'y+.5, z+.5, x+.5'
 48	'x+.5, y+.5, z+.5'
loop_
_atom_type_symbol
_atom_type_oxidation_number
Al3+	3
Cd2+	2
O2-	-2
S2-	-2
loop_
_atom_site_label
_atom_site_type_symbol
_atom_site_symmetry_multiplicity
_atom_site_Wyckoff_symbol
_atom_site_fract_x
_atom_site_fract_y
_atom_site_fract_z
_atom_site_occupancy
_atom_site_attached_hydrogens
_atom_site_B_iso_or_equiv
Al1 Al3+ 12 d 0.25 0.5 0 1. 0 0.12(8) 
O1 O2- 24 g 0.1397(5) 0.1397(5) 0.4125(7) 1. 0 0.24(16) 
Cd1 Cd2+ 8 c 0.1660(1) 0.1660(1) 0.1660(1) 1. 0 0.42(3) 
S1 S2- 2 a 0 0 0 1. 0 0.55(16) 

#End of data_78368-ICSD


