data_73241-ICSD
#?2014 by Fachinformationszentrum Karlsruhe, and the U.S. Secretary of 
#Commerce on behalf of the United States.  All rights reserved.
_database_code_ICSD                73241
_audit_creation_date               1994/06/30
_chemical_name_systematic
;
Dilithium Dimagnesium Catena-tetrasilicate
;
_chemical_formula_structural       'Li2 Mg2 (Si4 O11)'
_chemical_formula_sum              'Li2 Mg2 O11 Si4'
_publ_section_title
;
The crystal structure of Li2Mg2(Si4O11), a loop-branched dreier 
single chain silicate
;
loop_
_citation_id
_citation_journal_abbrev
_citation_year
_citation_journal_volume
_citation_page_first
_citation_page_last
_citation_journal_id_ASTM
primary 'Zeitschrift fuer Kristallographie (1979-2010)' 1993 204 129 142 ZEKRDZ
_publ_author_name                  'Czank, M.;Bissert, G.'
_cell_length_a                     8.645(1)
_cell_length_b                     7.401(1)
_cell_length_c                     6.884(1)
_cell_angle_alpha                  104.71(1)
_cell_angle_beta                   101.08(1)
_cell_angle_gamma                  99.41(1)
_cell_volume                       407.48
_cell_formula_units_Z              2
_symmetry_space_group_name_H-M     'P -1'
_symmetry_Int_Tables_number        2
_refine_ls_R_factor_all            .054
loop_
_symmetry_equiv_pos_site_id
_symmetry_equiv_pos_as_xyz
  1	'-x, -y, -z'
  2	'x, y, z'
loop_
_atom_type_symbol
_atom_type_oxidation_number
Li1+	1
Mg2+	2
O2-	-2
Si4+	4
loop_
_atom_site_label
_atom_site_type_symbol
_atom_site_symmetry_multiplicity
_atom_site_Wyckoff_symbol
_atom_site_fract_x
_atom_site_fract_y
_atom_site_fract_z
_atom_site_occupancy
_atom_site_attached_hydrogens
_atom_site_U_iso_or_equiv
Si1 Si4+ 2 i 0.4047(2) 0.0238(3) 0.2323(3) 1. 0 0 
Si2 Si4+ 2 i 0.0302(2) 0.3923(3) 0.2399(3) 1. 0 0 
Si3 Si4+ 2 i 0.2249(2) 0.2241(2) 0.5209(3) 1. 0 0 
Si4 Si4+ 2 i 0.2326(2) 0.2245(3) 0.9592(3) 1. 0 0 
Mg1 Mg2+ 2 i 0.3899(3) 0.6201(3) 0.8830(4) 1. 0 0 
Mg2 Mg2+ 2 i 0.6017(3) 0.3806(3) 0.6302(4) 1. 0 0 
Li1 Li1+ 2 i 0.1491(16) 0.7532(19) 0.1454(21) 1. 0 0.0272(30) 
Li2 Li1+ 2 i 0.8012(16) 0.2027(20) 0.3911(23) 1. 0 0 
O1 O2- 2 i 0.5635(5) 0.1939(6) 0.3252(7) 1. 0 0 
O2 O2- 2 i 0.0662(5) 0.2602(6) 0.0255(6) 1. 0 0 
O3 O2- 2 i 0.5807(5) 0.1957(6) 0.8173(6) 1. 0 0 
O4 O2- 2 i 0.1814(5) 0.1516(5) 0.7099(6) 1. 0 0 
O5 O2- 2 i 0.2745(5) 0.0385(5) 0.3816(6) 1. 0 0 
O6 O2- 2 i 0.0579(5) 0.2597(6) 0.3978(6) 1. 0 0 
O7 O2- 2 i 0.2944(5) 0.0465(5) 0.0207(6) 1. 0 0 
O8 O2- 2 i 0.3703(5) 0.4087(6) 0.5841(7) 1. 0 0 
O9 O2- 2 i 0.1575(5) 0.5939(6) 0.3230(7) 1. 0 0 
O10 O2- 2 i 0.3735(5) 0.4153(6) 0.0624(6) 1. 0 0 
O11 O2- 2 i 0.1565(5) 0.6144(6) 0.8154(7) 1. 0 0 

loop_
_atom_site_aniso_label
_atom_site_aniso_type_symbol
_atom_site_aniso_U_11
_atom_site_aniso_U_22
_atom_site_aniso_U_33
_atom_site_aniso_U_12
_atom_site_aniso_U_13
_atom_site_aniso_U_23
Si1 Si4+ 0.0063(8) 0.0052(8) 0.0053(8) 0.0007(6) 0.0007(7) 0.0013(6)
Si2 Si4+ 0.0047(8) 0.0057(8) 0.0065(9) 0.0014(6) 0.0008(7) 0.0017(6)
Si3 Si4+ 0.0059(9) 0.0055(8) 0.0046(8) 0.0006(7) 0.0016(7) 0.0018(6)
Si4 Si4+ 0.0053(8) 0.0065(8) 0.0050(8) 0.0017(7) 0.0018(7) 0.0020(7)
Mg1 Mg2+ 0.0041(10) 0.0087(11) 0.0102(11) 0.0021(8) 0.0016(8) 0.0026(9)
Mg2 Mg2+ 0.0073(11) 0.0078(11) 0.0088(10) 0.0020(9) 0.0017(8) 0.0010(9)
Li2 Li1+ 0.019(7) 0.0305(77) 0.0357(88) 0.0077(62) 0.0108(62) 0.0061(65)
O1 O2- 0.0058(21) 0.0088(21) 0.0068(22) 0.0001(17) 0.0009(17) 0.0017(17)
O2 O2- 0.0057(19) 0.0122(21) 0.0052(20) 0.0012(16) 0.0002(16) -.0001(16)
O3 O2- 0.0100(21) 0.0049(19) 0.0058(20) 0.0030(16) 0.0031(17) 0.0031(16)
O4 O2- 0.0159(22) 0.0088(20) 0.0084(20) 0.0033(17) 0.0058(17) 0.0031(16)
O5 O2- 0.0106(20) 0.0046(19) 0.0106(21) 0.0003(16) 0.0033(17) -.0001(16)
O6 O2- 0.0061(19) 0.0084(20) 0.0099(21) 0.0001(16) 0.0018(16) 0.0042(17)
O7 O2- 0.0138(21) 0.0049(19) 0.0082(20) 0.0041(16) -.0015(17) 0.0033(16)
O8 O2- 0.0041(21) 0.0078(21) 0.0117(23) 0.0006(18) 0.0030(18) 0.0038(18)
O9 O2- 0.0028(20) 0.0108(22) 0.0072(22) 0.0008(17) -.0008(17) 0.0029(18)
O10 O2- 0.0065(21) 0.0011(19) 0.0064(22) 0.0012(16) 0.0021(17) 0.0005(16)
O11 O2- 0.0098(22) 0.0132(22) 0.0124(23) 0.0045(18) 0.0051(18) 0.0052(18)
#End of data_73241-ICSD


