data_80195-ICSD
#?2014 by Fachinformationszentrum Karlsruhe, and the U.S. Secretary of 
#Commerce on behalf of the United States.  All rights reserved.
_database_code_ICSD                80195
_audit_creation_date               1996/10/14
_chemical_name_systematic
;
Dicesium Disilver Zirconium Telluride
;
_chemical_formula_structural       'Cs2 Ag2 Zr Te4'
_chemical_formula_sum              'Ag2 Cs2 Te4 Zr1'
_publ_section_title
;
Cs2 Ag2 Zr Te4 : a new layered telluride containing tetrahedrally 
coordinated zirconium
;
loop_
_citation_id
_citation_journal_abbrev
_citation_year
_citation_journal_volume
_citation_journal_issue
_citation_page_first
_citation_page_last
_citation_journal_id_ASTM
primary 'Journal of the American Chemical Society' 1995 117 23 6284 6286 JACSAT
_publ_author_name                  'Pell, M.A.;Ibers, J.A.'
_cell_length_a                     6.508(7)
_cell_length_b                     15.164(16)
_cell_length_c                     6.518(6)
_cell_angle_alpha                  90.
_cell_angle_beta                   90.
_cell_angle_gamma                  90.
_cell_volume                       643.24
_cell_formula_units_Z              2
_symmetry_space_group_name_H-M     'C 2 2 2'
_symmetry_Int_Tables_number        21
_refine_ls_R_factor_all            .053
loop_
_symmetry_equiv_pos_site_id
_symmetry_equiv_pos_as_xyz
  1	'-x, y, -z'
  2	'x, -y, -z'
  3	'-x, -y, z'
  4	'x, y, z'
  5	'-x+.5, y+.5, -z'
  6	'x+.5, -y+.5, -z'
  7	'-x+.5, -y+.5, z'
  8	'x+.5, y+.5, z'
loop_
_atom_type_symbol
_atom_type_oxidation_number
Ag1+	1
Cs1+	1
Te2-	-2
Zr4+	4
loop_
_atom_site_label
_atom_site_type_symbol
_atom_site_symmetry_multiplicity
_atom_site_Wyckoff_symbol
_atom_site_fract_x
_atom_site_fract_y
_atom_site_fract_z
_atom_site_occupancy
_atom_site_attached_hydrogens
_atom_site_U_iso_or_equiv
Cs1 Cs1+ 4 k 0.25 0.25 0.7397(1) 1. 0 0.0109(2) 
Ag1 Ag1+ 2 d 0 0 0.5 1. 0 0.0094(2) 
Ag2 Ag1+ 2 b 0 0.5 0 1. 0 0.0095(2) 
Zr1 Zr4+ 2 a 0 0 0 1. 0 0.0064(3) 
Te1 Te2- 8 l 0.74239(7) 0.39379(3) 0.75902(8) 1. 0 0.00800(14) 

#End of data_80195-ICSD


