data_33702-ICSD
#?2014 by Fachinformationszentrum Karlsruhe, and the U.S. Secretary of 
#Commerce on behalf of the United States.  All rights reserved.
_database_code_ICSD                33702
_audit_creation_date               1989/06/21
_audit_update_record               2006/04/01
_chemical_name_systematic          'Calcium Catena-silicate'
_chemical_formula_structural       'Ca (Si O3)'
_chemical_formula_sum              'Ca1 O3 Si1'
_chemical_name_mineral             'Wollastonite 1A'
_publ_section_title
;
The crystal structures of wollastonite and pectolite
;
loop_
_citation_id
_citation_journal_abbrev
_citation_year
_citation_journal_volume
_citation_page_first
_citation_page_last
_citation_journal_id_ASTM
primary 'Proceedings of the National Academy of Sciences, U.S.A.'
 1961 47 1884 1888 PNASA6
2 'Golden Book of Phase Transitions, Wroclaw' 2002 1 1 123 GBOPT5
_publ_author_name                  'Buerger, M.J.;Prewitt, C.T.'
_cell_length_a                     7.94
_cell_length_b                     7.32
_cell_length_c                     7.07
_cell_angle_alpha                  90.03
_cell_angle_beta                   95.37
_cell_angle_gamma                  103.43
_cell_volume                       397.82
_cell_formula_units_Z              6
_symmetry_space_group_name_H-M     'P -1'
_symmetry_Int_Tables_number        2
_refine_ls_R_factor_all            .089
loop_
_symmetry_equiv_pos_site_id
_symmetry_equiv_pos_as_xyz
  1	'-x, -y, -z'
  2	'x, y, z'
loop_
_atom_type_symbol
_atom_type_oxidation_number
Ca2+	2
O2-	-2
Si4+	4
loop_
_atom_site_label
_atom_site_type_symbol
_atom_site_symmetry_multiplicity
_atom_site_Wyckoff_symbol
_atom_site_fract_x
_atom_site_fract_y
_atom_site_fract_z
_atom_site_occupancy
_atom_site_attached_hydrogens
_atom_site_B_iso_or_equiv
Ca1 Ca2+ 2 i 0.1985(1) 0.4228(1) 0.7608(1) 1. 0 0.41 
Ca2 Ca2+ 2 i 0.2027(1) 0.9293(1) 0.7640(1) 1. 0 0.45 
Ca3 Ca2+ 2 i 0.4966(1) 0.2495(1) 0.4720(1) 1. 0 0.37 
Si1 Si4+ 2 i 0.1852(2) 0.3870(2) 0.2687(2) 1. 0 0.24 
Si2 Si4+ 2 i 0.1849(2) 0.9545(2) 0.2692(2) 1. 0 0.24 
Si3 Si4+ 2 i 0.3970(2) 0.7235(2) 0.0560(2) 1. 0 0.22 
O1 O2- 2 i 0.4291(5) 0.2314(6) 0.8019(5) 1. 0 0.48 
O2 O2- 2 i 0.4008(5) 0.7259(6) 0.8302(5) 1. 0 0.37 
O3 O2- 2 i 0.3037(5) 0.4635(6) 0.4641(6) 1. 0 0.6 
O4 O2- 2 i 0.3017(5) 0.9374(6) 0.4655(6) 1. 0 0.64 
O5 O2- 2 i 0.0154(5) 0.6254(6) 0.7343(6) 1. 0 0.63 
O6 O2- 2 i 0.0175(5) 0.1319(6) 0.7353(6) 1. 0 0.71 
O7 O2- 2 i 0.2732(4) 0.5118(5) 0.0919(5) 1. 0 0.37 
O8 O2- 2 i 0.2713(5) 0.8717(5) 0.0940(5) 1. 0 0.51 
O9 O2- 2 i 0.2188(5) 0.1784(5) 0.2228(5) 1. 0 0.68 

#End of data_33702-ICSD


