data_419256-ICSD
#?2014 by Fachinformationszentrum Karlsruhe, and the U.S. Secretary of 
#Commerce on behalf of the United States.  All rights reserved.
_database_code_ICSD                419256
_audit_creation_date               2009/02/01
_chemical_name_systematic
;
Potassium Sulfitochloromercurate(II) Mercury(II) Dichloride Potassium 
Chloride
;
_chemical_formula_structural       '(K Hg S O3 Cl) (Hg Cl2) (K Cl)'
_chemical_formula_sum              'Cl4 Hg2 K2 O3 S1'
_publ_section_title
;
Structural studies of new sulfito mercurates(II) with general formula 
xM [X Hg S O3] * y Hg X2 * z M X * n H2O (M = NH4, K; X = Cl, Br)
;
loop_
_citation_id
_citation_journal_abbrev
_citation_year
_citation_journal_volume
_citation_journal_issue
_citation_page_first
_citation_page_last
_citation_journal_id_ASTM
primary 'Zeitschrift fuer Anorganische und Allgemeine Chemie (1950) (DE)'
 2008 634 10 1742 1748 ZAACAB
_publ_author_name
;
Weil, M.;Baumann, S.;Breitinger, D.K.
;
_cell_length_a                     9.5319(13)
_cell_length_b                     5.9593(8)
_cell_length_c                     10.1761(14)
_cell_angle_alpha                  90.00
_cell_angle_beta                   110.522(2)
_cell_angle_gamma                  90.00
_cell_volume                       541.35
_cell_formula_units_Z              2
_symmetry_space_group_name_H-M     'P 1 21/m 1'
_symmetry_Int_Tables_number        11
_refine_ls_R_factor_all            .0353
loop_
_symmetry_equiv_pos_site_id
_symmetry_equiv_pos_as_xyz
  1	'x, -y+.5, z'
  2	'-x, -y, -z'
  3	'-x, y+.5, -z'
  4	'x, y, z'
loop_
_atom_type_symbol
_atom_type_oxidation_number
Cl1-	-1
Hg2+	2
K1+	1
O2-	-2
S4+	4
loop_
_atom_site_label
_atom_site_type_symbol
_atom_site_symmetry_multiplicity
_atom_site_Wyckoff_symbol
_atom_site_fract_x
_atom_site_fract_y
_atom_site_fract_z
_atom_site_occupancy
_atom_site_attached_hydrogens
_atom_site_U_iso_or_equiv
Hg1 Hg2+ 2 e 0.40835(4) 0.2500 0.36817(4) 1 0 0.01760(12) 
Hg2 Hg2+ 2 e 0.88260(4) 0.2500 0.52763(4) 1 0 0.02143(13) 
S1 S4+ 2 e 0.3091(3) 0.2500 0.1203(3) 1 0 0.0136(5) 
Cl1 Cl1- 2 e 0.5806(3) 0.2500 0.6070(3) 1 0 0.0162(5) 
Cl2 Cl1- 2 e 0.7221(3) 0.2500 0.2931(3) 1 0 0.0205(6) 
Cl3 Cl1- 2 e 0.1635(3) 0.2500 0.4667(3) 1 0 0.0236(6) 
Cl4 Cl1- 2 e 1.0191(3) 0.2500 0.7658(3) 1 0 0.0244(6) 
K1 K1+ 2 e 0.3996(3) 0.2500 0.8243(3) 1 0 0.0200(5) 
K2 K1+ 2 e 0.8727(3) 0.2500 0.0556(3) 1 0 0.0280(6) 
O1 O2- 4 f 0.3609(6) 0.0490(10) 0.0685(6) 1 0 0.0228(12) 
O2 O2- 2 e 0.1463(9) 0.2500 0.0828(9) 1 0 0.040(3) 

loop_
_atom_site_aniso_label
_atom_site_aniso_type_symbol
_atom_site_aniso_U_11
_atom_site_aniso_U_22
_atom_site_aniso_U_33
_atom_site_aniso_U_12
_atom_site_aniso_U_13
_atom_site_aniso_U_23
Hg1 Hg2+ 0.0255(2) 0.0139(2) 0.0117(2) 0.000 0.00422(17) 0.000
Hg2 Hg2+ 0.0204(2) 0.0254(3) 0.0153(2) 0.000 0.00237(17) 0.000
S1 S4+ 0.0129(11) 0.0158(14) 0.0118(12) 0.000 0.0037(9) 0.000
Cl1 Cl1- 0.0215(12) 0.0121(13) 0.0124(12) 0.000 0.0024(10) 0.000
Cl2 Cl1- 0.0172(12) 0.0236(15) 0.0179(14) 0.000 0.0029(10) 0.000
Cl3 Cl1- 0.0256(13) 0.0185(14) 0.0327(17) 0.000 0.0180(12) 0.000
Cl4 Cl1- 0.0268(13) 0.0272(17) 0.0153(13) 0.000 0.0024(11) 0.000
K1 K1+ 0.0258(11) 0.0167(13) 0.0207(12) 0.000 0.0119(10) 0.000
K2 K1+ 0.0181(11) 0.0236(14) 0.0458(18) 0.000 0.0155(12) 0.000
O1 O2- 0.031(3) 0.019(3) 0.017(3) 0.004(2) 0.006(2) 0.000(2)
O2 O2- 0.014(4) 0.085(8) 0.018(5) 0.000 0.002(3) 0.000
#End of data_419256-ICSD


