data_89586-ICSD
#?2014 by Fachinformationszentrum Karlsruhe, and the U.S. Secretary of 
#Commerce on behalf of the United States.  All rights reserved.
_database_code_ICSD                89586
_audit_creation_date               2002/04/01
_audit_update_record               2012/02/01
_chemical_name_systematic          'Tripotassium Triselenoferrate(III)'
_chemical_formula_structural       'K3 (Fe Se3)'
_chemical_formula_sum              'Fe1 K3 Se3'
_publ_section_title
;
K3 Fe Se3 und K3 Fe2 Se4, zwei neue Verbindungen im System K / Fe / 
Se
;
loop_
_citation_id
_citation_journal_abbrev
_citation_year
_citation_journal_volume
_citation_page_first
_citation_page_last
_citation_journal_id_ASTM
primary 'Zeitschrift fuer Anorganische und Allgemeine Chemie (1950) (DE)'
 1999 625 274 278 ZAACAB
_publ_author_name
;
Bronger, W.;Genin, H.S.;Mueller, P.
;
_cell_length_a                     8.023(2)
_cell_length_b                     12.868(7)
_cell_length_c                     10.410(2)
_cell_angle_alpha                  90.
_cell_angle_beta                   127.49(2)
_cell_angle_gamma                  90.
_cell_volume                       852.75
_cell_formula_units_Z              4
_symmetry_space_group_name_H-M     'P 1 21/c 1'
_symmetry_Int_Tables_number        14
_refine_ls_R_factor_all            .03
loop_
_symmetry_equiv_pos_site_id
_symmetry_equiv_pos_as_xyz
  1	'x, -y+.5, z+.5'
  2	'-x, -y, -z'
  3	'-x, y+.5, -z+.5'
  4	'x, y, z'
loop_
_atom_type_symbol
_atom_type_oxidation_number
Fe3+	3
K1+	1
Se2-	-2
loop_
_atom_site_label
_atom_site_type_symbol
_atom_site_symmetry_multiplicity
_atom_site_Wyckoff_symbol
_atom_site_fract_x
_atom_site_fract_y
_atom_site_fract_z
_atom_site_occupancy
_atom_site_attached_hydrogens
K1 K1+ 4 e 0.3851(3) 0.37091(17) 0.52311(25) 1. 0 
K2 K1+ 4 e 0.1293(4) 0.81103(20) 0.4184(3) 1. 0 
K3 K1+ 4 e 0.3460(4) 0.08018(23) 0.6030(3) 1. 0 
Fe1 Fe3+ 4 e 0.06123(17) 0.0573(1) 0.15321(13) 1. 0 
Se1 Se2- 4 e 0.87256(13) 0.45119(8) 0.76002(10) 1. 0 
Se2 Se2- 4 e 0.35168(14) 0.32719(8) 0.80915(10) 1. 0 
Se3 Se2- 4 e 0.15867(14) 0.61293(7) 0.62629(10) 1. 0 

loop_
_atom_site_aniso_label
_atom_site_aniso_type_symbol
_atom_site_aniso_U_11
_atom_site_aniso_U_22
_atom_site_aniso_U_33
_atom_site_aniso_U_12
_atom_site_aniso_U_13
_atom_site_aniso_U_23
K1 K1+ 0.0332(10) 0.0337(12) 0.0275(10) 0.0010(9) 0.0196(9) 0.0008(9)
K2 K1+ 0.0302(11) 0.0358(12) 0.0415(13) 0.0035(10) 0.0144(10) -.0135(10)
K3 K1+ 0.0292(11) 0.0754(20) 0.026(1) 0.0169(12) 0.0142(9) -.0046(11)
Fe1 Fe3+ 0.0146(5) 0.0175(6) 0.0155(5) -.0006(5) 0.0085(4) 0.0001(4)
Se1 Se2- 0.0196(4) 0.0365(5) 0.0247(4) 0.0026(4) 0.0156(3) 0.0014(4)
Se2 Se2- 0.0206(4) 0.0326(5) 0.0202(4) 0.0107(4) 0.0120(3) 0.0092(4)
Se3 Se2- 0.0291(4) 0.0217(4) 0.0169(4) 0.0082(4) 0.0093(3) 0.0012(3)
#End of data_89586-ICSD


