data_161305-ICSD
#?2014 by Fachinformationszentrum Karlsruhe, and the U.S. Secretary of 
#Commerce on behalf of the United States.  All rights reserved.
_database_code_ICSD                161305
_audit_creation_date               2009/02/01
_chemical_name_systematic          'Dilithium Manganese Silicate - Hp'
_chemical_formula_structural       'Li2 Mn (Si O4)'
_chemical_formula_sum              'Li2 Mn1 O4 Si1'
_publ_section_title
;
On the energetic stability and electrochemistry of Li2 Mn Si O4 
polymorphs
;
loop_
_citation_id
_citation_journal_abbrev
_citation_year
_citation_journal_volume
_citation_page_first
_citation_page_last
_citation_journal_id_ASTM
primary 'Chemistry of Materials' 2008 20 5574 5584 CMATEX
_publ_author_name
;
Arroyo-deDompablo, M.E.;Dominko, R.;Gallardo-Amores, J.M.;Dupont, 
L.;Mali, G.;Ehrenberg, H.;Jamnik, J.;Moran, E.
;
_cell_length_a                     6.3704
_cell_length_b                     5.4359
_cell_length_c                     5.0274
_cell_angle_alpha                  90.
_cell_angle_beta                   90.
_cell_angle_gamma                  90.
_cell_volume                       174.09
_cell_formula_units_Z              2
_symmetry_space_group_name_H-M     'P m n 21'
_symmetry_Int_Tables_number        31
loop_
_symmetry_equiv_pos_site_id
_symmetry_equiv_pos_as_xyz
  1	'x+.5, -y, z+.5'
  2	'-x+.5, -y, z+.5'
  3	'-x, y, z'
  4	'x, y, z'
loop_
_atom_type_symbol
_atom_type_oxidation_number
Li1+	1
Mn2+	2
O2-	-2
Si4+	4
loop_
_atom_site_label
_atom_site_type_symbol
_atom_site_symmetry_multiplicity
_atom_site_Wyckoff_symbol
_atom_site_fract_x
_atom_site_fract_y
_atom_site_fract_z
_atom_site_occupancy
_atom_site_attached_hydrogens
Li1 Li1+ 4 b 0.24904 0.33102 0.94280 1. 0 
Mn1 Mn2+ 2 a 0 0.16543 0.43950 1. 0 
Si1 Si4+ 2 a 0.5 0.18091 0.45034 1. 0 
O1 O2- 4 b 0.21236 0.67786 0.83739 1. 0 
O2 O2- 2 a 0 0.11265 0.85559 1. 0 
O3 O2- 2 a 0 0.81078 0.27915 1. 0 

#End of data_161305-ICSD


