data_166586-ICSD
#?2014 by Fachinformationszentrum Karlsruhe, and the U.S. Secretary of 
#Commerce on behalf of the United States.  All rights reserved.
_database_code_ICSD                166586
_audit_creation_date               2010/08/01
_audit_update_record               2013/08/01
_chemical_name_systematic
;
Potassium Nitrosopentafluoroosmate(V)
;
_chemical_formula_structural       'K (Os (N O) F5)'
_chemical_formula_sum              'F5 K1 N1 O1 Os1'
_publ_section_title
;
Characteristics of the crystal structure of osmium nitrosyl 
pentafluoro complexes for different oxidation states of complexing
;
loop_
_citation_id
_citation_journal_abbrev
_citation_year
_citation_journal_volume
_citation_page_first
_citation_page_last
_citation_journal_id_ASTM
primary 'Doklady Akademii Nauk SSSR' 1989 308 381 383 DANKAS
_publ_author_name
;
Kanishcheva, A.S.;Mikhailov, Yu.N.;Sinitsyn, M.N.;Svetlov, 
A.A.;Kokunov, Yu.V.;Buslaev, Yu.A.
;
_cell_length_a                     9.228(2)
_cell_length_b                     6.045(1)
_cell_length_c                     4.747(1)
_cell_angle_alpha                  90.
_cell_angle_beta                   98.44(1)
_cell_angle_gamma                  90.
_cell_volume                       261.94
_cell_formula_units_Z              2
_symmetry_space_group_name_H-M     'P 1 21/m 1'
_symmetry_Int_Tables_number        11
_refine_ls_R_factor_all            .073
loop_
_symmetry_equiv_pos_site_id
_symmetry_equiv_pos_as_xyz
  1	'x, -y+.5, z'
  2	'-x, -y, -z'
  3	'-x, y+.5, -z'
  4	'x, y, z'
loop_
_atom_type_symbol
_atom_type_oxidation_number
F1-	-1
K1+	1
N1+	1
O2-	-2
Os5+	5
loop_
_atom_site_label
_atom_site_type_symbol
_atom_site_symmetry_multiplicity
_atom_site_Wyckoff_symbol
_atom_site_fract_x
_atom_site_fract_y
_atom_site_fract_z
_atom_site_occupancy
_atom_site_attached_hydrogens
Os1 Os5+ 2 e 0.2720(1) 0.250 0.0975(2) 1. 0 
K1 K1+ 2 e 0.1060(7) -0.250 -0.2901(13) 1. 0 
F1 F1- 4 f 0.3402(14) 0.0243(21) -0.1333(24) 1. 0 
F2 F1- 4 f 0.1702(15) 0.4744(19) 0.2754(25) 1. 0 
F3 F1- 2 e 0.0960(19) 0.250 -0.1794(34) 1. 0 
N1 N1+ 2 e 0.4255(28) 0.250 0.3507(47) 1. 0 
O1 O2- 2 e 0.5312(25) 0.250 0.5178(50) 1. 0 

#End of data_166586-ICSD


