data_246859-ICSD
#?2014 by Fachinformationszentrum Karlsruhe, and the U.S. Secretary of 
#Commerce on behalf of the United States.  All rights reserved.
_database_code_ICSD                246859
_audit_creation_date               2010/02/01
_audit_update_record               2013/08/01
_chemical_name_systematic          'Tetralithium Diphosphate(V)'
_chemical_formula_structural       'Li4 (P2 O7)'
_chemical_formula_sum              'Li4 O7 P2'
_publ_section_title
;
Nature of insulating-phase transition and degradation of structure 
and electrochemical reactivity in an olivine-structured material, Li 
Fe P O4
;
loop_
_citation_id
_citation_journal_abbrev
_citation_year
_citation_journal_volume
_citation_journal_issue
_citation_page_first
_citation_page_last
_citation_journal_id_ASTM
primary 'Inorganic Chemistry' 2009 48 17 8271 8275 INOCAJ
_publ_author_name
;
Song Min-Sang;Kang Yong-Mook;Kim Yong-Il;Park Kyu-Sung;Kwon Hyuk-Sang
;
_cell_length_a                     8.5392(1)
_cell_length_b                     7.0984(1)
_cell_length_c                     5.1677(1)
_cell_angle_alpha                  111.66(2)
_cell_angle_beta                   90.19(2)
_cell_angle_gamma                  102.95(1)
_cell_volume                       282.43
_cell_formula_units_Z              2
_symmetry_space_group_name_H-M     'P -1'
_symmetry_Int_Tables_number        2
_refine_ls_R_factor_all            .0668
loop_
_symmetry_equiv_pos_site_id
_symmetry_equiv_pos_as_xyz
  1	'-x, -y, -z'
  2	'x, y, z'
loop_
_atom_type_symbol
_atom_type_oxidation_number
Li1+	1
O2-	-2
P5+	5
loop_
_atom_site_label
_atom_site_type_symbol
_atom_site_symmetry_multiplicity
_atom_site_Wyckoff_symbol
_atom_site_fract_x
_atom_site_fract_y
_atom_site_fract_z
_atom_site_occupancy
_atom_site_attached_hydrogens
_atom_site_U_iso_or_equiv
Li1 Li1+ 2 i 0.9108(2) 0.5592(1) 0.5655(2) 1. 0 0.0135(4) 
Li2 Li1+ 2 i 0.5616(2) 0.7200(1) 0.5600(2) 1. 0 0.0072(4) 
Li3 Li1+ 2 i 0.6723(2) 0.2773(1) 0.8893(2) 1. 0 0.0149(4) 
Li4 Li1+ 2 i 0.9588(1) 0.8903(2) 0.1733(2) 1. 0 0.0106(4) 
P1 P5+ 2 i 0.8361(1) 0.2207(2) 0.3906(1) 1. 0 0.0150(2) 
P2 P5+ 2 i 0.6173(1) -0.2348(2) 0.2080(1) 1. 0 0.0105(2) 
O1 O2- 2 i 0.6701(2) 0.0001(1) 0.2565(1) 1. 0 0.0157(1) 
O2 O2- 2 i 0.9099(1) 0.2662(2) 0.7387(2) 1. 0 0.0194(1) 
O3 O2- 2 i 0.7861(1) 0.3514(1) 0.3700(2) 1. 0 0.0142(2) 
O4 O2- 2 i 0.9268(2) 0.0847(1) 0.2899(1) 1. 0 0.0044(1) 
O5 O2- 2 i 0.6522(1) -0.2776(2) 0.4520(2) 1. 0 0.0018(1) 
O6 O2- 2 i 0.4613(1) -0.2438(1) -0.0082(2) 1. 0 0.0176(2) 
O7 O2- 2 i 0.8504(1) -0.2346(1) 0.0607(2) 1. 0 0.0080(2) 

#End of data_246859-ICSD


