data_73122-ICSD
#?2014 by Fachinformationszentrum Karlsruhe, and the U.S. Secretary of 
#Commerce on behalf of the United States.  All rights reserved.
_database_code_ICSD                73122
_audit_creation_date               1994/06/30
_chemical_name_systematic          'Silver Trioxobismuthate(III)'
_chemical_formula_structural       'Ag3 (Bi O3)'
_chemical_formula_sum              'Ag3 Bi1 O3'
_publ_section_title
;
Ag3BiO3 und Ag5BiO4, die ersten Silberoxobismutate(III)
;
loop_
_citation_id
_citation_journal_abbrev
_citation_year
_citation_journal_volume
_citation_page_first
_citation_page_last
_citation_journal_id_ASTM
primary 'Zeitschrift fuer Anorganische und Allgemeine Chemie (1950) (DE)'
 1993 619 1446 1454 ZAACAB
_publ_author_name                  'Bortz, M.;Jansen, M.'
_cell_length_a                     14.1924(1)
_cell_length_b                     14.1924(1)
_cell_length_c                     8.7997(1)
_cell_angle_alpha                  90.
_cell_angle_beta                   90.
_cell_angle_gamma                  90.
_cell_volume                       1772.47
_cell_formula_units_Z              16
_symmetry_space_group_name_H-M     'I 41'
_symmetry_Int_Tables_number        80
_refine_ls_R_factor_all            .06
loop_
_symmetry_equiv_pos_site_id
_symmetry_equiv_pos_as_xyz
  1	'y, -x+.5, z+.25'
  2	'-y, x+.5, z+.25'
  3	'-x, -y, z'
  4	'x, y, z'
  5	'y+.5, -x, z+.75'
  6	'-y+.5, x, z+.75'
  7	'-x+.5, -y+.5, z+.5'
  8	'x+.5, y+.5, z+.5'
loop_
_atom_type_symbol
_atom_type_oxidation_number
Ag1+	1
Bi3+	3
O2-	-2
loop_
_atom_site_label
_atom_site_type_symbol
_atom_site_symmetry_multiplicity
_atom_site_Wyckoff_symbol
_atom_site_fract_x
_atom_site_fract_y
_atom_site_fract_z
_atom_site_occupancy
_atom_site_attached_hydrogens
_atom_site_U_iso_or_equiv
Bi1 Bi3+ 8 b 0.09969(7) 0.22916(7) 0 1. 0 0 
Bi2 Bi3+ 8 b 0.72113(7) 0.40167(7) 0.99116(15) 1. 0 0 
Ag1 Ag1+ 8 b 0.35330(17) 0.19936(19) 0.11926(35) 1. 0 0 
Ag2 Ag1+ 8 b 0.41137(19) 0.05389(19) 0.35476(40) 1. 0 0 
Ag3 Ag1+ 8 b 0.00056(21) 0.27609(28) 0.38376(40) 1. 0 0 
Ag4 Ag1+ 8 b 0.06136(19) 0.58086(19) 0.15564(40) 1. 0 0 
Ag5 Ag1+ 8 b 0.14786(17) 0.78511(18) 0.13770(36) 1. 0 0 
Ag6 Ag1+ 8 b 0.59055(28) 0.01971(27) 0.02084(46) 1. 0 0 
O1 O2- 8 b 0.5444(15) 0.2044(15) 0.5182(29) 1. 0 0.0079(38) 
O2 O2- 8 b 0.5314(15) 0.0923(14) 0.2189(24) 1. 0 0.0045(37) 
O3 O2- 8 b 0.1003(16) 0.4593(16) 0.3000(27) 1. 0 0.0090(42) 
O4 O2- 8 b 0.7443(17) 0.3735(16) 0.7594(33) 1. 0 0.0132(44) 
O5 O2- 8 b 0.2482(15) 0.1252(14) 0.0048(30) 1. 0 0.0067(37) 
O6 O2- 8 b 0.2859(16) 0.0421(16) 0.4858(32) 1. 0 0.0108(41) 

loop_
_atom_site_aniso_label
_atom_site_aniso_type_symbol
_atom_site_aniso_U_11
_atom_site_aniso_U_22
_atom_site_aniso_U_33
_atom_site_aniso_U_12
_atom_site_aniso_U_13
_atom_site_aniso_U_23
Bi1 Bi3+ 0.0064(4) 0.0067(4) 0.0070(4) -.0014(3) -.0003(4) -.0002(4)
Bi2 Bi3+ 0.0069(4) 0.0076(4) 0.0071(4) 0.0013(3) -.0003(4) -.0001(4)
Ag1 Ag1+ 0.0124(9) 0.0191(10) 0.0113(11) -.0040(8) -.0029(9) 0.0004(9)
Ag2 Ag1+ 0.0133(10) 0.0192(11) 0.0197(13) 0.0020(8) 0.0075(10) 0.001(1)
Ag3 Ag1+ 0.0171(11) 0.0565(21) 0.0126(11) 0.0064(13) -.0014(9) -.0021(14)
Ag4 Ag1+ 0.0177(10) 0.0124(10) 0.0238(15) -.0009(8) -.0067(10) 0.0072(10)
Ag5 Ag1+ 0.0130(9) 0.0183(10) 0.0097(10) -.0002(8) -.0021(8) -.0026(8)
Ag6 Ag1+ 0.0466(20) 0.0372(17) 0.0286(17) -.0111(15) 0.0241(16) -.0164(15)
#End of data_73122-ICSD


