data_15315-ICSD
#?2014 by Fachinformationszentrum Karlsruhe, and the U.S. Secretary of 
#Commerce on behalf of the United States.  All rights reserved.
_database_code_ICSD                15315
_audit_creation_date               1980/01/01
_audit_update_record               2010/02/01
_chemical_name_systematic          'Dicalcium Chromate(V) Chloride'
_chemical_formula_structural       'Ca2 (Cr O4) Cl'
_chemical_formula_sum              'Ca2 Cl1 Cr1 O4'
_publ_section_title
;
The crystal structures of the spodiosite analogs, Ca2 Cr O4 Cl and 
Ca2 P O4 Cl
;
loop_
_citation_id
_citation_journal_abbrev
_citation_year
_citation_journal_volume
_citation_page_first
_citation_page_last
_citation_journal_id_ASTM
primary 'Acta Crystallographica (1,1948-23,1967)' 1967 23 166 171 ACCRA9
_publ_author_name                  'Greenblatt, M.;Banks, E.;Post, B.'
_cell_length_a                     6.259(5)
_cell_length_b                     7.124(5)
_cell_length_c                     10.99(5)
_cell_angle_alpha                  90.
_cell_angle_beta                   90.
_cell_angle_gamma                  90.
_cell_volume                       490.03
_cell_formula_units_Z              4
_symmetry_space_group_name_H-M     'P b c m'
_symmetry_Int_Tables_number        57
_refine_ls_R_factor_all            .041
loop_
_symmetry_equiv_pos_site_id
_symmetry_equiv_pos_as_xyz
  1	'x, -y+.5, z+.5'
  2	'-x, y+.5, z'
  3	'x, y, -z+.5'
  4	'-x, -y, -z'
  5	'-x, y+.5, -z+.5'
  6	'x, -y+.5, -z'
  7	'-x, -y, z+.5'
  8	'x, y, z'
loop_
_atom_type_symbol
_atom_type_oxidation_number
Ca2+	2
Cl1-	-1
Cr5+	5
O2-	-2
loop_
_atom_site_label
_atom_site_type_symbol
_atom_site_symmetry_multiplicity
_atom_site_Wyckoff_symbol
_atom_site_fract_x
_atom_site_fract_y
_atom_site_fract_z
_atom_site_occupancy
_atom_site_attached_hydrogens
Ca1 Ca2+ 4 c 0.6202(3) 0.25 0 1. 0 
Ca2 Ca2+ 4 d 0.1395(3) 0.4702(2) 0.25 1. 0 
Cr1 Cr5+ 4 c 0.1243(2) 0.25 0 1. 0 
Cl1 Cl1- 4 d 0.4791(4) 0.1781(3) 0.25 1. 0 
O1 O2- 8 e 0.0422(7) 0.7351(5) 0.3767(3) 1. 0 
O2 O2- 8 e 0.7110(6) 0.5693(5) 0.5313(3) 1. 0 

#End of data_15315-ICSD


