data_250371-ICSD
#?2014 by Fachinformationszentrum Karlsruhe, and the U.S. Secretary of 
#Commerce on behalf of the United States.  All rights reserved.
_database_code_ICSD                250371
_audit_creation_date               2007/04/01
_chemical_name_systematic          'Dipotassium Hexafluorozirconate'
_chemical_formula_structural       'K2 (Zr F6)'
_chemical_formula_sum              'F6 K2 Zr1'
_publ_section_title
;
Synthesis and complex investigation of potassium ammonium 
hexafluorozirconates: I. Synthesis and X-ray diffraction study of K2-
x (N H4)x Zr F6 (0>= x >= 2) crystals
;
loop_
_citation_id
_citation_journal_abbrev
_citation_year
_citation_journal_volume
_citation_journal_issue
_citation_page_first
_citation_page_last
_citation_journal_id_ASTM
primary 'Zhurnal Neorganicheskoi Khimii' 2006 51 1 15 28 ZNOKAQ
_publ_author_name
;
Gerasimenko, A.V.;Tkachenko, I.A.;Kavun, V.Ya.;Didenko, 
N.A.;Sergienko, V.I.
;
_cell_length_a                     6.5704(6)
_cell_length_b                     11.4502(10)
_cell_length_c                     6.9465(6)
_cell_angle_alpha                  90
_cell_angle_beta                   90.528(2)
_cell_angle_gamma                  90
_cell_volume                       522.58
_cell_formula_units_Z              4
_symmetry_space_group_name_H-M     'C 1 2/c 1'
_symmetry_Int_Tables_number        15
_refine_ls_R_factor_all            .0201
loop_
_symmetry_equiv_pos_site_id
_symmetry_equiv_pos_as_xyz
  1	'x, -y, z+.5'
  2	'-x, -y, -z'
  3	'-x, y, -z+.5'
  4	'x, y, z'
  5	'x+.5, -y+.5, z+.5'
  6	'-x+.5, -y+.5, -z'
  7	'-x+.5, y+.5, -z+.5'
  8	'x+.5, y+.5, z'
loop_
_atom_type_symbol
_atom_type_oxidation_number
F1-	-1
K1+	1
Zr4+	4
loop_
_atom_site_label
_atom_site_type_symbol
_atom_site_symmetry_multiplicity
_atom_site_Wyckoff_symbol
_atom_site_fract_x
_atom_site_fract_y
_atom_site_fract_z
_atom_site_occupancy
_atom_site_attached_hydrogens
_atom_site_U_iso_or_equiv
Zr1 Zr4+ 4 e 0 0.04741(1) 0.25 1 0 0.01031(4) 
K1 K1+ 8 f 0.01844(5) 0.34287(3) 0.00238(5) 1 0 0.02044(6) 
F1 F1- 8 f 0.2895(1) -0.0140(1) 0.2191(2) 1 0 0.0239(2) 
F2 F1- 8 f 0.1899(1) 0.1922(1) 0.2746(1) 1 0 0.0193(2) 
F3 F1- 8 f -0.0336(1) 0.0986(1) 0.5450(1) 1 0 0.0193(2) 

#End of data_250371-ICSD


