data_419400-ICSD
#?2014 by Fachinformationszentrum Karlsruhe, and the U.S. Secretary of 
#Commerce on behalf of the United States.  All rights reserved.
_database_code_ICSD                419400
_audit_creation_date               2009/02/01
_chemical_name_systematic          'Tripotassium Thiovanadate(V)'
_chemical_formula_structural       'K3 (V S O3)'
_chemical_formula_sum              'K3 O3 S1 V1'
_publ_section_title
;
Potassium-thio/oxo-vanadates(V) K3 [V S(x) O(4-x)] (x = 1 - 4) and 
Na3 [V S O3]: synthesis, structural chemistry, properties
;
loop_
_citation_id
_citation_journal_abbrev
_citation_year
_citation_journal_volume
_citation_journal_issue
_citation_page_first
_citation_page_last
_citation_journal_id_ASTM
primary 'Zeitschrift fuer Naturforschung, B: Chemical Sciences'
 2008 63 7 819 833 ZNBSEN
_publ_author_name                  'Schnabel, S.;Roehr, C.'
_cell_length_a                     6.590(3)
_cell_length_b                     5.895(3)
_cell_length_c                     8.793(3)
_cell_angle_alpha                  90.00
_cell_angle_beta                   102.12(3)
_cell_angle_gamma                  90.00
_cell_volume                       333.98
_cell_formula_units_Z              2
_symmetry_space_group_name_H-M     'P 1 21/m 1'
_symmetry_Int_Tables_number        11
_refine_ls_R_factor_all            .0907
loop_
_symmetry_equiv_pos_site_id
_symmetry_equiv_pos_as_xyz
  1	'x, -y+.5, z'
  2	'-x, -y, -z'
  3	'-x, y+.5, -z'
  4	'x, y, z'
loop_
_atom_type_symbol
_atom_type_oxidation_number
K1+	1
O2-	-2
S2-	-2
V5+	5
loop_
_atom_site_label
_atom_site_type_symbol
_atom_site_symmetry_multiplicity
_atom_site_Wyckoff_symbol
_atom_site_fract_x
_atom_site_fract_y
_atom_site_fract_z
_atom_site_occupancy
_atom_site_attached_hydrogens
_atom_site_U_iso_or_equiv
K1 K1+ 2 e 0.2153(5) 0.2500 0.7216(4) 1 0 0.0249(7) 
K2 K1+ 2 e 0.6895(5) 0.2500 0.5314(4) 1 0 0.0275(8) 
K3 K1+ 2 e 0.7476(5) 0.2500 0.0064(4) 1 0 0.0333(9) 
V1 V5+ 2 e 0.3076(3) 0.2500 0.2087(3) 1 0 0.0176(6) 
S1 S2- 2 e 0.0590(5) 0.2500 0.3481(4) 1 0 0.0260(9) 
O1 O2- 2 e 0.1972(16) 0.2500 0.0157(12) 1 0 0.033(2) 
O2 O2- 4 f 0.4549(11) 0.0171(13) 0.2562(9) 1 0 0.0316(17) 

loop_
_atom_site_aniso_label
_atom_site_aniso_type_symbol
_atom_site_aniso_U_11
_atom_site_aniso_U_22
_atom_site_aniso_U_33
_atom_site_aniso_U_12
_atom_site_aniso_U_13
_atom_site_aniso_U_23
K1 K1+ 0.0205(14) 0.0314(16) 0.0236(15) 0.000 0.0067(11) 0.000
K2 K1+ 0.0290(16) 0.0300(17) 0.0237(16) 0.000 0.0062(13) 0.000
K3 K1+ 0.0386(19) 0.0301(18) 0.0278(17) 0.000 -0.0006(14) 0.000
V1 V5+ 0.0182(11) 0.0187(11) 0.0171(11) 0.000 0.0066(8) 0.000
S1 S2- 0.0224(17) 0.034(2) 0.0241(18) 0.000 0.0115(13) 0.000
#End of data_419400-ICSD


