data_202901-ICSD
#?2014 by Fachinformationszentrum Karlsruhe, and the U.S. Secretary of 
#Commerce on behalf of the United States.  All rights reserved.
_database_code_ICSD                202901
_audit_creation_date               1990/06/08
_audit_update_record               1991/04/20
_chemical_name_systematic
;
Potassium Molybdenum(III) Diphosphate
;
_chemical_formula_structural       'K Mo (P2 O7)'
_chemical_formula_sum              'K1 Mo1 O7 P2'
_publ_section_title
;
Two Molybdenum Diphosphates with a Tunnel Structure Involving 
Mo(III): K Mo P2 O7 and K.17 Mo P2 O7
;
loop_
_citation_id
_citation_journal_abbrev
_citation_year
_citation_journal_volume
_citation_page_first
_citation_page_last
_citation_journal_id_ASTM
primary 'Journal of Solid State Chemistry' 1989 78 220 226 JSSCBI
_publ_author_name
;
Leclaire, A.;Borel, M.M.;Grandin, A.;Raveau, B.
;
_cell_length_a                     7.3758(7)
_cell_length_b                     10.348(1)
_cell_length_c                     8.351(2)
_cell_angle_alpha                  90.
_cell_angle_beta                   106.88(1)
_cell_angle_gamma                  90.
_cell_volume                       609.93
_cell_formula_units_Z              4
_symmetry_space_group_name_H-M     'P 1 21/c 1'
_symmetry_Int_Tables_number        14
_refine_ls_R_factor_all            .081
loop_
_symmetry_equiv_pos_site_id
_symmetry_equiv_pos_as_xyz
  1	'x, -y+.5, z+.5'
  2	'-x, -y, -z'
  3	'-x, y+.5, -z+.5'
  4	'x, y, z'
loop_
_atom_type_symbol
_atom_type_oxidation_number
K1+	1
Mo3+	3
O2-	-2
P5+	5
loop_
_atom_site_label
_atom_site_type_symbol
_atom_site_symmetry_multiplicity
_atom_site_Wyckoff_symbol
_atom_site_fract_x
_atom_site_fract_y
_atom_site_fract_z
_atom_site_occupancy
_atom_site_attached_hydrogens
Mo1 Mo3+ 4 e 0.23374(4) 0.60021(2) 0.76012(3) 1. 0 
K1 K1+ 4 e 0.1774(1) 0.3234(1) 0.0570(1) 1. 0 
P1 P5+ 4 e 0.4447(1) 0.63969(8) 0.1942(1) 1. 0 
P2 P5+ 4 e 0.1329(1) 0.90101(8) 0.8261(1) 1. 0 
O1 O2- 4 e 0.3442(3) 0.5701(3) 0.3192(3) 1. 0 
O2 O2- 4 e 0.0758(3) 0.7314(2) 0.2471(3) 1. 0 
O3 O2- 4 e 0.6420(4) 0.5838(2) 0.2362(4) 1. 0 
O4 O2- 4 e 0.1345(4) 0.5946(3) 0.5046(3) 1. 0 
O5 O2- 4 e 0.3214(4) 0.6076(3) 0.0217(3) 1. 0 
O6 O2- 4 e 0.0087(4) 0.4967(3) 0.2177(3) 1. 0 
O7 O2- 4 e 0.4594(3) 0.7824(2) 0.2386(3) 1. 0 

#End of data_202901-ICSD


