data_40312-ICSD
#?2014 by Fachinformationszentrum Karlsruhe, and the U.S. Secretary of 
#Commerce on behalf of the United States.  All rights reserved.
_database_code_ICSD                40312
_audit_creation_date               2001/07/16
_audit_update_record               2009/02/01
_chemical_name_systematic          'Strontium Zinc Divanadate'
_chemical_formula_structural       'Sr Zn (V2 O7)'
_chemical_formula_sum              'O7 Sr1 V2 Zn1'
_publ_section_title
;
Crystal structure of the double pyrovanadate Sr Zn V2 O7
;
loop_
_citation_id
_citation_journal_abbrev
_citation_year
_citation_journal_volume
_citation_page_first
_citation_page_last
_citation_journal_id_ASTM
primary Kristallografiya 1989 34 607 610 KRISAJ
2 'Soviet Physics, Crystallography (= Kristallografiya)'
 1989 34 361 363 SPHCA6
_publ_author_name
;
Velikodnyi, Yu.A.;Myrashova, E.V.;Trunov, V.K.
;
_cell_length_a                     7.425(2)
_cell_length_b                     6.697(2)
_cell_length_c                     11.977(5)
_cell_angle_alpha                  90.
_cell_angle_beta                   95.98(5)
_cell_angle_gamma                  90.
_cell_volume                       592.32
_cell_formula_units_Z              4
_symmetry_space_group_name_H-M     'P 1 21/n 1'
_symmetry_Int_Tables_number        14
_refine_ls_R_factor_all            .026
loop_
_symmetry_equiv_pos_site_id
_symmetry_equiv_pos_as_xyz
  1	'-x+.5, y+.5, -z+.5'
  2	'-x, -y, -z'
  3	'x+.5, -y+.5, z+.5'
  4	'x, y, z'
loop_
_atom_type_symbol
_atom_type_oxidation_number
O2-	-2
Sr2+	2
V5+	5
Zn2+	2
loop_
_atom_site_label
_atom_site_type_symbol
_atom_site_symmetry_multiplicity
_atom_site_Wyckoff_symbol
_atom_site_fract_x
_atom_site_fract_y
_atom_site_fract_z
_atom_site_occupancy
_atom_site_attached_hydrogens
_atom_site_B_iso_or_equiv
Sr1 Sr2+ 4 e 0.25198(7) 0.15245(8) 0.47850(4) 1. 0 0.58(1) 
Zn1 Zn2+ 4 e 0.02549(9) 0.3912(1) 0.23322(5) 1. 0 0.70(1) 
V1 V5+ 4 e 0.4160(1) 0.5880(2) 0.72077(7) 1. 0 0.50(1) 
V2 V5+ 4 e 0.2443(1) 0.6562(2) 0.46312(7) 1. 0 0.48(1) 
O1 O2- 4 e 0.5580(5) 0.4162(7) 0.7834(3) 1. 0 0.81(6) 
O2 O2- 4 e 0.5267(6) 0.7999(7) 0.6933(4) 1. 0 1.14(8) 
O3 O2- 4 e 0.2432(5) 0.6322(7) 0.7998(3) 1. 0 1.00(7) 
O4 O2- 4 e 0.3302(6) 0.5043(7) 0.5805(4) 1. 0 0.95(7) 
O5 O2- 4 e 0.0808(6) 0.8014(7) 0.4971(4) 1. 0 1.08(8) 
O6 O2- 4 e 0.1677(6) 0.4765(7) 0.3722(4) 1. 0 0.97(7) 
O7 O2- 4 e 0.4034(5) 0.8242(7) 0.4212(3) 1. 0 0.74(6) 

#End of data_40312-ICSD


