data_280042-ICSD
#?2014 by Fachinformationszentrum Karlsruhe, and the U.S. Secretary of 
#Commerce on behalf of the United States.  All rights reserved.
_database_code_ICSD                280042
_audit_creation_date               2000/07/15
_chemical_name_systematic          'Barium Calcium Tetragallium Oxide'
_chemical_formula_structural       'Ba Ca Ga4 O8'
_chemical_formula_sum              'Ba1 Ca1 Ga4 O8'
_publ_section_title
;
A powder diffraction study of Ba Ca Ga4 O8
;
loop_
_citation_id
_citation_journal_abbrev
_citation_year
_citation_journal_volume
_citation_page_first
_citation_page_last
_citation_journal_id_ASTM
primary 'Acta Crystallographica, Section C: Crystal Structure Communications'
 1999 55 14 17 ACSCEE
_publ_author_name
;
Kubota, S.I.;Yamane, H.;Shimada, M.
;
_cell_length_a                     8.2535(1)
_cell_length_b                     9.2084(1)
_cell_length_c                     5.1610(1)
_cell_angle_alpha                  90.
_cell_angle_beta                   90.
_cell_angle_gamma                  90.
_cell_volume                       392.24
_cell_formula_units_Z              2
_symmetry_space_group_name_H-M     'I m m 2'
_symmetry_Int_Tables_number        44
_refine_ls_R_factor_all            .082
loop_
_symmetry_equiv_pos_site_id
_symmetry_equiv_pos_as_xyz
  1	'x, -y, z'
  2	'-x, y, z'
  3	'-x, -y, z'
  4	'x, y, z'
  5	'x+.5, -y+.5, z+.5'
  6	'-x+.5, y+.5, z+.5'
  7	'-x+.5, -y+.5, z+.5'
  8	'x+.5, y+.5, z+.5'
loop_
_atom_type_symbol
_atom_type_oxidation_number
Ba2+	2
Ca2+	2
Ga3+	3
O2-	-2
loop_
_atom_site_label
_atom_site_type_symbol
_atom_site_symmetry_multiplicity
_atom_site_Wyckoff_symbol
_atom_site_fract_x
_atom_site_fract_y
_atom_site_fract_z
_atom_site_occupancy
_atom_site_attached_hydrogens
_atom_site_B_iso_or_equiv
Ga1 Ga3+ 8 e 0.2916(2) 0.1672(2) 0.4612(4) 1. 0 0.46(4) 
Ca1 Ca2+ 2 b 0 0.5 0.4339(9) 1. 0 0.11(4) 
Ba1 Ba2+ 2 a 0 0 0 1. 0 0.75(4) 
O1 O2- 8 e 0.2939(8) 0.1694(8) 0.1052(14) 1. 0 1.26(18) 
O2 O2- 4 d 0 0.3296(12) 0.079(2) 1. 0 1.0(3) 
O3 O2- 4 c 0.1872(13) 0 0.581(2) 1. 0 1.6(3) 

#End of data_280042-ICSD


