data_418085-ICSD
#?2014 by Fachinformationszentrum Karlsruhe, and the U.S. Secretary of 
#Commerce on behalf of the United States.  All rights reserved.
_database_code_ICSD                418085
_audit_creation_date               2010/08/01
_chemical_name_systematic
;
Dirubidium Magnesium Bis(dihydrogendiphosphate(V)) Dihydrate
;
_chemical_formula_structural       'Rb2 Mg (H2 P2 O7)2 (H2 O)2'
_chemical_formula_sum              'H8 Mg1 O16 P4 Rb2'
_publ_section_title
;
Two new acidic diphosphates Rb2 M (H2 P2 O7)2 * 2(H2 O) (M= Zn and 
Mg): crystal structures and vibrational study
;
loop_
_citation_id
_citation_journal_abbrev
_citation_year
_citation_journal_volume
_citation_page_first
_citation_page_last
_citation_journal_id_ASTM
primary 'Journal of Alloys and Compounds' 2010 492 358 362 JALCEU
_publ_author_name
;
Essehli, R.;El Bali, B.;Lachkar, M.;Cruciani, G.
;
_cell_length_a                     6.9546(10)
_cell_length_b                     7.3752(10)
_cell_length_c                     7.8117(10)
_cell_angle_alpha                  81.986(10)
_cell_angle_beta                   70.275(10)
_cell_angle_gamma                  85.988(10)
_cell_volume                       373.37
_cell_formula_units_Z              1
_symmetry_space_group_name_H-M     'P -1'
_symmetry_Int_Tables_number        2
_refine_ls_R_factor_all            .0253
loop_
_symmetry_equiv_pos_site_id
_symmetry_equiv_pos_as_xyz
  1	'-x, -y, -z'
  2	'x, y, z'
loop_
_atom_type_symbol
_atom_type_oxidation_number
H1+	1
Mg2+	2
O2-	-2
P5+	5
Rb1+	1
loop_
_atom_site_label
_atom_site_type_symbol
_atom_site_symmetry_multiplicity
_atom_site_Wyckoff_symbol
_atom_site_fract_x
_atom_site_fract_y
_atom_site_fract_z
_atom_site_occupancy
_atom_site_attached_hydrogens
_atom_site_U_iso_or_equiv
Mg1 Mg2+ 1 c 0.0000 0.5000 0.0000 1 0 0.0157(3) 
P1 P5+ 2 i 0.26484(9) 0.19634(8) -0.25409(8) 1 0 0.01546(18) 
P2 P5+ 2 i -0.15033(10) 0.26251(8) -0.25582(8) 1 0 0.01606(18) 
O1 O2- 2 i 0.2485(3) 0.3425(3) -0.1355(3) 1 0 0.0235(4) 
O2 O2- 2 i 0.4546(3) 0.2163(3) -0.4307(3) 1 0 0.0256(4) 
H1 H1+ 2 i 0.561(4) 0.263(5) -0.414(5) 1 0 0.031 
O3 O2- 2 i 0.2493(3) 0.0040(3) -0.1583(3) 1 0 0.0274(4) 
O4 O2- 2 i 0.0897(3) 0.2253(3) -0.3492(2) 1 0 0.0226(4) 
O5 O2- 2 i -0.1833(3) 0.3838(2) -0.1093(2) 1 0 0.0196(4) 
O6 O2- 2 i -0.2263(3) 0.3370(3) -0.4101(3) 1 0 0.0235(4) 
O7 O2- 2 i -0.2452(3) 0.0724(3) -0.1693(3) 1 0 0.0259(4) 
H2 H1+ 2 i -0.235(6) 0.048(5) -0.056(2) 1 0 0.031 
O8 O2- 2 i 0.0650(4) 0.7073(3) -0.2223(3) 1 0 0.0284(5) 
H3 H1+ 2 i 0.108(5) 0.695(4) -0.3363(18) 1 0 0.034 
H4 H1+ 2 i 0.127(5) 0.800(3) -0.213(4) 1 0 0.034 
Rb1 Rb1+ 2 i -0.40252(4) 0.71769(3) -0.21364(4) 1 0 0.03114(15) 

loop_
_atom_site_aniso_label
_atom_site_aniso_type_symbol
_atom_site_aniso_U_11
_atom_site_aniso_U_22
_atom_site_aniso_U_33
_atom_site_aniso_U_12
_atom_site_aniso_U_13
_atom_site_aniso_U_23
Mg1 Mg2+ 0.0166(6) 0.0161(5) 0.0158(6) -0.0003(4) -0.0065(4) -0.0039(4)
P1 P5+ 0.0148(3) 0.0179(3) 0.0144(3) 0.0005(2) -0.0054(2) -0.0035(2)
P2 P5+ 0.0156(3) 0.0183(3) 0.0161(3) -0.0014(2) -0.0073(2) -0.0029(2)
O1 O2- 0.0223(10) 0.0269(10) 0.0247(10) 0.0034(8) -0.0097(8) -0.0123(8)
O2 O2- 0.0184(9) 0.0401(11) 0.0184(9) -0.0056(8) -0.0035(7) -0.0079(8)
O3 O2- 0.0365(11) 0.0201(9) 0.0284(10) -0.0036(8) -0.0151(9) 0.0007(8)
O4 O2- 0.0177(10) 0.0332(10) 0.0195(9) 0.0033(8) -0.0078(7) -0.0090(8)
O5 O2- 0.0192(9) 0.0203(8) 0.0217(9) 0.0009(7) -0.0079(7) -0.0080(7)
O6 O2- 0.0207(10) 0.0318(10) 0.0202(9) -0.0029(8) -0.0107(7) 0.0009(8)
O7 O2- 0.0356(11) 0.0212(9) 0.0246(10) -0.0097(8) -0.0138(8) -0.0008(8)
O8 O2- 0.0414(13) 0.0234(10) 0.0188(10) -0.0054(9) -0.0080(9) -0.0001(8)
Rb1 Rb1+ 0.0355(2) 0.0310(2) 0.0290(2) 0.00736(14) -0.01466(15) 
-0.00464(13)
#End of data_418085-ICSD


