data_16362-ICSD
#?2014 by Fachinformationszentrum Karlsruhe, and the U.S. Secretary of 
#Commerce on behalf of the United States.  All rights reserved.
_database_code_ICSD                16362
_audit_creation_date               1981/12/31
_chemical_name_systematic          'Calcium Hexaoxotellurate'
_chemical_formula_structural       'Ca3 Te O6'
_chemical_formula_sum              'Ca3 O6 Te1'
_publ_section_title
;
The Structure of Calcium Orthotellurate
;
loop_
_citation_id
_citation_journal_abbrev
_citation_year
_citation_journal_volume
_citation_page_first
_citation_page_last
_citation_journal_id_ASTM
primary 'Acta Crystallographica B (24,1968-38,1982)' 1981 37 220 222 ACBCAR
_publ_author_name                  'Hottentot, D.;Loopstra, B.O.'
_cell_length_a                     5.5730(6)
_cell_length_b                     5.7964(2)
_cell_length_c                     8.0113(3)
_cell_angle_alpha                  90.
_cell_angle_beta                   90.24(1)
_cell_angle_gamma                  90.
_cell_volume                       258.79
_cell_formula_units_Z              2
_symmetry_space_group_name_H-M     'P 1 21/n 1'
_symmetry_Int_Tables_number        14
_refine_ls_R_factor_all            .041
loop_
_symmetry_equiv_pos_site_id
_symmetry_equiv_pos_as_xyz
  1	'-x+.5, y+.5, -z+.5'
  2	'-x, -y, -z'
  3	'x+.5, -y+.5, z+.5'
  4	'x, y, z'
loop_
_atom_type_symbol
_atom_type_oxidation_number
Ca2+	2
O2-	-2
Te6+	6
loop_
_atom_site_label
_atom_site_type_symbol
_atom_site_symmetry_multiplicity
_atom_site_Wyckoff_symbol
_atom_site_fract_x
_atom_site_fract_y
_atom_site_fract_z
_atom_site_occupancy
_atom_site_attached_hydrogens
Te1 Te6+ 2 a 0 0 0 1. 0 
Ca1 Ca2+ 2 b 0 0 0.5 1. 0 
Ca2 Ca2+ 4 e 0.5145(3) -.0536(3) 0.2460(2) 1. 0 
O1 O2- 4 e 0.1111(9) 0.0540(11) 0.2239(7) 1. 0 
O2 O2- 4 e -.2807(9) 0.1774(10) 0.0482(7) 1. 0 
O3 O2- 4 e 0.1687(9) 0.2740(11) -.0674(7) 1. 0 

loop_
_atom_site_aniso_label
_atom_site_aniso_type_symbol
_atom_site_aniso_U_11
_atom_site_aniso_U_22
_atom_site_aniso_U_33
_atom_site_aniso_U_12
_atom_site_aniso_U_13
_atom_site_aniso_U_23
Te1 Te6+ 0.0050(2) 0.0058(3) 0.0037(3) 0.0001(2) -.0034(2) 0.0000(2)
Ca1 Ca2+ 0.0080(8) 0.0089(10) 0.0076(9) -.0008(6) -.0039(6) 0.0009(7)
Ca2 Ca2+ 0.0100(6) 0.0094(7) 0.0105(6) -.0007(5) -.0033(5) -.0005(5)
O1 O2- 0.010(2) 0.012(3) 0.007(2) 0.001(2) -.005(2) -.004(2)
O2 O2- 0.008(2) 0.010(3) 0.012(3) 0.003(2) -.001(2) 0.003(2)
O3 O2- 0.008(2) 0.015(3) 0.012(3) -.004(2) -.006(2) 0.004(2)
#End of data_16362-ICSD


