data_24192-ICSD
#?2014 by Fachinformationszentrum Karlsruhe, and the U.S. Secretary of 
#Commerce on behalf of the United States.  All rights reserved.
_database_code_ICSD                24192
_audit_creation_date               1980/01/01
_audit_update_record               2006/04/01
_chemical_name_systematic          'Trizinc Bis(phosphate(V)) - Beta'
_chemical_formula_structural       'Zn3 (P O4)2'
_chemical_formula_sum              'O8 P2 Zn3'
_publ_section_title
;
Crystal structure of beta-Zn3 (P O4)2
;
loop_
_citation_id
_citation_journal_abbrev
_citation_year
_citation_journal_volume
_citation_page_first
_citation_page_last
_citation_journal_id_ASTM
primary 'Canadian Journal of Chemistry' 1967 45 2303 2312 CJCHAG
2 'Golden Book of Phase Transitions, Wroclaw' 2002 1 1 123 GBOPT5
_publ_author_name                  'Stephens, J.S.;Calvo, C.'
_cell_length_a                     9.393(3)
_cell_length_b                     9.170(6)
_cell_length_c                     8.686(3)
_cell_angle_alpha                  90.
_cell_angle_beta                   125.73(10)
_cell_angle_gamma                  90.
_cell_volume                       607.34
_cell_formula_units_Z              4
_symmetry_space_group_name_H-M     'P 1 21/c 1'
_symmetry_Int_Tables_number        14
_refine_ls_R_factor_all            .045
loop_
_symmetry_equiv_pos_site_id
_symmetry_equiv_pos_as_xyz
  1	'x, -y+.5, z+.5'
  2	'-x, -y, -z'
  3	'-x, y+.5, -z+.5'
  4	'x, y, z'
loop_
_atom_type_symbol
_atom_type_oxidation_number
O2-	-2
P5+	5
Zn2+	2
loop_
_atom_site_label
_atom_site_type_symbol
_atom_site_symmetry_multiplicity
_atom_site_Wyckoff_symbol
_atom_site_fract_x
_atom_site_fract_y
_atom_site_fract_z
_atom_site_occupancy
_atom_site_attached_hydrogens
Zn1 Zn2+ 4 e 0.9843(1) 0.3898(1) 0.3550(1) 1. 0 
Zn2 Zn2+ 4 e 0.7065(1) 0.1115(1) 0.2636(1) 1. 0 
Zn3 Zn2+ 4 e 0.4187(1) 0.2325(1) 0.3868(1) 1. 0 
P1 P5+ 4 e 0.6439(2) 0.4412(3) 0.3365(3) 1. 0 
P2 P5+ 4 e 0.1416(2) 0.1143(3) 0.4624(3) 1. 0 
O1 O2- 4 e 0.8385(8) 0.4813(8) 0.4446(8) 1. 0 
O2 O2- 4 e 0.4699(7) 0.0729(8) 0.2686(8) 1. 0 
O3 O2- 4 e 0.6064(7) 0.3845(8) 0.4766(7) 1. 0 
O4 O2- 4 e 0.6086(7) 0.3163(7) 0.2000(8) 1. 0 
O5 O2- 4 e 0.2509(7) 0.3987(9) 0.1801(7) 1. 0 
O6 O2- 4 e 0.2239(8) 0.2219(9) 0.4041(9) 1. 0 
O7 O2- 4 e 0.8720(8) 0.4610(8) 0.1058(9) 1. 0 
O8 O2- 4 e 0.9573(7) 0.1808(8) 0.3790(8) 1. 0 

loop_
_atom_site_aniso_label
_atom_site_aniso_type_symbol
_atom_site_aniso_U_11
_atom_site_aniso_U_22
_atom_site_aniso_U_33
_atom_site_aniso_U_12
_atom_site_aniso_U_13
_atom_site_aniso_U_23
Zn1 Zn2+ 0.0175(4) 0.0108(8) 0.0103(4) -.0019(5) 0.0058(3) 0.0005(5)
Zn2 Zn2+ 0.0111(4) 0.0085(7) 0.0099(4) 0.0016(5) 0.0044(3) 0.0020(5)
Zn3 Zn2+ 0.0147(4) 0.0106(8) 0.0149(4) -.0040(5) 0.0108(3) -.0037(5)
P1 P5+ 0.0066(7) 0.0079(13) 0.0071(7) -.0006(8) 0.0040(6) -.0002(8)
P2 P5+ 0.0081(7) 0.0078(12) 0.0068(7) 0.0004(10) 0.0042(6) 0.0008(9)
O1 O2- 0.0128(24) 0.0177(42) 0.0141(25) -.0017(28) 0.0076(21) -.0027(28)
O2 O2- 0.0113(22) 0.0096(37) 0.0119(23) 0.0030(27) 0.0066(19) 0.0002(27)
O3 O2- 0.0119(21) 0.0091(38) 0.0097(21) -.0020(28) 0.0071(18) 0.0008(26)
O4 O2- 0.0107(21) 0.0023(32) 0.0099(21) 0.0019(24) 0.0043(18) 0.0014(25)
O5 O2- 0.0138(22) 0.0184(42) 0.0024(17) -.0009(28) 0.0016(17) 0.0002(27)
O6 O2- 0.0194(28) 0.0253(50) 0.0210(29) -.0035(31) 0.0145(25) 0.0048(32)
O7 O2- 0.0202(28) 0.0097(36) 0.0157(26) 0.0041(30) 0.0102(24) 0.0040(28)
O8 O2- 0.0118(23) 0.0105(39) 0.0130(24) 0.0026(26) 0.0068(21) 0.0038(27)
#End of data_24192-ICSD


