data_62828-ICSD
#?2014 by Fachinformationszentrum Karlsruhe, and the U.S. Secretary of 
#Commerce on behalf of the United States.  All rights reserved.
_database_code_ICSD                62828
_audit_creation_date               1988/07/15
_audit_update_record               2012/08/01
_chemical_name_systematic
;
Potassium Molybdenum Oxide (0.3/1/3) - Prepared At T = 565 C
;
_chemical_formula_structural       'K0.3 Mo O3'
_chemical_formula_sum              'K0.3 Mo1 O3'
_publ_section_title
;
Crystal structure, dimensionality, and 4d electron distribution in 
K0.3 Mo O3 and Rb0.3 Mo O3.
;
loop_
_citation_id
_citation_journal_abbrev
_citation_year
_citation_journal_volume
_citation_page_first
_citation_page_last
_citation_journal_id_ASTM
primary 'Journal of Solid State Chemistry' 1985 57 300 313 JSSCBI
_publ_author_name
;
Ghedira, M.;Chenavas, J.;Marezio, M.;Marcus, J.
;
_cell_length_a                     16.2311(7)
_cell_length_b                     7.5502(4)
_cell_length_c                     9.8614(4)
_cell_angle_alpha                  90.
_cell_angle_beta                   94.895(4)
_cell_angle_gamma                  90.
_cell_volume                       1204.09
_cell_formula_units_Z              20
_symmetry_space_group_name_H-M     'I 1 2/m 1'
_symmetry_Int_Tables_number        12
_refine_ls_R_factor_all            .037
loop_
_symmetry_equiv_pos_site_id
_symmetry_equiv_pos_as_xyz
  1	'x, -y, z'
  2	'-x, -y, -z'
  3	'-x, y, -z'
  4	'x, y, z'
  5	'x+.5, -y+.5, z+.5'
  6	'-x+.5, -y+.5, -z+.5'
  7	'-x+.5, y+.5, -z+.5'
  8	'x+.5, y+.5, z+.5'
loop_
_atom_type_symbol
_atom_type_oxidation_number
K1+	1
Mo5.7+	5.7
O2-	-2
loop_
_atom_site_label
_atom_site_type_symbol
_atom_site_symmetry_multiplicity
_atom_site_Wyckoff_symbol
_atom_site_fract_x
_atom_site_fract_y
_atom_site_fract_z
_atom_site_occupancy
_atom_site_attached_hydrogens
K1 K1+ 2 c 0 0.5 0.5 1. 0 
K2 K1+ 4 i 0.81198(7) 0 0.5314(1) 1. 0 
Mo1 Mo5.7+ 4 i 0.22593(2) 0 0.05216(3) 1. 0 
Mo2 Mo5.7+ 8 j 0.42052(2) 0.24475(3) 0.37779(2) 1. 0 
Mo3 Mo5.7+ 8 j 0.13856(1) 0.24993(3) 0.79216(2) 1. 0 
O1 O2- 4 f 0.25 0.25 0.75 1. 0 
O2 O2- 4 i 0.2497(2) 0 0.2225(3) 1. 0 
O3 O2- 4 i 0.3182(2) 0 0.9830(3) 1. 0 
O4 O2- 4 i 0.4199(2) 0 0.4087(3) 1. 0 
O5 O2- 4 i 0.9118(2) 0 0.9046(3) 1. 0 
O6 O2- 4 i 0.1554(2) 0 0.8425(3) 1. 0 
O7 O2- 4 i 0.6411(2) 0 0.3102(3) 1. 0 
O8 O2- 8 j 0.3988(2) 0.2448(3) 0.2085(2) 1. 0 
O9 O2- 8 j 0.1854(1) 0.2432(3) 0.0241(2) 1. 0 
O10 O2- 8 j 0.0884(2) 0.2192(3) 0.6376(2) 1. 0 
O11 O2- 8 j 0.0377(1) 0.2463(3) 0.8916(2) 1. 0 

loop_
_atom_site_aniso_label
_atom_site_aniso_type_symbol
_atom_site_aniso_U_11
_atom_site_aniso_U_22
_atom_site_aniso_U_33
_atom_site_aniso_U_12
_atom_site_aniso_U_13
_atom_site_aniso_U_23
K1 K1+ 0.0357(10) 0.0262(9) 0.0492(12) 0 -.0207(9) 0
K2 K1+ 0.0254(5) 0.0217(5) 0.0207(5) 0 0.0072(4) 0
Mo1 Mo5.7+ 0.0072(1) 0.0078(1) 0.0101(2) 0 0.0017(1) 0
Mo2 Mo5.7+ 0.0078(1) 0.0071(1) 0.0081(1) 0.0001(1) 0.0024(1) -.0003(1)
Mo3 Mo5.7+ 0.0089(1) 0.0071(1) 0.0083(1) 0.0003(1) 0.0034(1) 0.0005(1)
O1 O2- 0.011(1) 0.013(1) 0.022(2) 0.001(1) 0.008(1) 0.005(1)
O2 O2- 0.017(1) 0.022(2) 0.014(1) 0 0.003(1) 0
O3 O2- 0.011(1) 0.019(1) 0.016(1) 0 0.007(1) 0
O4 O2- 0.014(1) 0.008(1) 0.016(1) 0 0.002(1) 0
O5 O2- 0.008(1) 0.009(1) 0.017(1) 0 0.002(1) 0
O6 O2- 0.011(1) 0.007(1) 0.012(1) 0 0.000(1) 0
O7 O2- 0.017(1) 0.009(1) 0.018(1) 0 0.009(1) 0
O8 O2- 0.019(1) 0.019(1) 0.013(1) -.002(1) -.001(1) -.001(1)
O9 O2- 0.008(1) 0.009(1) 0.012(1) 0.000(1) 0.003(1) -.001(1)
O10 O2- 0.019(1) 0.018(1) 0.012(1) -.002(1) 0.000(1) 0.001(1)
O11 O2- 0.009(1) 0.013(1) 0.009(1) 0.001(1) 0.003(1) 0.001(1)
#End of data_62828-ICSD


