data_164920-ICSD
#?2014 by Fachinformationszentrum Karlsruhe, and the U.S. Secretary of 
#Commerce on behalf of the United States.  All rights reserved.
_database_code_ICSD                164920
_audit_creation_date               2010/02/01
_chemical_name_systematic          'Samarium Aluminate - Under Stress'
_chemical_formula_structural       'Sm (Al O3)'
_chemical_formula_sum              'Al1 O3 Sm1'
_publ_section_title
;
Ferroelastic transformation in samarium orthoaluminate
;
loop_
_citation_id
_citation_journal_abbrev
_citation_year
_citation_journal_volume
_citation_page_first
_citation_page_last
_citation_journal_id_ASTM
primary 'Materials Research Bulletin' 1974 9 1613 1616 MRBUAC
_publ_author_name
;
Abrahams, S.C.;Bernstein, J.L.;Remeika, J.P.
;
_cell_length_a                     5.290479(24)
_cell_length_b                     5.291075(24)
_cell_length_c                     7.474200(51)
_cell_angle_alpha                  90.
_cell_angle_beta                   90.
_cell_angle_gamma                  90.
_cell_volume                       209.22
_cell_formula_units_Z              4
_symmetry_space_group_name_H-M     'P n a m'
_symmetry_Int_Tables_number        62
loop_
_symmetry_equiv_pos_site_id
_symmetry_equiv_pos_as_xyz
  1	'x+.5, -y+.5, z'
  2	'x, y, -z+.5'
  3	'-x+.5, y+.5, z+.5'
  4	'-x, -y, -z'
  5	'-x+.5, y+.5, -z'
  6	'-x, -y, z+.5'
  7	'x+.5, -y+.5, -z+.5'
  8	'x, y, z'
loop_
_atom_type_symbol
_atom_type_oxidation_number
Al3+	3
O2-	-2
Sm3+	3
loop_
_atom_site_label
_atom_site_type_symbol
_atom_site_symmetry_multiplicity
_atom_site_Wyckoff_symbol
_atom_site_fract_x
_atom_site_fract_y
_atom_site_fract_z
_atom_site_occupancy
_atom_site_attached_hydrogens
Sm1 Sm3+ 4 c 0.49499 0.47598 0.750 1. 0 
Al1 Al3+ 4 b 0 0.5 0 1. 0 
O1 O2- 4 c -0.0644 0.5097 0.750 1. 0 
O2 O2- 8 d 0.2766 0.7230 0.5335 1. 0 

#End of data_164920-ICSD


