data_97746-ICSD
#?2014 by Fachinformationszentrum Karlsruhe, and the U.S. Secretary of 
#Commerce on behalf of the United States.  All rights reserved.
_database_code_ICSD                97746
_audit_creation_date               2004/10/01
_chemical_name_systematic          'Dicalcium Mangano(II)tungstate'
_chemical_formula_structural       'Ca2 (Mn W O6)'
_chemical_formula_sum              'Ca2 Mn1 O6 W1'
_publ_section_title
;
Crystal and magnetic structure of the complex oxides Sr2 Mn Mo O6, 
Sr2 Mn W O6 and Ca2 Mn W O6: a neutron diffraction study
;
loop_
_citation_id
_citation_journal_abbrev
_citation_year
_citation_journal_volume
_citation_page_first
_citation_page_last
_citation_journal_id_ASTM
primary 'Journal of Physics: Condensed Matter' 2002 14 8817 8830 JCOMEL
_publ_author_name
;
Munoz, A.;Alonso, J.A.;Casais, M.T.;Martinez Lope, M.J.;Fernandez 
Diaz, M.T.
;
_cell_length_a                     5.4694(2)
_cell_length_b                     5.6504(2)
_cell_length_c                     7.8122(3)
_cell_angle_alpha                  90
_cell_angle_beta                   90.179(3)
_cell_angle_gamma                  90
_cell_volume                       241.43
_cell_formula_units_Z              2
_symmetry_space_group_name_H-M     'P 1 21/n 1'
_symmetry_Int_Tables_number        14
_refine_ls_R_factor_all            .04
loop_
_symmetry_equiv_pos_site_id
_symmetry_equiv_pos_as_xyz
  1	'-x+.5, y+.5, -z+.5'
  2	'-x, -y, -z'
  3	'x+.5, -y+.5, z+.5'
  4	'x, y, z'
loop_
_atom_type_symbol
_atom_type_oxidation_number
Ca2+	2
Mn2+	2
O2-	-2
W6+	6
loop_
_atom_site_label
_atom_site_type_symbol
_atom_site_symmetry_multiplicity
_atom_site_Wyckoff_symbol
_atom_site_fract_x
_atom_site_fract_y
_atom_site_fract_z
_atom_site_occupancy
_atom_site_attached_hydrogens
_atom_site_B_iso_or_equiv
Ca1 Ca2+ 4 e 0.9877(7) 0.0535(6) 0.2542(5) 1. 0 0.77(5) 
Mn1 Mn2+ 2 d 0.5 0 0 1. 0 0.29(8) 
W1 W6+ 2 c 0.5 0 0.5 1. 0 0.08(6) 
O1 O2- 4 e 0.0969(5) 0.4651(5) 0.2354(4) 1. 0 0.67(5) 
O2 O2- 4 e 0.7141(5) 0.3136(5) 0.0453(4) 1. 0 0.62(5) 
O3 O2- 4 e 0.1820(5) 0.2185(5) 0.9445(4) 1. 0 0.43(5) 

#End of data_97746-ICSD


