data_49695-ICSD
#?2014 by Fachinformationszentrum Karlsruhe, and the U.S. Secretary of 
#Commerce on behalf of the United States.  All rights reserved.
_database_code_ICSD                49695
_audit_creation_date               1986/08/04
_audit_update_record               2002/04/01
_chemical_name_systematic
;
Dicalcium Potassium Heptahydrogen Tetrakis(phosphate(V)) Dihydrate
;
_chemical_formula_structural       '(Ca2 K H7 (P O4)4) (H2 O)2'
_chemical_formula_sum              'H11 Ca2 K1 O18 P4'
_publ_section_title
;
The structure of dicalcium potassium heptahydrogen 
tetrakis(phosphate) dihydrate, Ca2 K H7 (P O4)4 (H2 O)2, by x-ray and 
neutron diffraction
;
loop_
_citation_id
_citation_journal_abbrev
_citation_year
_citation_journal_volume
_citation_page_first
_citation_page_last
_citation_journal_id_ASTM
primary 'Acta Crystallographica, Section C: Crystal Structure Communications'
 1984 40 1499 1502 ACSCEE
2 'Acta Crystallographica, Section B: Structural Science'
 1986 42 95 111 ASBSDK
_publ_author_name
;
Prince, E.;Takagi, S.;Mathew, M.;Brown, W.E.
;
_cell_length_a                     5.676(1)
_cell_length_b                     12.210(2)
_cell_length_c                     6.292(1)
_cell_angle_alpha                  104.1
_cell_angle_beta                   115.16
_cell_angle_gamma                  84.25
_cell_volume                       382.79
_cell_formula_units_Z              1
_symmetry_space_group_name_H-M     'P 1'
_symmetry_Int_Tables_number        1
_refine_ls_R_factor_all            .051
loop_
_symmetry_equiv_pos_site_id
_symmetry_equiv_pos_as_xyz
  1	'x, y, z'
loop_
_atom_type_symbol
_atom_type_oxidation_number
Ca2+	2
H1+	1
K1+	1
O2-	-2
P5+	5
loop_
_atom_site_label
_atom_site_type_symbol
_atom_site_symmetry_multiplicity
_atom_site_Wyckoff_symbol
_atom_site_fract_x
_atom_site_fract_y
_atom_site_fract_z
_atom_site_occupancy
_atom_site_attached_hydrogens
Ca1 Ca2+ 1 a -.0032 0.0991 0.3005 1. 0 
Ca2 Ca2+ 1 a -.0019 -.098 -.2961 1. 0 
K1 K1+ 1 a 0.4948 0.5377 -.0154 1. 0 
P1 P5+ 1 a 0.1372 0.6348 0.3768 1. 0 
P2 P5+ 1 a -.1664 0.3606 -.3812 1. 0 
P3 P5+ 1 a 0.4926 -.00954 0.2103 1. 0 
P4 P5+ 1 a -.5014 0.099 -.2124 1. 0 
O1 O2- 1 a 0.0944 0.5954 0.1071 1. 0 
O2 O2- 1 a -.1148 0.4055 -.1127 1. 0 
O3 O2- 1 a 0.146 0.7671 0.4505 1. 0 
O4 O2- 1 a -.1335 0.2372 -.4209 1. 0 
O5 O2- 1 a 0.4149 0.5951 0.5394 1. 0 
O6 O2- 1 a -.4285 0.3986 0.4605 1. 0 
O7 O2- 1 a -.0652 0.5852 0.4108 1. 0 
O8 O2- 1 a 0.0576 0.4146 -.4159 1. 0 
O9 O2- 1 a 0.2406 -.0388 0.1432 1. 0 
O10 O2- 1 a -.2483 0.0317 -.1418 1. 0 
O11 O2- 1 a 0.7443 -.0314 0.3215 1. 0 
O12 O2- 1 a 0.2516 0.0325 -.3178 1. 0 
O13 O2- 1 a 0.5312 -.1668 0.3913 1. 0 
O14 O2- 1 a 0.4682 0.1705 -.4055 1. 0 
O15 O2- 1 a 0.4623 -.1836 -.0305 1. 0 
O16 O2- 1 a -.4666 0.18831 0.0342 1. 0 
O17 O2- 1 a 0.1428 0.2463 0.1761 1. 0 
O18 O2- 1 a -.1437 -.2507 -.1728 1. 0 
H1 H1+ 1 a 0.3664 -.1881 0.4052 1. 0 
H2 H1+ 1 a -.3655 0.1913 -.4177 1. 0 
H3 H1+ 1 a 0.6253 -.1973 -.0642 1. 0 
H4 H1+ 1 a 0.3851 0.2058 0.0737 1. 0 
H5 H1+ 1 a 0.0254 0.2966 0.0633 1. 0 
H6 H1+ 1 a -.0392 -.2909 -.0626 1. 0 
H7 H1+ 1 a 0.238 0.3048 0.3143 1. 0 
H8 H1+ 1 a -.2624 -.2992 -.3151 1. 0 
H9 H1+ 1 a -.0335 0.4928 -.0145 1. 0 
H10 H1+ 1 a 0.4686 0.5106 0.5093 1. 0 
H11 H1+ 1 a 0.0025 0.5037 0.5089 1. 0 

loop_
_atom_site_aniso_label
_atom_site_aniso_type_symbol
_atom_site_aniso_U_11
_atom_site_aniso_U_22
_atom_site_aniso_U_33
_atom_site_aniso_U_12
_atom_site_aniso_U_13
_atom_site_aniso_U_23
Ca1 Ca2+ 0.00758 0.01387 0.0102 0.00001 0.00231 0.00444
Ca2 Ca2+ 0.00758 0.01387 0.0102 0.00001 0.00231 0.00444
K1 K1+ 0.01737 0.1116 0.02785 0.01175 0.00848 0.01189
P1 P5+ 0.01356 0.01011 0.01667 -0.00296 0.00426 0.00272
P2 P5+ 0.01356 0.01011 0.01667 -0.00296 0.00426 0.00272
P3 P5+ 0.00674 0.01155 0.0075 0.00008 0.00101 0.00175
P4 P5+ 0.00674 0.01155 0.0075 0.00008 0.00101 0.00175
O1 O2- 0.03552 0.02191 0.01508 -0.00437 0.01141 -0.00101
O2 O2- 0.03552 0.02191 0.01508 -0.00437 0.01141 -0.00101
O3 O2- 0.01452 0.01079 0.01202 0.0006 0.0049 0.00168
O4 O2- 0.01452 0.01079 0.01202 0.0006 0.0049 0.00168
O5 O2- 0.01812 0.01538 0.03665 0.00173 -0.00052 0.0043
O6 O2- 0.01812 0.01538 0.03665 0.00173 -0.00052 0.0043
O7 O2- 0.02317 0.02536 0.03773 -0.00062 0.01556 0.01483
O8 O2- 0.02317 0.02536 0.03773 -0.00062 0.01556 0.01483
O9 O2- 0.00665 0.01988 0.01219 0.00407 -0.00001 0.00477
O10 O2- 0.00665 0.01988 0.01219 0.00407 -0.00001 0.00477
O11 O2- 0.0077 0.01915 0.01522 -0.00404 0.00126 0.00625
O12 O2- 0.0077 0.01915 0.01522 -0.00404 0.00126 0.00625
O13 O2- 0.0109 0.02228 0.01556 -0.00046 0.0036 0.01291
O14 O2- 0.0109 0.02228 0.01556 -0.00046 0.0036 0.01291
O15 O2- 0.01423 0.03025 0.0155 -0.00143 0.00499 -0.00586
O16 O2- 0.01423 0.03025 0.0155 -0.00143 0.00499 -0.00586
O17 O2- 0.02005 0.01737 0.01721 -0.00214 0.00581 0.00552
O18 O2- 0.02005 0.01737 0.01721 -0.00214 0.00581 0.00552
H1 H1+ 0.02273 0.0305 0.02363 -0.00161 0.00725 0.00864
H2 H1+ 0.02273 0.0305 0.02363 -0.00161 0.00725 0.00864
H3 H1+ 0.02567 0.03617 0.03593 0.00068 0.01694 0.00059
H4 H1+ 0.02567 0.03617 0.03593 0.00068 0.01694 0.00059
H5 H1+ 0.03216 0.04325 0.03635 0.00457 0.00906 0.01618
H6 H1+ 0.03216 0.04325 0.03635 0.00457 0.00906 0.01618
H7 H1+ 0.06449 0.03138 0.03188 -0.01046 0.00071 -0.00154
H8 H1+ 0.06449 0.03138 0.03188 -0.01046 0.00071 -0.00154
H9 H1+ 0.01285 0.08437 0.04127 0.0046 0.00852 0.03368
H10 H1+ 0.0217 0.06088 0.03548 -0.00742 0.00993 0.00489
H11 H1+ 0.03346 0.07069 0.03135 -0.00855 0.01264 -0.00975
#End of data_49695-ICSD


