data_163665-ICSD
#?2014 by Fachinformationszentrum Karlsruhe, and the U.S. Secretary of 
#Commerce on behalf of the United States.  All rights reserved.
_database_code_ICSD                163665
_audit_creation_date               2009/08/01
_audit_update_record               2011/02/01
_chemical_name_systematic
;
Barium Potassium Yttrium Disilicate
;
_chemical_formula_structural       'Ba K Y (Si2 O7)'
_chemical_formula_sum              'Ba1 K1 O7 Si2 Y1'
_publ_section_title
;
Crystal chemistry and topology of two flux-grown yttrium silicates, 
Ba K Y Si2 O7 and Cs3 Y Si8 O19
;
loop_
_citation_id
_citation_journal_abbrev
_citation_year
_citation_journal_volume
_citation_page_first
_citation_page_last
_citation_journal_id_ASTM
primary 'Canadian Mineralogist' 2009 47 421 431 CAMIA6
_publ_author_name
;
Kolitsch, U.;Wierzbicka Wieczorek, M.;Tillmanns, E.
;
_cell_length_a                     9.775(2)
_cell_length_b                     5.718(1)
_cell_length_c                     13.096(3)
_cell_angle_alpha                  90.
_cell_angle_beta                   104.61(3)
_cell_angle_gamma                  90.
_cell_volume                       708.31
_cell_formula_units_Z              4
_symmetry_space_group_name_H-M     'P 1 21/n 1'
_symmetry_Int_Tables_number        14
_refine_ls_R_factor_all            .0204
loop_
_symmetry_equiv_pos_site_id
_symmetry_equiv_pos_as_xyz
  1	'-x+.5, y+.5, -z+.5'
  2	'-x, -y, -z'
  3	'x+.5, -y+.5, z+.5'
  4	'x, y, z'
loop_
_atom_type_symbol
_atom_type_oxidation_number
Ba2+	2
K1+	1
O2-	-2
Si4+	4
Y3+	3
loop_
_atom_site_label
_atom_site_type_symbol
_atom_site_symmetry_multiplicity
_atom_site_Wyckoff_symbol
_atom_site_fract_x
_atom_site_fract_y
_atom_site_fract_z
_atom_site_occupancy
_atom_site_attached_hydrogens
_atom_site_U_iso_or_equiv
Ba1 Ba2+ 4 e 0.636758(13) 0.76922(2) 0.172119(10) 1. 0 0.00926(4) 
K1 K1+ 4 e 0.13201(5) 0.26406(8) 0.13885(5) 1. 0 0.01916(10) 
Y1 Y3+ 4 e 0.760689(19) 0.24063(3) 0.021620(14) 1. 0 0.0554(4) 
Si1 Si4+ 4 e 0.44792(6) 0.27157(9) 0.12132(4) 1. 0 0.00521(9) 
Si2 Si4+ 4 e 0.97508(6) 0.75487(9) 0.14618(4) 1. 0 0.00563(9) 
O1 O2- 4 e 0.36322(16) 0.0804(3) 0.03933(12) 1. 0 0.0126(3) 
O2 O2- 4 e 0.39106(16) 0.5349(3) 0.09229(12) 1. 0 0.0126(3) 
O3 O2- 4 e 0.61843(15) 0.2582(2) 0.13816(12) 1. 0 0.0088(3) 
O4 O2- 4 e 0.41496(15) 0.2031(3) 0.23643(11) 1. 0 0.0108(3) 
O5 O2- 4 e 0.07325(17) 0.7608(3) 0.06444(12) 1. 0 0.0123(3) 
O6 O2- 4 e 0.86372(16) 0.5381(3) 0.12693(12) 1. 0 0.0110(3) 
O7 O2- 4 e 0.89240(15) 0.0007(2) 0.15120(11) 1. 0 0.0091(3) 

loop_
_atom_site_aniso_label
_atom_site_aniso_type_symbol
_atom_site_aniso_U_11
_atom_site_aniso_U_22
_atom_site_aniso_U_33
_atom_site_aniso_U_12
_atom_site_aniso_U_13
_atom_site_aniso_U_23
Ba1 Ba2+ 0.00893(6) 0.00803(6) 0.01092(6) -0.00069(4) 0.00267(4) 0.00081(4)
K1 K1+ 0.0088(2) 0.0149(2) 0.0337(3) 0.00003(16) 0.00517(19) -0.00130(18)
Y1 Y3+ 0.00541(8) 0.00568(8) 0.00556(8) -0.00011(5) 0.00145(6) -0.00013(5)
Si1 Si4+ 0.0051(2) 0.0052(2) 0.0051(2) -0.00040(17) 0.00090(17) 
-0.00001(16)
Si2 Si4+ 0.0050(2) 0.0057(2) 0.0064(2) -0.00012(16) 0.00178(18) 
-0.00045(16)
O1 O2- 0.0132(7) 0.0126(7) 0.0114(7) -0.0044(5) 0.0017(5) -0.0041(5)
O2 O2- 0.0108(7) 0.0089(6) 0.0158(7) 0.0015(5) -0.0008(5) 0.0024(5)
O3 O2- 0.0069(6) 0.0096(6) 0.0103(6) -0.0001(5) 0.0026(5) -0.0007(5)
O4 O2- 0.0078(6) 0.0166(7) 0.0081(6) -0.0037(5) 0.0021(5) 0.0008(5)
O5 O2- 0.0111(7) 0.0167(8) 0.0116(7) 0.0021(5) 0.0072(5) 0.0012(5)
O6 O2- 0.0109(7) 0.0078(6) 0.0146(7) -0.0026(5) 0.0039(5) -0.0029(5)
O7 O2- 0.0103(7) 0.0072(6) 0.0102(6) 0.0021(5) 0.0033(5) 0.0005(5)
#End of data_163665-ICSD


