data_86649-ICSD
#?2014 by Fachinformationszentrum Karlsruhe, and the U.S. Secretary of 
#Commerce on behalf of the United States.  All rights reserved.
_database_code_ICSD                86649
_audit_creation_date               2000/07/15
_chemical_name_systematic
;
Tricesium Sodium Octa-mue3-thio-octahedro-hexakis(cyanorhenate(III))
;
_chemical_formula_structural       'Cs3 Na (S8 (Re (C N))6)'
_chemical_formula_sum              'C6 Cs3 N6 Na1 Re6 S8'
_publ_section_title
;
Cyano-bridged Re6 Q8 (Q = S, Se) cluster-metal framework solids: a 
new class of porous materials
;
loop_
_citation_id
_citation_journal_abbrev
_citation_year
_citation_journal_volume
_citation_page_first
_citation_page_last
_citation_journal_id_ASTM
primary 'Chemistry of Materials' 1998 10 3783 3786 CMATEX
_publ_author_name
;
Beauvais, L.G.;Shores, M.P.;Long, J.R.
;
_cell_length_a                     11.2390(4)
_cell_length_b                     8.9229(3)
_cell_length_c                     13.0650(5)
_cell_angle_alpha                  90.
_cell_angle_beta                   90.
_cell_angle_gamma                  90.
_cell_volume                       1310.22
_cell_formula_units_Z              2
_symmetry_space_group_name_H-M     'P m n a'
_symmetry_Int_Tables_number        53
_refine_ls_R_factor_all            .026
loop_
_symmetry_equiv_pos_site_id
_symmetry_equiv_pos_as_xyz
  1	'x+.5, y, -z+.5'
  2	'x+.5, -y, z+.5'
  3	'-x, y, z'
  4	'-x, -y, -z'
  5	'-x+.5, -y, z+.5'
  6	'-x+.5, y, -z+.5'
  7	'x, -y, -z'
  8	'x, y, z'
loop_
_atom_type_symbol
_atom_type_oxidation_number
C2+	2
Cs1+	1
N3-	-3
Na1+	1
Re3+	3
S2-	-2
loop_
_atom_site_label
_atom_site_type_symbol
_atom_site_symmetry_multiplicity
_atom_site_Wyckoff_symbol
_atom_site_fract_x
_atom_site_fract_y
_atom_site_fract_z
_atom_site_occupancy
_atom_site_attached_hydrogens
Re1 Re3+ 8 i 0.1158(1) 0.8655(1) 0.0379(1) 1. 0 
Re2 Re3+ 4 h 0 0.0796(1) 0.1302(1) 1. 0 
S1 S2- 8 i 0.2135(2) 0.0716(2) 0.1205(2) 1. 0 
S2 S2- 4 h 0 0.8227(3) 0.1916(2) 1. 0 
S3 S2- 4 h 0 0.6772(3) -.0491(3) 1. 0 
C1 C2+ 8 i 0.2579(8) 0.7184(10) 0.0720(7) 1. 0 
N1 N3- 8 i 0.3410(8) 0.6433(9) 0.0820(7) 1. 0 
C2 C2+ 4 h 0 0.1945(14) 0.2729(9) 1. 0 
N2 N3- 4 h 0 0.2737(13) 0.3438(8) 1. 0 
Na1 Na1+ 2 c 0 0.5 0.5 1. 0 
Cs1 Cs1+ 4 g 0.25 0.4257(1) 0.25 1. 0 
Cs2 Cs1+ 2 b 0 0 0.5 1. 0 

loop_
_atom_site_aniso_label
_atom_site_aniso_type_symbol
_atom_site_aniso_U_11
_atom_site_aniso_U_22
_atom_site_aniso_U_33
_atom_site_aniso_U_12
_atom_site_aniso_U_13
_atom_site_aniso_U_23
Re1 Re3+ 0.012(1) 0.010(1) 0.011(1) 0.001(1) 0.000(1) 0.001(1)
Re2 Re3+ 0.012(1) 0.011(1) 0.009(1) 0 0 0.000(1)
S1 S2- 0.015(1) 0.015(1) 0.010(1) 0.001(1) -.001(1) -.001(1)
S2 S2- 0.018(2) 0.015(2) 0.011(2) 0 0 0.003(1)
S3 S2- 0.019(2) 0.012(2) 0.017(2) 0 0 -.002(1)
C1 C2+ 0.021(5) 0.014(5) 0.016(5) -.003(4) -.002(4) -.001(4)
N1 N3- 0.027(5) 0.024(5) 0.030(5) 0.008(4) 0.002(4) 0.002(4)
C2 C2+ 0.013(7) 0.020(7) 0.005(7) 0 0 -.003(5)
N2 N3- 0.023(7) 0.029(7) 0.008(6) 0 0 -.003(5)
Na1 Na1+ 0.008(4) 0.029(5) 0.045(5) 0 0 0.012(4)
Cs1 Cs1+ 0.032(1) 0.017(1) 0.037(1) 0 0.012(1) 0
Cs2 Cs1+ 0.017(1) 0.063(1) 0.068(1) 0 0 0.051(1)
#End of data_86649-ICSD


