data_30654-ICSD
#?2014 by Fachinformationszentrum Karlsruhe, and the U.S. Secretary of 
#Commerce on behalf of the United States.  All rights reserved.
_database_code_ICSD                30654
_audit_creation_date               1980/01/01
_audit_update_record               2004/10/01
_chemical_name_systematic
;
Trimagnesium Manganese Dimanganese(III) Diborate
;
_chemical_formula_structural       'Mg3 Mn3 (B2 O10)'
_chemical_formula_sum              'B2 Mg3 Mn3 O10'
_chemical_name_mineral             Pinakiolite
_publ_section_title
;
The crystal structures of warwickite, ludwigite and pinakiolite
;
loop_
_citation_id
_citation_journal_abbrev
_citation_year
_citation_journal_volume
_citation_page_first
_citation_page_last
_citation_journal_id_ASTM
primary 'Acta Crystallographica (1,1948-23,1967)' 1950 3 98 107 ACCRA9
_publ_author_name                  'Takeuchi, Y.;Watanabe, T.;Ito, T.'
_cell_length_a                     5.36(5)
_cell_length_b                     5.98(2)
_cell_length_c                     12.73(4)
_cell_angle_alpha                  90.
_cell_angle_beta                   120.57
_cell_angle_gamma                  90.
_cell_volume                       351.32
_cell_formula_units_Z              2
_symmetry_space_group_name_H-M     'P 1 21/m 1'
_symmetry_Int_Tables_number        11
loop_
_symmetry_equiv_pos_site_id
_symmetry_equiv_pos_as_xyz
  1	'x, -y+.5, z'
  2	'-x, -y, -z'
  3	'-x, y+.5, -z'
  4	'x, y, z'
loop_
_atom_type_symbol
_atom_type_oxidation_number
B3+	3
Mg2+	2
Mn2+	2
Mn3+	3
O2-	-2
loop_
_atom_site_label
_atom_site_type_symbol
_atom_site_symmetry_multiplicity
_atom_site_Wyckoff_symbol
_atom_site_fract_x
_atom_site_fract_y
_atom_site_fract_z
_atom_site_occupancy
_atom_site_attached_hydrogens
O1 O2- 2 e 0.239 0.25 -.011 1. 0 
O2 O2- 2 e 0.239 0.75 -.011 1. 0 
O3 O2- 4 f 0.175 0 0.175 1. 0 
O4 O2- 4 f 0.638 0 0.366 1. 0 
O5 O2- 4 f 0.643 0 0.18 1. 0 
O6 O2- 2 e 0.202 0.25 0.396 1. 0 
O7 O2- 2 e 0.202 0.75 0.396 1. 0 
Mg1 Mg2+ 2 a 0 0 0 1. 0 
Mg2 Mg2+ 2 e -.053 0.25 0.197 1. 0 
Mg3 Mg2+ 2 e 0 0.25 0.5 1. 0 
Mn1 Mn2+ 2 e -.053 0.75 0.197 1. 0 
Mn2 Mn3+ 2 b 0.5 0 0 1. 0 
Mn3 Mn3+ 2 d 0.5 0 0.5 1. 0 
B1 B3+ 4 f 0.5 0 0.25 1. 0 

#End of data_30654-ICSD


