data_88566-ICSD
#?2014 by Fachinformationszentrum Karlsruhe, and the U.S. Secretary of 
#Commerce on behalf of the United States.  All rights reserved.
_database_code_ICSD                88566
_audit_creation_date               2001/07/16
_audit_update_record               2003/04/01
_chemical_name_systematic          'Aluminium Phosphate(V) - 5'
_chemical_formula_structural       'Al (P O4)'
_chemical_formula_sum              'Al1 O4 P1'
_publ_section_title
;
Structural study of the aluminophosphate (Al P O4)-5 by neutron 
powder diffraction
;
loop_
_citation_id
_citation_journal_abbrev
_citation_year
_citation_journal_volume
_citation_page_first
_citation_page_last
_citation_journal_id_ASTM
primary 'Journal of Physics and Chemistry of Solids' 1999 60 1531 1535 JPCSAW
_publ_author_name
;
Ikeda, T.;Miyazawa, K.;Izumi, F.;Huang, Q.;Santoro, A.
;
_cell_length_a                     13.7711(4)
_cell_length_b                     23.846(2)
_cell_length_c                     8.3769(5)
_cell_angle_alpha                  90.
_cell_angle_beta                   90.
_cell_angle_gamma                  90.
_cell_volume                       2750.85
_cell_formula_units_Z              24
_symmetry_space_group_name_H-M     'P n n 2'
_symmetry_Int_Tables_number        34
_refine_ls_R_factor_all            .013
loop_
_symmetry_equiv_pos_site_id
_symmetry_equiv_pos_as_xyz
  1	'x+.5, -y+.5, z+.5'
  2	'-x+.5, y+.5, z+.5'
  3	'-x, -y, z'
  4	'x, y, z'
loop_
_atom_type_symbol
_atom_type_oxidation_number
Al3+	3
O2-	-2
P5+	5
loop_
_atom_site_label
_atom_site_type_symbol
_atom_site_symmetry_multiplicity
_atom_site_Wyckoff_symbol
_atom_site_fract_x
_atom_site_fract_y
_atom_site_fract_z
_atom_site_occupancy
_atom_site_attached_hydrogens
_atom_site_B_iso_or_equiv
Al1 Al3+ 4 c 0.775(7) 0.339(2) 0.9059 1. 0 2.8(2) 
Al2 Al3+ 4 c 0.895(6) 0.436(2) 0.457(12) 1. 0 2.8(2) 
Al3 Al3+ 4 c 0.889(7) 0.228(2) 0.420(12) 1. 0 2.8(2) 
P1 P5+ 4 c 0.894(4) 0.442(2) 0.062(11) 1. 0 3.6(2) 
P2 P5+ 4 c 0.900(4) 0.229(2) 0.034(12) 1. 0 3.6(2) 
P3 P5+ 4 c 0.770(4) 0.335(2) 0.549(11) 1. 0 3.6(2) 
O1 O2- 4 c 0.001(3) 0.210(2) 0.492(15) 1. 0 3.9(4) 
O2 O2- 4 c 0.642(3) 0.990(2) 0.046(13) 1. 0 3.9(4) 
O3 O2- 4 c 0.814(3) 0.185(2) 0.508(12) 1. 0 3.9(4) 
O4 O2- 4 c 0.892(3) 0.4615(14) 0.257(13) 1. 0 3.9(4) 
O5 O2- 4 c 0.929(3) 0.247(2) 0.225(13) 1. 0 3.9(4) 
O6 O2- 4 c -.010(3) 0.413(2) 0.024(12) 1. 0 3.9(4) 
O7 O2- 4 c 0.851(3) 0.290(2) 0.996(14) 1. 0 3.9(4) 
O8 O2- 4 c 0.800(3) 0.392(2) 0.513(14) 1. 0 3.9(4) 
O9 O2- 4 c 0.769(2) 0.339(2) 0.728(13) 1. 0 3.9(4) 
O10 O2- 4 c 0.840(3) 0.293(2) 0.473(13) 1. 0 3.9(4) 
O11 O2- 4 c 0.824(3) 0.393(2) 0.990(13) 1. 0 3.9(4) 
O12 O2- 4 c 0.807(3) 0.191(2) 0.933(13) 1. 0 3.9(4) 
Al4 Al3+ 4 c 0.290(7) 0.835(2) 0.920(13) 1. 0 2.9(2) 
Al5 Al3+ 4 c 0.412(7) 0.944(2) 0.419(13) 1. 0 2.9(2) 
Al6 Al3+ 4 c 0.406(7) 0.727(2) 0.412(14) 1. 0 2.9(2) 
P4 P5+ 4 c 0.391(4) 0.941(2) 0.067(12) 1. 0 3.6(2) 
P5 P5+ 4 c 0.386(4) 0.739(2) 0.038(13) 1. 0 3.6(2) 
P6 P5+ 4 c 0.295(4) 0.839(2) 0.545(12) 1. 0 3.6(2) 
O13 O2- 4 c 0.503(4) 0.712(2) 0.507(13) 1. 0 4.7(4) 
O14 O2- 4 c 0.136(5) 0.499(2) -.034(14) 1. 0 4.7(4) 
O15 O2- 4 c 0.317(4) 0.696(2) 0.494(12) 1. 0 4.7(4) 
O16 O2- 4 c 0.432(4) 0.9341(14) 0.227(13) 1. 0 4.7(4) 
O17 O2- 4 c 0.405(4) 0.7305(14) 0.230(13) 1. 0 4.7(4) 
O18 O2- 4 c 0.487(5) 0.922(2) 0.994(12) 1. 0 4.7(4) 
O19 O2- 4 c 0.361(5) 0.792(2) -.058(13) 1. 0 4.7(4) 
O20 O2- 4 c 0.324(5) 0.899(2) 0.493(12) 1. 0 4.7(4) 
O21 O2- 4 c 0.250(3) 0.859(2) 0.742(13) 1. 0 4.7(4) 
O22 O2- 4 c 0.369(5) 0.788(2) 0.466(12) 1. 0 4.7(4) 
O23 O2- 4 c 0.317(5) 0.891(2) 0.028(13) 1. 0 4.7(4) 
O24 O2- 4 c 0.334(5) 0.677(2) -.012(13) 1. 0 4.7(4) 

#End of data_88566-ICSD


