data_95094-ICSD
#?2014 by Fachinformationszentrum Karlsruhe, and the U.S. Secretary of 
#Commerce on behalf of the United States.  All rights reserved.
_database_code_ICSD                95094
_audit_creation_date               2003/10/01
_audit_update_record               2013/02/01
_chemical_name_systematic          'Disilver Mercury Tin(IV) Selenide'
_chemical_formula_structural       'Ag2 Hg Sn Se4'
_chemical_formula_sum              'Ag2 Hg1 Se4 Sn1'
_publ_section_title
;
The (Ag2 Se) - (Hg Se) - (Sn Se2) system and the crystal structure of 
the Ag2 Hg Sn Se4 compound
;
loop_
_citation_id
_citation_journal_abbrev
_citation_year
_citation_journal_volume
_citation_page_first
_citation_page_last
_citation_journal_id_ASTM
primary 'Journal of Alloys and Compounds' 2002 339 140 143 JALCEU
2
;
Zeitschrift fuer Naturforschung, Teil B. Anorganische Chemie, 
Organische Chemie (33,1978-41,1986)
;
 1989 44 1035 1036 ZNBAD2
_publ_author_name
;
Parasyuk, O.V.;Gulay, L.D.;Piskach, L.V.;Kumanska, Yu.O.
;
_cell_length_a                     8.461(1)
_cell_length_b                     7.340(1)
_cell_length_c                     6.9901(6)
_cell_angle_alpha                  90
_cell_angle_beta                   90
_cell_angle_gamma                  90
_cell_volume                       434.11
_cell_formula_units_Z              2
_symmetry_space_group_name_H-M     'P m n 21'
_symmetry_Int_Tables_number        31
_refine_ls_R_factor_all            .0693
loop_
_symmetry_equiv_pos_site_id
_symmetry_equiv_pos_as_xyz
  1	'x+.5, -y, z+.5'
  2	'-x+.5, -y, z+.5'
  3	'-x, y, z'
  4	'x, y, z'
loop_
_atom_type_symbol
_atom_type_oxidation_number
Ag1+	1
Hg2+	2
Se2-	-2
Sn4+	4
loop_
_atom_site_label
_atom_site_type_symbol
_atom_site_symmetry_multiplicity
_atom_site_Wyckoff_symbol
_atom_site_fract_x
_atom_site_fract_y
_atom_site_fract_z
_atom_site_occupancy
_atom_site_attached_hydrogens
_atom_site_B_iso_or_equiv
Ag1 Ag1+ 4 b 0.2505(8) 0.1579(7) 0.502(1) 1. 0 1.5(2) 
Hg1 Hg2+ 2 a 0 0.6398(8) 0.530(1) 1. 0 2.2(1) 
Sn1 Sn4+ 2 a 0 0.339(1) 0.030(2) 1. 0 0.7(2) 
Se1 Se2- 4 b 0.2560(8) 0.178(1) 0.130(1) 1. 0 0.8(2) 
Se2 Se2- 2 a 0 0.320(1) 0.663(2) 1. 0 0.2(3) 
Se3 Se2- 2 a 0 0.637(2) 0.148(2) 1. 0 2.0(4) 

#End of data_95094-ICSD


