data_647391-ICSD
#?2014 by Fachinformationszentrum Karlsruhe, and the U.S. Secretary of 
#Commerce on behalf of the United States.  All rights reserved.
_database_code_ICSD                647391
_audit_creation_date               2008/07/07
_audit_update_record               2013/08/01
_chemical_name_systematic          'Diantimony Zinc Oxide'
_chemical_formula_structural       'Sb2 Zn O4'
_chemical_formula_sum              'O4 Sb2 Zn1'
_publ_section_title
;
The crystal structure of Zn Sb3 O4 and isomorpous compounds
;
loop_
_citation_id
_citation_journal_abbrev
_citation_year
_citation_journal_volume
_citation_journal_issue
_citation_page_first
_citation_page_last
_citation_journal_id_ASTM
primary 'Arkiv foer Kemi, Mineralogi och Geologi' 1943 17 5 1 7 AKMGAE
_publ_author_name                  'Stahl, S.'
_cell_length_a                     8.5080
_cell_length_b                     8.5080
_cell_length_c                     5.9320
_cell_angle_alpha                  90.0
_cell_angle_beta                   90.0
_cell_angle_gamma                  90.0
_cell_volume                       429.39
_cell_formula_units_Z              4
_symmetry_space_group_name_H-M     'P 42/m b c'
_symmetry_Int_Tables_number        135
loop_
_symmetry_equiv_pos_site_id
_symmetry_equiv_pos_as_xyz
  1	'-y+.5, -x+.5, z+.5'
  2	'-x+.5, y+.5, z'
  3	'y, -x, z+.5'
  4	'-x, -y, z'
  5	'-y+.5, -x+.5, -z+.5'
  6	'-x+.5, y+.5, -z'
  7	'y, -x, -z+.5'
  8	'-x, -y, -z'
  9	'y+.5, x+.5, -z+.5'
 10	'x+.5, -y+.5, -z'
 11	'-y, x, -z+.5'
 12	'x, y, -z'
 13	'y+.5, x+.5, z+.5'
 14	'x+.5, -y+.5, z'
 15	'-y, x, z+.5'
 16	'x, y, z'
loop_
_atom_type_symbol
_atom_type_oxidation_number
O2-	-2
Sb3+	3
Zn2+	2
loop_
_atom_site_label
_atom_site_type_symbol
_atom_site_symmetry_multiplicity
_atom_site_Wyckoff_symbol
_atom_site_fract_x
_atom_site_fract_y
_atom_site_fract_z
_atom_site_occupancy
_atom_site_attached_hydrogens
O1 O2- 8 h 0.096 0.360 0 1.000 0 
O2 O2- 8 g 0.180 0.680 0.25 1.000 0 
Sb1 Sb3+ 8 h 0.322 0.336 0 1.000 0 
Zn1 Zn2+ 4 d 0 0.5 0.25 1.000 0 

#End of data_647391-ICSD


