data_240366-ICSD
#?2014 by Fachinformationszentrum Karlsruhe, and the U.S. Secretary of 
#Commerce on behalf of the United States.  All rights reserved.
_database_code_ICSD                240366
_audit_creation_date               2007/04/01
_chemical_name_systematic
;
Tripotassium Samarium Octathioarsenate(V)
;
_chemical_formula_structural       'As2 K3 S8 Sm'
_chemical_formula_sum              'As2 K3 S8 Sm1'
_publ_section_title
;
K3Ln(AsS4)2 (Ln = Nd, Sm, Gd): the First Rare Earth Thioarsenate 
Compounds with Infinite Straight [Ln(AsS4)2]3- Chains
;
loop_
_citation_id
_citation_journal_abbrev
_citation_year
_citation_journal_volume
_citation_journal_issue
_citation_page_first
_citation_page_last
_citation_journal_id_ASTM
primary 'Inorganic Chemistry' 2006 45 22 8835 8837 INOCAJ
_publ_author_name                  'Wu, Y.;Naether, C.;Bensch, W.'
_cell_length_a                     10.3741(9)
_cell_length_b                     18.8228(14)
_cell_length_c                     8.8484(7)
_cell_angle_alpha                  90.00
_cell_angle_beta                   117.013(9)
_cell_angle_gamma                  90.00
_cell_volume                       1539.32
_cell_formula_units_Z              4
_symmetry_space_group_name_H-M     'C 1 2/c 1'
_symmetry_Int_Tables_number        15
_refine_ls_R_factor_all            .0313
loop_
_symmetry_equiv_pos_site_id
_symmetry_equiv_pos_as_xyz
  1	'x, -y, z+.5'
  2	'-x, -y, -z'
  3	'-x, y, -z+.5'
  4	'x, y, z'
  5	'x+.5, -y+.5, z+.5'
  6	'-x+.5, -y+.5, -z'
  7	'-x+.5, y+.5, -z+.5'
  8	'x+.5, y+.5, z'
loop_
_atom_type_symbol
_atom_type_oxidation_number
As5+	5
K1+	1
S2-	-2
Sm3+	3
loop_
_atom_site_label
_atom_site_type_symbol
_atom_site_symmetry_multiplicity
_atom_site_Wyckoff_symbol
_atom_site_fract_x
_atom_site_fract_y
_atom_site_fract_z
_atom_site_occupancy
_atom_site_attached_hydrogens
_atom_site_U_iso_or_equiv
Sm1 Sm3+ 4 e 0.5000 0.257005(13) 0.2500 1 0 0.00738(10) 
As1 As5+ 8 f 0.21797(4) 0.123102(19) 0.10397(5) 1 0 0.00835(12) 
K1 K1+ 4 e 0.5000 0.50496(7) 0.2500 1 0 0.0184(3) 
K2 K1+ 4 b 0.5000 0.0000 0.0000 1 0 0.0388(4) 
K3 K1+ 4 e 0.5000 0.23619(8) -0.2500 1 0 0.0251(3) 
S1 S2- 8 f 0.25387(11) 0.01152(5) 0.12844(13) 1 0 0.0145(2) 
S2 S2- 8 f 0.51290(9) 0.35619(5) 0.01773(12) 1 0 0.01136(19) 
S3 S2- 8 f 0.20081(10) 0.32823(5) 0.05926(12) 1 0 0.0120(2) 
S4 S2- 8 f 0.68352(11) 0.17682(6) 0.15241(12) 1 0 0.0167(2) 

loop_
_atom_site_aniso_label
_atom_site_aniso_type_symbol
_atom_site_aniso_U_11
_atom_site_aniso_U_22
_atom_site_aniso_U_33
_atom_site_aniso_U_12
_atom_site_aniso_U_13
_atom_site_aniso_U_23
Sm1 Sm3+ 0.00545(15) 0.01057(15) 0.00545(15) 0.000 0.00189(12) 0.000
As1 As5+ 0.0056(2) 0.0110(2) 0.0064(2) -0.00192(12) 0.00094(18) 0.00103(12)
K1 K1+ 0.0149(6) 0.0272(7) 0.0128(6) 0.000 0.0059(5) 0.000
K2 K1+ 0.0155(7) 0.0866(14) 0.0129(7) -0.0028(7) 0.0051(6) -0.0097(7)
K3 K1+ 0.0326(8) 0.0300(7) 0.0184(7) 0.000 0.0165(7) 0.000
S1 S2- 0.0130(5) 0.0130(4) 0.0149(5) 0.0015(4) 0.0041(4) 0.0035(4)
S2 S2- 0.0059(4) 0.0150(4) 0.0119(5) -0.0004(3) 0.0028(4) 0.0040(4)
S3 S2- 0.0107(4) 0.0175(4) 0.0095(4) -0.0033(3) 0.0059(4) -0.0006(4)
S4 S2- 0.0162(5) 0.0268(5) 0.0065(4) 0.0105(4) 0.0047(4) 0.0031(4)
#End of data_240366-ICSD


