data_202456-ICSD
#?2014 by Fachinformationszentrum Karlsruhe, and the U.S. Secretary of 
#Commerce on behalf of the United States.  All rights reserved.
_database_code_ICSD                202456
_audit_creation_date               1988/05/17
_audit_update_record               2012/02/01
_chemical_name_systematic
;
Thallium Tetrafluoroaluminate - Iii
;
_chemical_formula_structural       'Tl (Al F4)'
_chemical_formula_sum              'Al1 F4 Tl1'
_publ_section_title
;
Structural phase transitions in ferroelastic Tl Al F4: DSC 
investigations and structures determinations by neutron powder 
profile refinement
;
loop_
_citation_id
_citation_journal_abbrev
_citation_year
_citation_journal_volume
_citation_page_first
_citation_page_last
_citation_journal_id_ASTM
primary 'Journal of Physics C' 1987 20 2885 2900 JPSOAW
2 'Phase Transition' 1992 38 127 220 PHTRDP
_publ_author_name                  'Bulou, A.;Nouet, J.'
_cell_length_a                     5.1376(2)
_cell_length_b                     5.1301(1)
_cell_length_c                     12.7822(3)
_cell_angle_alpha                  90.
_cell_angle_beta                   90.119(2)
_cell_angle_gamma                  90.
_cell_volume                       336.89
_cell_formula_units_Z              4
_symmetry_space_group_name_H-M     'I 1 2/c 1'
_symmetry_Int_Tables_number        15
_refine_ls_R_factor_all            .0365
loop_
_symmetry_equiv_pos_site_id
_symmetry_equiv_pos_as_xyz
  1	'-x, y, -z+.5'
  2	'-x, -y, -z'
  3	'x, -y, z+.5'
  4	'x, y, z'
  5	'-x+.5, y+.5, -z'
  6	'-x+.5, -y+.5, -z+.5'
  7	'x+.5, -y+.5, z'
  8	'x+.5, y+.5, z+.5'
loop_
_atom_type_symbol
_atom_type_oxidation_number
Al3+	3
F1-	-1
Tl1+	1
loop_
_atom_site_label
_atom_site_type_symbol
_atom_site_symmetry_multiplicity
_atom_site_Wyckoff_symbol
_atom_site_fract_x
_atom_site_fract_y
_atom_site_fract_z
_atom_site_occupancy
_atom_site_attached_hydrogens
_atom_site_B_iso_or_equiv
Tl1 Tl1+ 4 e 0.5 0.0092(6) 0.25 1. 0 2.9(1) 
Al1 Al3+ 4 a 0 0 0 1. 0 0.5(2) 
F1 F1- 8 f 0.2738(7) 0.2236(6) 0.0092(2) 1. 0 2.1(1) 
F2 F1- 8 f -.001(1) -.0295(6) 0.1369(1) 1. 0 2.0(1) 

#End of data_202456-ICSD


