data_240274-ICSD
#?2014 by Fachinformationszentrum Karlsruhe, and the U.S. Secretary of 
#Commerce on behalf of the United States.  All rights reserved.
_database_code_ICSD                240274
_audit_creation_date               2005/10/01
_audit_update_record               2006/04/01
_chemical_name_systematic
;
Ammonium Heptafluorodilithiodiberyllate
;
_chemical_formula_structural       '(N H4) (Li2 Be2 F7)'
_chemical_formula_sum              'H4 Be2 F7 Li2 N1'
_publ_section_title
;
3-dimensional methylammonium and ammonium templated 
lithiumberyllofluoro frameworks
;
loop_
_citation_id
_citation_journal_abbrev
_citation_year
_citation_journal_volume
_citation_page_first
_citation_page_last
_citation_journal_id_ASTM
primary 'Chemistry of Materials' 2004 16 1650 1659 CMATEX
_publ_author_name                  'Gerrard, L.A.;Weller, M.T.'
_cell_length_a                     10.024(2)
_cell_length_b                     12.288(3)
_cell_length_c                     4.9371(7)
_cell_angle_alpha                  90
_cell_angle_beta                   90
_cell_angle_gamma                  90
_cell_volume                       608.13
_cell_formula_units_Z              4
_symmetry_space_group_name_H-M     'P n m a'
_symmetry_Int_Tables_number        62
_refine_ls_R_factor_all            .1493
loop_
_symmetry_equiv_pos_site_id
_symmetry_equiv_pos_as_xyz
  1	'x+.5, y, -z+.5'
  2	'x, -y+.5, z'
  3	'-x+.5, y+.5, z+.5'
  4	'-x, -y, -z'
  5	'-x+.5, -y, z+.5'
  6	'-x, y+.5, -z'
  7	'x+.5, -y+.5, -z+.5'
  8	'x, y, z'
loop_
_atom_type_symbol
_atom_type_oxidation_number
Be2+	2
F1-	-1
H1+	1
Li1+	1
N3-	-3
loop_
_atom_site_label
_atom_site_type_symbol
_atom_site_symmetry_multiplicity
_atom_site_Wyckoff_symbol
_atom_site_fract_x
_atom_site_fract_y
_atom_site_fract_z
_atom_site_occupancy
_atom_site_attached_hydrogens
_atom_site_U_iso_or_equiv
Be1 Be2+ 8 d -0.0980(4) 0.1328(4) 0.7136(10) 1 0 0.0273(10) 
Li1 Li1+ 8 d 0.1519(6) 0.0000(4) 0.7952(11) 1 0 0.0303(13) 
F1 F1- 8 d 0.04465(19) 0.11885(17) 0.8102(5) 1 0 0.0468(7) 
F2 F1- 8 d -0.18974(19) 0.05035(16) 0.8588(4) 1 0 0.0351(6) 
F3 F1- 8 d -0.1089(2) 0.12028(16) 0.4086(4) 1 0 0.0453(6) 
F4 F1- 4 c -0.1468(3) 0.25 0.7955(5) 1 0 0.0317(7) 
N1 N3- 4 c 0.1377(5) 0.25 1.2695(10) 1 0 0.0379(11) 
H1 H1+ 4 c 0.139(5) 0.25 1.088(4) 1 0 0.057 
H2 H1+ 8 d 0.099(3) 0.187(2) 1.310(7) 1 0 0.057 
H3 H1+ 4 c 0.222(2) 0.25 1.314(10) 1 0 0.057 

loop_
_atom_site_aniso_label
_atom_site_aniso_type_symbol
_atom_site_aniso_U_11
_atom_site_aniso_U_22
_atom_site_aniso_U_33
_atom_site_aniso_U_12
_atom_site_aniso_U_13
_atom_site_aniso_U_23
Be1 Be2+ 0.030(2) 0.025(3) 0.027(3) -0.001(2) -0.006(2) -0.004(2)
Li1 Li1+ 0.033(3) 0.030(3) 0.028(3) 0.006(3) 0.001(3) -0.002(2)
F1 F1- 0.0317(12) 0.0336(13) 0.0751(19) 0.0047(10) -0.0083(11) -0.0082(12)
F2 F1- 0.0381(12) 0.0359(12) 0.0313(12) -0.0123(10) -0.0056(9) 0.0110(9)
F3 F1- 0.0763(16) 0.0339(12) 0.0257(11) -0.0156(13) 0.0048(11) -0.0039(10)
F4 F1- 0.0320(15) 0.0275(15) 0.0357(18) 0 0.0036(14) 0
N1 N3- 0.040(3) 0.039(3) 0.034(3) 0 0.000(3) 0
#End of data_240274-ICSD


