data_68821-ICSD
#?2014 by Fachinformationszentrum Karlsruhe, and the U.S. Secretary of 
#Commerce on behalf of the United States.  All rights reserved.
_database_code_ICSD                68821
_audit_creation_date               1992/01/20
_audit_update_record               2006/04/01
_chemical_name_systematic          'Dipotassium Tetrachlorozincate'
_chemical_formula_structural       'K2 (Zn Cl4)'
_chemical_formula_sum              'Cl4 K2 Zn1'
_publ_section_title
;
Neutron study of the normal-incommensurate phase transition in K2 Zn 
Cl4
;
loop_
_citation_id
_citation_journal_abbrev
_citation_year
_citation_journal_volume
_citation_page_first
_citation_page_last
_citation_journal_id_ASTM
primary 'Journal of Physics: Condensed Matter' 1990 2 4543 4558 JCOMEL
2 'Golden Book of Phase Transitions, Wroclaw' 2002 1 1 123 GBOPT5
_publ_author_name
;
Quilichini, M.;Bernede, P.;Lefebvre, J.;Schweiss, P.
;
_cell_length_a                     8.96(3)
_cell_length_b                     7.30(1)
_cell_length_c                     12.54(3)
_cell_angle_alpha                  90.
_cell_angle_beta                   90.
_cell_angle_gamma                  90.
_cell_volume                       820.22
_cell_formula_units_Z              4
_symmetry_space_group_name_H-M     'P n m a'
_symmetry_Int_Tables_number        62
_refine_ls_R_factor_all            .11
loop_
_symmetry_equiv_pos_site_id
_symmetry_equiv_pos_as_xyz
  1	'x+.5, y, -z+.5'
  2	'x, -y+.5, z'
  3	'-x+.5, y+.5, z+.5'
  4	'-x, -y, -z'
  5	'-x+.5, -y, z+.5'
  6	'-x, y+.5, -z'
  7	'x+.5, -y+.5, -z+.5'
  8	'x, y, z'
loop_
_atom_type_symbol
_atom_type_oxidation_number
Cl1-	-1
K1+	1
Zn2+	2
loop_
_atom_site_label
_atom_site_type_symbol
_atom_site_symmetry_multiplicity
_atom_site_Wyckoff_symbol
_atom_site_fract_x
_atom_site_fract_y
_atom_site_fract_z
_atom_site_occupancy
_atom_site_attached_hydrogens
K1 K1+ 4 c 0.6339(16) 0.25 0.4143(18) 1. 0 
K2 K1+ 4 c 0.4960(13) 0.25 0.8126(9) 1. 0 
Zn1 Zn2+ 4 c 0.2190(6) 0.25 0.4188(5) 1. 0 
Cl1 Cl1- 4 c 0.9748(6) 0.25 0.4342(5) 1. 0 
Cl2 Cl1- 4 c 0.3309(6) 0.25 0.5782(5) 1. 0 
Cl3 Cl1- 8 d 0.3028(7) 0.0055(7) 0.3325(6) 1. 0 

loop_
_atom_site_aniso_label
_atom_site_aniso_type_symbol
_atom_site_aniso_U_11
_atom_site_aniso_U_22
_atom_site_aniso_U_33
_atom_site_aniso_U_12
_atom_site_aniso_U_13
_atom_site_aniso_U_23
K1 K1+ 0.0539(73) 0.180(20) 0.134(15) 0 0 0
K2 K1+ 0.0587(68) 0.118(11) 0.0539(66) 0 0 0
Zn1 Zn2+ 0.0351(27) 0.0596(36) 0.0453(32) 0 0 0
Cl1 Cl1- 0.0370(24) 0.352(15) 0.0918(41) 0 0 0
Cl2 Cl1- 0.0633(33) 0.394(16) 0.0541(31) 0 0 0
Cl3 Cl1- 0.1659(49) 0.0669(23) 0.2415(69) 0 0 0
#End of data_68821-ICSD


