data_10239-ICSD
#?2014 by Fachinformationszentrum Karlsruhe, and the U.S. Secretary of 
#Commerce on behalf of the United States.  All rights reserved.
_database_code_ICSD                10239
_audit_creation_date               1980/01/01
_audit_update_record               1998/06/26
_chemical_name_systematic          'Sodium Chromium Catena-disilicate'
_chemical_formula_structural       'Na Cr (Si2 O6)'
_chemical_formula_sum              'Cr1 Na1 O6 Si2'
_chemical_name_mineral             Kosmochlor
_publ_section_title
;
High-temperature crystal chemistry of acmite, diopside, hedenbergite, 
jadeite, spodumene, and ureyite
;
loop_
_citation_id
_citation_journal_abbrev
_citation_year
_citation_journal_volume
_citation_page_first
_citation_page_last
_citation_journal_id_ASTM
primary 'American Mineralogist' 1973 58 594 618 AMMIAY
_publ_author_name
;
Cameron, M.;Sueno, S.;Prewitt, C.T.;Papike, J.J.
;
_cell_length_a                     9.597(1)
_cell_length_b                     8.751(1)
_cell_length_c                     5.274(1)
_cell_angle_alpha                  90.
_cell_angle_beta                   107.29(1)
_cell_angle_gamma                  90.
_cell_volume                       422.91
_cell_formula_units_Z              4
_symmetry_space_group_name_H-M     'C 1 2/c 1'
_symmetry_Int_Tables_number        15
_refine_ls_R_factor_all            .1
loop_
_symmetry_equiv_pos_site_id
_symmetry_equiv_pos_as_xyz
  1	'x, -y, z+.5'
  2	'-x, -y, -z'
  3	'-x, y, -z+.5'
  4	'x, y, z'
  5	'x+.5, -y+.5, z+.5'
  6	'-x+.5, -y+.5, -z'
  7	'-x+.5, y+.5, -z+.5'
  8	'x+.5, y+.5, z'
loop_
_atom_type_symbol
_atom_type_oxidation_number
Cr3+	3
Na1+	1
O2-	-2
Si4+	4
loop_
_atom_site_label
_atom_site_type_symbol
_atom_site_symmetry_multiplicity
_atom_site_Wyckoff_symbol
_atom_site_fract_x
_atom_site_fract_y
_atom_site_fract_z
_atom_site_occupancy
_atom_site_attached_hydrogens
_atom_site_B_iso_or_equiv
O1 O2- 8 f 0.1139(4) 0.0794(4) 0.1369(8) 1. 0 1.04(6) 
O2 O2- 8 f 0.3607(4) 0.2571(5) 0.3012(9) 1. 0 1.32(7) 
O3 O2- 8 f 0.3521(4) 0.0099(5) 0.0062(9) 1. 0 1.26(6) 
Si1 Si4+ 8 f 0.2920(1) 0.0918(2) 0.2328(3) 1. 0 0.77(3) 
Cr1 Cr3+ 4 e 0 0.9072(1) 0.25 1. 0 0.81(3) 
Na1 Na1+ 4 e 0 0.3001(4) 0.25 1. 0 1.91(7) 

#End of data_10239-ICSD


