data_414455-ICSD
#?2014 by Fachinformationszentrum Karlsruhe, and the U.S. Secretary of 
#Commerce on behalf of the United States.  All rights reserved.
_database_code_ICSD                414455
_audit_creation_date               2005/10/01
_chemical_name_systematic
;
Potassium Copper Gallium Hexafluoride
;
_chemical_formula_structural       'K Cu Ga F6'
_chemical_formula_sum              'Cu1 F6 Ga1 K1'
_publ_section_title
;
Struktur- und magnetochemische Untersuchungen an K Cu Ga F6
;
loop_
_citation_id
_citation_journal_abbrev
_citation_year
_citation_journal_volume
_citation_page_first
_citation_page_last
_citation_journal_id_ASTM
primary 'Zeitschrift fuer Anorganische und Allgemeine Chemie (1950) (DE)'
 2005 631 115 121 ZAACAB
_publ_author_name                  'Dahlke, P.;Pebler, J.;Babel, D.'
_cell_length_a                     7.2856(4)
_cell_length_b                     9.8951(6)
_cell_length_c                     6.7627(3)
_cell_angle_alpha                  90.00
_cell_angle_beta                   93.120(5)
_cell_angle_gamma                  90.00
_cell_volume                       486.81
_cell_formula_units_Z              4
_symmetry_space_group_name_H-M     'P 1 21/c 1'
_symmetry_Int_Tables_number        14
_refine_ls_R_factor_all            .0514
loop_
_symmetry_equiv_pos_site_id
_symmetry_equiv_pos_as_xyz
  1	'x, -y+.5, z+.5'
  2	'-x, -y, -z'
  3	'-x, y+.5, -z+.5'
  4	'x, y, z'
loop_
_atom_type_symbol
_atom_type_oxidation_number
Cu2+	2
F1-	-1
Ga3+	3
K1+	1
loop_
_atom_site_label
_atom_site_type_symbol
_atom_site_symmetry_multiplicity
_atom_site_Wyckoff_symbol
_atom_site_fract_x
_atom_site_fract_y
_atom_site_fract_z
_atom_site_occupancy
_atom_site_attached_hydrogens
_atom_site_U_iso_or_equiv
K1 K1+ 4 e 0.24149(11) 0.88434(8) 0.49812(11) 1 0 0.03138(16) 
Cu1 Cu2+ 4 e 0.25512(4) 0.26532(3) 0.81565(4) 1 0 0.01328(8) 
Ga1 Ga3+ 2 a 0.0000 0.0000 0.0000 1 0 0.01145(8) 
Ga2 Ga3+ 2 b 0.5000 0.0000 0.0000 1 0 0.01175(8) 
F1 F1- 4 e 0.0215(3) -0.16294(17) 0.1319(3) 1 0 0.0216(3) 
F2 F1- 4 e 0.5063(2) -0.17762(17) 0.1014(3) 1 0 0.0205(3) 
F3 F1- 4 e 0.2457(2) 0.33099(17) 1.0761(2) 1 0 0.0185(3) 
F4 F1- 4 e 0.7538(2) 0.0180(2) 0.0808(3) 1 0 0.0208(3) 
F5 F1- 4 e 0.0737(2) 0.41080(18) 0.7374(2) 1 0 0.0188(3) 
F6 F1- 4 e 0.4451(2) 0.06329(19) 0.2478(2) 1 0 0.0201(3) 

loop_
_atom_site_aniso_label
_atom_site_aniso_type_symbol
_atom_site_aniso_U_11
_atom_site_aniso_U_22
_atom_site_aniso_U_33
_atom_site_aniso_U_12
_atom_site_aniso_U_13
_atom_site_aniso_U_23
K1 K1+ 0.0368(4) 0.0273(3) 0.0294(3) -0.0002(3) -0.0045(3) 0.0039(2)
Cu1 Cu2+ 0.01568(13) 0.01454(13) 0.00951(11) 0.00214(11) -0.00038(8) 
-0.00031(9)
Ga1 Ga3+ 0.01195(15) 0.01134(15) 0.01102(14) -0.00119(12) 0.00033(11) 
-0.00058(11)
Ga2 Ga3+ 0.01171(15) 0.01197(16) 0.01154(14) 0.00114(12) 0.00041(11) 
-0.00050(11)
F1 F1- 0.0280(8) 0.0154(7) 0.0212(7) -0.0010(6) 0.0008(6) 0.0048(6)
F2 F1- 0.0217(7) 0.0149(7) 0.0244(8) 0.0010(6) -0.0029(6) 0.0040(6)
F3 F1- 0.0276(8) 0.0185(7) 0.0093(5) 0.0002(6) 0.0014(5) 0.0009(5)
F4 F1- 0.0120(6) 0.0315(9) 0.0190(7) -0.0010(6) 0.0006(5) -0.0020(6)
F5 F1- 0.0193(7) 0.0211(8) 0.0160(6) 0.0029(6) -0.0006(5) 0.0057(5)
F6 F1- 0.0202(7) 0.0252(8) 0.0153(6) 0.0023(6) 0.0030(5) -0.0046(6)
#End of data_414455-ICSD


