data_27352-ICSD
#?2014 by Fachinformationszentrum Karlsruhe, and the U.S. Secretary of 
#Commerce on behalf of the United States.  All rights reserved.
_database_code_ICSD                27352
_audit_creation_date               1980/01/01
_audit_update_record               1987/10/12
_chemical_name_systematic          'Potassium Cyanide - Iv'
_chemical_formula_structural       'K C N'
_chemical_formula_sum              'C1 K1 N1'
_publ_section_title
;
Neutron diffraction study of K C N-III and K C N-IV at high pressure
;
loop_
_citation_id
_citation_journal_abbrev
_citation_year
_citation_journal_volume
_citation_page_first
_citation_page_last
_citation_journal_id_ASTM
primary 'Physical Review, Serie 3. B - Solid State (1,1970-17,1977)'
 1974 10 3584 3593 PLRBAQ
_publ_author_name
;
Decker, D.L.;Beyerlein, R.A.;Roult, G.;Worlton, T.G.
;
_cell_length_a                     5.5166(24)
_cell_length_b                     5.2662(22)
_cell_length_c                     3.7579(20)
_cell_angle_alpha                  90.
_cell_angle_beta                   86.58
_cell_angle_gamma                  90.
_cell_volume                       108.98
_cell_formula_units_Z              2
_symmetry_space_group_name_H-M     'C 1 m 1'
_symmetry_Int_Tables_number        8
loop_
_symmetry_equiv_pos_site_id
_symmetry_equiv_pos_as_xyz
  1	'x, -y, z'
  2	'x, y, z'
  3	'x+.5, -y+.5, z'
  4	'x+.5, y+.5, z'
loop_
_atom_type_symbol
_atom_type_oxidation_number
C2+	2
K1+	1
N3-	-3
loop_
_atom_site_label
_atom_site_type_symbol
_atom_site_symmetry_multiplicity
_atom_site_Wyckoff_symbol
_atom_site_fract_x
_atom_site_fract_y
_atom_site_fract_z
_atom_site_occupancy
_atom_site_attached_hydrogens
_atom_site_B_iso_or_equiv
K1 K1+ 2 a 0 0 0 1. 0 0 
C1 C2+ 2 a 0.429(8) 0 0.350(11) 1. 0 4.56 
N1 N3- 2 a 0.570(6) 0 0.514(11) 1. 0 4.56 

#End of data_27352-ICSD


