data_300159-ICSD
#?2014 by Fachinformationszentrum Karlsruhe, and the U.S. Secretary of 
#Commerce on behalf of the United States.  All rights reserved.
_database_code_ICSD                300159
_audit_creation_date               1991/07/10
_audit_update_record               1991/10/30
_chemical_name_systematic          'Barium Dizinc Phosphate'
_chemical_formula_structural       'Ba Zn2 (P O4)2'
_chemical_formula_sum              'Ba1 O8 P2 Zn2'
_publ_section_title
;
Crystal structure of barium dizinc phosphate
;
loop_
_citation_id
_citation_journal_abbrev
_citation_year
_citation_journal_volume
_citation_page_first
_citation_page_last
_citation_journal_id_ASTM
primary 'Zeitschrift fuer Kristallographie (1979-2010)' 1991 196 312 313 ZEKRDZ
_publ_author_name                  'Schmidt, R.;Kniep, R.'
_cell_length_a                     8.598(4)
_cell_length_b                     9.761(4)
_cell_length_c                     9.159(4)
_cell_angle_alpha                  90.
_cell_angle_beta                   91.385(50)
_cell_angle_gamma                  90.
_cell_volume                       768.45
_cell_formula_units_Z              4
_symmetry_space_group_name_H-M     'P 1 21/c 1'
_symmetry_Int_Tables_number        14
_refine_ls_R_factor_all            .044
loop_
_symmetry_equiv_pos_site_id
_symmetry_equiv_pos_as_xyz
  1	'x, -y+.5, z+.5'
  2	'-x, -y, -z'
  3	'-x, y+.5, -z+.5'
  4	'x, y, z'
loop_
_atom_type_symbol
_atom_type_oxidation_number
Ba2+	2
O2-	-2
P5+	5
Zn2+	2
loop_
_atom_site_label
_atom_site_type_symbol
_atom_site_symmetry_multiplicity
_atom_site_Wyckoff_symbol
_atom_site_fract_x
_atom_site_fract_y
_atom_site_fract_z
_atom_site_occupancy
_atom_site_attached_hydrogens
Ba1 Ba2+ 4 e 0.24678(10) 0.08407 0.60305(10) 1. 0 
Zn1 Zn2+ 4 e 0.57362(10) 0.5731(1) 0.28986(10) 1. 0 
Zn2 Zn2+ 4 e 0.91533(10) 0.31869(10) 0.4423(1) 1. 0 
P1 P5+ 4 e 0.54586(20) 0.29593(20) 0.42694(20) 1. 0 
P2 P5+ 4 e 0.05711(20) 0.08898(20) 0.2421(2) 1. 0 
O1 O2- 4 e 0.49229(70) 0.38761(60) 0.29751(60) 1. 0 
O2 O2- 4 e 0.42332(70) 0.19364(60) 0.04478(60) 1. 0 
O3 O2- 4 e 0.22483(70) 0.07813(80) 0.30513(70) 1. 0 
O4 O2- 4 e 0.00572(70) 0.44937(60) 0.30768(70) 1. 0 
O5 O2- 4 e 0.05097(70) 0.30755(70) 0.61772(60) 1. 0 
O6 O2- 4 e 0.55372(70) 0.14488(60) 0.37716(70) 1. 0 
O7 O2- 4 e 0.70256(70) 0.15254(70) 0.98788(70) 1. 0 
O8 O2- 4 e 0.95623(70) 0.36738(60) 0.87047(60) 1. 0 

#End of data_300159-ICSD


