data_290597-ICSD
#?2014 by Fachinformationszentrum Karlsruhe, and the U.S. Secretary of 
#Commerce on behalf of the United States.  All rights reserved.
_database_code_ICSD                290597
_audit_creation_date               2014/02/01
_chemical_name_systematic          'Disilver Nickel Oxide'
_chemical_formula_structural       'Ag2 Ni O2'
_chemical_formula_sum              'Ag2 Ni1 O2'
_publ_section_title
;
Magnetic structure of the metallic triangular antiferromagnet Ag2 Ni 
O2
;
loop_
_citation_id
_citation_journal_abbrev
_citation_year
_citation_journal_volume
_citation_journal_issue
_citation_page_first
_citation_page_last
_citation_journal_id_ASTM
primary 'Journal of Physics: Condensed Matter' 2013 25 28 286005-1 286005-6 JCOMEL
_publ_author_name
;
Nozaki, Hiroshi;Mansson, Martin;Roessli, Bertrand;Pomjakushin, 
Vladimir;Kamazawa, Kazuya;Ikedo, Yutaka;Fischer, Henry E.;Hansen, 
Thomas C.;Yoshida, Hiroyuki;Hiroi, Zenji;Sugiyama, Jun
;
_cell_length_a                     5.0421(3)
_cell_length_b                     2.9154(2)
_cell_length_c                     8.1849(3)
_cell_angle_alpha                  90
_cell_angle_beta                   101.491(6)
_cell_angle_gamma                  90
_cell_volume                       117.9
_cell_formula_units_Z              2
_symmetry_space_group_name_H-M     'C 1 2/m 1'
_symmetry_Int_Tables_number        12
_refine_ls_R_factor_all            .0196
loop_
_symmetry_equiv_pos_site_id
_symmetry_equiv_pos_as_xyz
  1	'-x, y, -z'
  2	'-x, -y, -z'
  3	'x, -y, z'
  4	'x, y, z'
  5	'-x+.5, y+.5, -z'
  6	'-x+.5, -y+.5, -z'
  7	'x+.5, -y+.5, z'
  8	'x+.5, y+.5, z'
loop_
_atom_type_symbol
_atom_type_oxidation_number
Ag1+	1
Ni2+	2
O2-	-2
loop_
_atom_site_label
_atom_site_type_symbol
_atom_site_symmetry_multiplicity
_atom_site_Wyckoff_symbol
_atom_site_fract_x
_atom_site_fract_y
_atom_site_fract_z
_atom_site_occupancy
_atom_site_attached_hydrogens
Ag1 Ag1+ 4 i 0.2125(1) 0 0.6402(2) 1. 0 
Ni1 Ni2+ 2 a 0 0 0 1. 0 
O1 O2- 4 i 0.378(2) 0 0.1286(2) 1. 0 

#End of data_290597-ICSD


