data_162238-ICSD
#?2014 by Fachinformationszentrum Karlsruhe, and the U.S. Secretary of 
#Commerce on behalf of the United States.  All rights reserved.
_database_code_ICSD                162238
_audit_creation_date               2009/08/01
_chemical_name_systematic          'Zinc Tungstate - Hp'
_chemical_formula_structural       'Zn (W O4)'
_chemical_formula_sum              'O4 W1 Zn1'
_publ_section_title
;
Combined Raman scattering and ab initio investigation of pressure-
induced structural phase transitions in the scintillator Zn W O4
;
loop_
_citation_id
_citation_journal_abbrev
_citation_year
_citation_journal_volume
_citation_page_first
_citation_page_last
_citation_journal_id_ASTM
primary 'Physical Review, Serie 3. B - Condensed Matter (18,1978-)'
 2008 78 054116-1 054116-12 PRBMDO
_publ_author_name
;
Errandonea, D.;Manjon, F.J.;Garro, N.;Rodriguez Hernandez, 
P.;Radescu, S.;Mujica, A.;Munoz, A.;Tu, C.-Y.
;
_cell_length_a                     7.1807
_cell_length_b                     10.3304
_cell_length_c                     4.9896
_cell_angle_alpha                  90.
_cell_angle_beta                   90.
_cell_angle_gamma                  90.
_cell_volume                       370.13
_cell_formula_units_Z              8
_symmetry_space_group_name_H-M     'C m c a'
_symmetry_Int_Tables_number        64
loop_
_symmetry_equiv_pos_site_id
_symmetry_equiv_pos_as_xyz
  1	'-x, -y+.5, z+.5'
  2	'-x, y+.5, -z+.5'
  3	'-x, y, z'
  4	'-x, -y, -z'
  5	'x, y+.5, -z+.5'
  6	'x, -y+.5, z+.5'
  7	'x, -y, -z'
  8	'x, y, z'
  9	'-x+.5, -y, z+.5'
 10	'-x+.5, y, -z+.5'
 11	'-x+.5, y+.5, z'
 12	'-x+.5, -y+.5, -z'
 13	'x+.5, y, -z+.5'
 14	'x+.5, -y, z+.5'
 15	'x+.5, -y+.5, -z'
 16	'x+.5, y+.5, z'
loop_
_atom_type_symbol
_atom_type_oxidation_number
O2-	-2
W6+	6
Zn2+	2
loop_
_atom_site_label
_atom_site_type_symbol
_atom_site_symmetry_multiplicity
_atom_site_Wyckoff_symbol
_atom_site_fract_x
_atom_site_fract_y
_atom_site_fract_z
_atom_site_occupancy
_atom_site_attached_hydrogens
Zn1 Zn2+ 8 e 0.750 0.8585 0.750 1. 0 
W1 W6+ 8 f 0.5 0.3920 0.2590 1. 0 
O1 O2- 8 e 0.750 0.1741 0.750 1. 0 
O2 O2- 8 f 0.5 0.2758 0.5444 1. 0 
O3 O2- 8 d 0.6600 0 0 1. 0 
O4 O2- 8 f 0.5 0.4217 0.8751 1. 0 

#End of data_162238-ICSD


