data_9011-ICSD
#?2014 by Fachinformationszentrum Karlsruhe, and the U.S. Secretary of 
#Commerce on behalf of the United States.  All rights reserved.
_database_code_ICSD                9011
_audit_creation_date               1980/01/01
_audit_update_record               2006/04/01
_chemical_name_systematic          'Dicalcium Stannate'
_chemical_formula_structural       'Ca2 (Sn O4)'
_chemical_formula_sum              'Ca2 O4 Sn1'
_publ_section_title
;
Die Kristallstruktur der Verbindungen vom Sr2 Pb O4-Typ
;
loop_
_citation_id
_citation_journal_abbrev
_citation_year
_citation_journal_volume
_citation_page_first
_citation_page_last
_citation_journal_id_ASTM
primary 'Zeitschrift fuer Anorganische und Allgemeine Chemie (1950) (DE)'
 1969 371 237 247 ZAACAB
2 Naturwissenschaften 1967 54 17 18 NATWAY
_publ_author_name                  'Troemel, M.'
_cell_length_a                     5.748(1)
_cell_length_b                     9.694(1)
_cell_length_c                     3.264(1)
_cell_angle_alpha                  90.
_cell_angle_beta                   90.
_cell_angle_gamma                  90.
_cell_volume                       181.87
_cell_formula_units_Z              2
_symmetry_space_group_name_H-M     'P b a m'
_symmetry_Int_Tables_number        55
_refine_ls_R_factor_all            .072
loop_
_symmetry_equiv_pos_site_id
_symmetry_equiv_pos_as_xyz
  1	'x+.5, -y+.5, z'
  2	'-x+.5, y+.5, z'
  3	'x, y, -z'
  4	'-x, -y, -z'
  5	'-x+.5, y+.5, -z'
  6	'x+.5, -y+.5, -z'
  7	'-x, -y, z'
  8	'x, y, z'
loop_
_atom_type_symbol
_atom_type_oxidation_number
Ca2+	2
O2-	-2
Sn4+	4
loop_
_atom_site_label
_atom_site_type_symbol
_atom_site_symmetry_multiplicity
_atom_site_Wyckoff_symbol
_atom_site_fract_x
_atom_site_fract_y
_atom_site_fract_z
_atom_site_occupancy
_atom_site_attached_hydrogens
_atom_site_B_iso_or_equiv
Ca1 Ca2+ 4 h 0.070(1) 0.320(1) 0.5 1. 0 0.5 
Sn1 Sn4+ 2 a 0 0 0 1. 0 0.3 
O1 O2- 4 h 0.228(7) 0.049(4) 0.5 1. 0 0 
O2 O2- 4 g 0.360(7) 0.310(4) 0 1. 0 0 

#End of data_9011-ICSD


