data_260823-ICSD
#?2014 by Fachinformationszentrum Karlsruhe, and the U.S. Secretary of 
#Commerce on behalf of the United States.  All rights reserved.
_database_code_ICSD                260823
_audit_creation_date               2011/02/01
_chemical_name_systematic
;
Potassium Praseodymium Catenaphosphate(V)
;
_chemical_formula_structural       'K Pr (P O3)4'
_chemical_formula_sum              'K1 O12 P4 Pr1'
_publ_section_title                'K Pr (P O3)4'
loop_
_citation_id
_citation_journal_abbrev
_citation_year
_citation_journal_volume
_citation_journal_issue
_citation_page_first
_citation_page_last
_citation_journal_id_ASTM
primary 'Acta Crystallographica, Section E. Structure Reports Online'
 2010 66 8 i59 i60 ACSEBH
_publ_author_name
;
Oudahmane, A.;Daoud, M.;Tanouti, B.;Avignant, D.;Zambon, D.
;
_cell_length_a                     7.2872(2)
_cell_length_b                     8.4570(3)
_cell_length_c                     8.0268(2)
_cell_angle_alpha                  90.00
_cell_angle_beta                   91.9940(10)
_cell_angle_gamma                  90.00
_cell_volume                       494.37
_cell_formula_units_Z              2
_symmetry_space_group_name_H-M     'P 1 21 1'
_symmetry_Int_Tables_number        4
_refine_ls_R_factor_all            .0177
loop_
_symmetry_equiv_pos_site_id
_symmetry_equiv_pos_as_xyz
  1	'-x, y+.5, -z'
  2	'x, y, z'
loop_
_atom_type_symbol
_atom_type_oxidation_number
K1+	1
O2-	-2
P5+	5
Pr3+	3
loop_
_atom_site_label
_atom_site_type_symbol
_atom_site_symmetry_multiplicity
_atom_site_Wyckoff_symbol
_atom_site_fract_x
_atom_site_fract_y
_atom_site_fract_z
_atom_site_occupancy
_atom_site_attached_hydrogens
_atom_site_U_iso_or_equiv
K1 K1+ 2 a 0.77227(5) 0.31500(7) 0.72001(4) 1 0 0.02909(8) 
Pr1 Pr3+ 2 a 0.265282(4) 0.119995(8) 0.757982(4) 1 0 0.005520(10) 
P1 P5+ 2 a 0.50137(3) 0.26677(3) 0.38019(3) 1 0 0.00690(3) 
P2 P5+ 2 a 0.93476(3) 0.24280(3) 0.09865(3) 1 0 0.00685(3) 
P3 P5+ 2 a 0.12252(3) 0.37267(3) 0.39531(3) 1 0 0.00674(3) 
P4 P5+ 2 a 0.60346(3) 0.04117(3) 0.10444(3) 1 0 0.00675(3) 
O1 O2- 2 a 1.04301(12) 0.23711(10) 0.27436(11) 1 0 0.01360(11) 
O2 O2- 2 a 0.81354(11) 0.08886(10) 0.12702(13) 1 0 0.01412(12) 
O3 O2- 2 a -0.03801(11) 0.02642(9) 0.65100(11) 1 0 0.01191(10) 
O4 O2- 2 a 0.11151(11) 0.31458(11) 0.56903(9) 1 0 0.01188(10) 
O5 O2- 2 a 0.33093(10) 0.38001(9) 0.34329(10) 1 0 0.01061(9) 
O6 O2- 2 a 0.66909(10) 0.36646(10) 0.38630(10) 1 0 0.01127(9) 
O7 O2- 2 a 0.18250(12) -0.11539(10) 0.92653(10) 1 0 0.01172(10) 
O8 O2- 2 a 0.41427(12) 0.38104(10) 0.82424(13) 1 0 0.01527(12) 
O9 O2- 2 a 0.53826(12) 0.07174(11) 0.93036(10) 1 0 0.01395(12) 
O10 O2- 2 a 0.49263(14) 0.16280(13) 0.21526(13) 1 0 0.01754(15) 
O11 O2- 2 a 1.06463(16) 0.21154(13) -0.03535(13) 1 0 0.01866(16) 
O12 O2- 2 a 0.46952(13) 0.16652(11) 0.52829(11) 1 0 0.01411(12) 

loop_
_atom_site_aniso_label
_atom_site_aniso_type_symbol
_atom_site_aniso_U_11
_atom_site_aniso_U_22
_atom_site_aniso_U_33
_atom_site_aniso_U_12
_atom_site_aniso_U_13
_atom_site_aniso_U_23
K1 K1+ 0.01717(11) 0.0542(3) 0.01579(10) 0.00955(13) -0.00159(8) 
-0.00090(12)
Pr1 Pr3+ 0.005460(10) 0.005630(10) 0.005480(10) -0.00032(1) 0.000210(10) 
0.000060(10)
P1 P5+ 0.00666(7) 0.00665(7) 0.00750(7) 0.00002(5) 0.00174(5) 0.00055(5)
P2 P5+ 0.00649(6) 0.00695(7) 0.00716(7) -0.00010(5) 0.00069(5) -0.00144(5)
P3 P5+ 0.00623(6) 0.00685(7) 0.00704(7) 0.00079(5) -0.00105(5) 0.00031(5)
P4 P5+ 0.00704(7) 0.00576(6) 0.00735(7) -0.00051(5) -0.00141(5) -0.00019(5)
O1 O2- 0.0159(3) 0.0098(2) 0.0145(3) 0.0010(2) -0.0082(2) -0.00244(18)
O2 O2- 0.0083(2) 0.0108(2) 0.0229(3) -0.00354(17) -0.0037(2) 0.0027(2)
O3 O2- 0.0102(2) 0.0084(2) 0.0168(3) -0.00284(17) -0.00320(19) -0.00037(18)
O4 O2- 0.0114(2) 0.0160(3) 0.0082(2) 0.0013(2) 0.00038(16) 0.00301(18)
O5 O2- 0.00730(18) 0.0111(2) 0.0135(2) 0.00173(16) 0.00166(16) 0.00354(18)
O6 O2- 0.00779(19) 0.0116(2) 0.0145(2) -0.00191(17) 0.00084(16) 0.00167(19)
O7 O2- 0.0141(2) 0.0103(2) 0.0106(2) -0.00433(19) -0.00116(18) 0.00117(17)
O8 O2- 0.0131(3) 0.0090(2) 0.0235(4) 0.00183(19) -0.0015(2) -0.0067(2)
O9 O2- 0.0143(3) 0.0186(3) 0.0087(2) 0.0028(2) -0.00406(18) 0.0001(2)
O10 O2- 0.0157(3) 0.0201(3) 0.0169(3) 0.0020(3) 0.0016(2) -0.0106(3)
O11 O2- 0.0206(4) 0.0191(3) 0.0171(3) 0.0030(3) 0.0121(3) -0.0029(3)
O12 O2- 0.0141(3) 0.0144(3) 0.0142(3) 0.0033(2) 0.0059(2) 0.0074(2)
#End of data_260823-ICSD


