data_173014-ICSD
#?2014 by Fachinformationszentrum Karlsruhe, and the U.S. Secretary of 
#Commerce on behalf of the United States.  All rights reserved.
_database_code_ICSD                173014
_audit_creation_date               2008/02/01
_audit_update_record               2013/08/01
_chemical_name_systematic          'Aluminium Oxide - Gamma'
_chemical_formula_structural       'Al2 O3'
_chemical_formula_sum              'Al2 O3'
_publ_section_title
;
Fine-scale nanostructure in gamma - Al2 O3
;
loop_
_citation_id
_citation_journal_abbrev
_citation_year
_citation_journal_volume
_citation_journal_issue
_citation_page_first
_citation_page_last
_citation_journal_id_ASTM
primary 'Chemistry of Materials' 2007 18 14 3242 3248 CMATEX
_publ_author_name
;
Paglia, G.;Bozin, E.S.;Billinge, S.J.L.
;
_cell_length_a                     3.4009(6)
_cell_length_b                     2.7895(3)
_cell_length_c                     7.0762(9)
_cell_angle_alpha                  90.
_cell_angle_beta                   90.
_cell_angle_gamma                  90.
_cell_volume                       67.13
_cell_formula_units_Z              2
_symmetry_space_group_name_H-M     'P 1'
_symmetry_Int_Tables_number        1
_refine_ls_R_factor_all            .153
loop_
_symmetry_equiv_pos_site_id
_symmetry_equiv_pos_as_xyz
  1	'x, y, z'
loop_
_atom_type_symbol
_atom_type_oxidation_number
Al3+	3
O2-	-2
loop_
_atom_site_label
_atom_site_type_symbol
_atom_site_symmetry_multiplicity
_atom_site_Wyckoff_symbol
_atom_site_fract_x
_atom_site_fract_y
_atom_site_fract_z
_atom_site_occupancy
_atom_site_attached_hydrogens
_atom_site_U_iso_or_equiv
O1 O2- 1 a 0.7867(2) 0.5598(1) 0.0785(2) 1. 0 0.0010(1) 
O2 O2- 1 a 0.2418(3) 0.9879(2) 0.2493(2) 1. 0 0.0069(1) 
O3 O2- 1 a 0.7791(1) 0.4825(3) 0.3987(3) 1. 0 0.0069(1) 
O4 O2- 1 a 0.2007(6) 0.4656(2) 0.5901(2) 1. 0 0.0069(1) 
O5 O2- 1 a 0.8282(2) 0.9922(1) 0.7515(4) 1. 0 0.0069(1) 
O6 O2- 1 a 0.2756(3) 0.6089(3) 0.9300(3) 1. 0 0.0069(1) 
Al1 Al3+ 1 a 0.2091(4) 0.4855(3) 0.0652(3) 1. 0 0.0110(2) 
Al2 Al3+ 1 a 0.4485(3) 0.9782(1) 0.4620(4) 1. 0 0.0110(2) 
Al3 Al3+ 1 a 0.2802(2) 0.0307(3) 0.7138(2) 1. 0 0.0110(2) 
Al4 Al3+ 1 a 0.5934(3) 0.4773(3) 0.8726(3) 1. 0 0.0110(2) 

#End of data_173014-ICSD


