data_27212-ICSD
#?2014 by Fachinformationszentrum Karlsruhe, and the U.S. Secretary of 
#Commerce on behalf of the United States.  All rights reserved.
_database_code_ICSD                27212
_audit_creation_date               1982/12/31
_audit_update_record               2012/08/01
_chemical_name_systematic
;
Disodium Lithium Yttrium Closo-15-oxohexasilicate
;
_chemical_formula_structural       'Na2 Li Y Si6 O15'
_chemical_formula_sum              'Li1 Na2 O15 Si6 Y1'
_publ_section_title
;
Structure of Lithium Sodium Yttrium Silicate Na2 Li Y Si6 O15
;
loop_
_citation_id
_citation_journal_abbrev
_citation_year
_citation_journal_volume
_citation_page_first
_citation_page_last
_citation_journal_id_ASTM
primary 'Acta Crystallographica B (24,1968-38,1982)' 1982 38 1405 1408 ACBCAR
_publ_author_name
;
Gunawardane, R.P.;Howie, R.A.;Glasser, F.P.
;
_cell_length_a                     14.505(1)
_cell_length_b                     17.596(1)
_cell_length_c                     10.375(1)
_cell_angle_alpha                  90.
_cell_angle_beta                   90.
_cell_angle_gamma                  90.
_cell_volume                       2648.01
_cell_formula_units_Z              8
_symmetry_space_group_name_H-M     'C m c a'
_symmetry_Int_Tables_number        64
_refine_ls_R_factor_all            .082
loop_
_symmetry_equiv_pos_site_id
_symmetry_equiv_pos_as_xyz
  1	'-x, -y+.5, z+.5'
  2	'-x, y+.5, -z+.5'
  3	'-x, y, z'
  4	'-x, -y, -z'
  5	'x, y+.5, -z+.5'
  6	'x, -y+.5, z+.5'
  7	'x, -y, -z'
  8	'x, y, z'
  9	'-x+.5, -y, z+.5'
 10	'-x+.5, y, -z+.5'
 11	'-x+.5, y+.5, z'
 12	'-x+.5, -y+.5, -z'
 13	'x+.5, y, -z+.5'
 14	'x+.5, -y, z+.5'
 15	'x+.5, -y+.5, -z'
 16	'x+.5, y+.5, z'
loop_
_atom_type_symbol
_atom_type_oxidation_number
Li1+	1
Na1+	1
O2-	-2
Si4+	4
Y3+	3
loop_
_atom_site_label
_atom_site_type_symbol
_atom_site_symmetry_multiplicity
_atom_site_Wyckoff_symbol
_atom_site_fract_x
_atom_site_fract_y
_atom_site_fract_z
_atom_site_occupancy
_atom_site_attached_hydrogens
_atom_site_B_iso_or_equiv
Na1 Na1+ 8 f 0 0.4198(6) 0.2602(15) 1. 0 0 
Na2 Na1+ 8 e 0.25 0.2184(4) 0.25 1. 0 0 
Li1 Li1+ 8 d 0.2438(25) 0 0 1. 0 1.15 
Y1 Y3+ 8 e 0.25 -.0877(1) 0.25 1. 0 0 
Si1 Si4+ 16 g 0.3917(2) 0.1265(2) 0.0244(3) 1. 0 0.1 
Si2 Si4+ 16 g 0.3896(2) 0.0790(2) 0.3148(3) 1. 0 0.1 
Si3 Si4+ 16 g 0.3921(2) 0.1966(1) 0.5387(3) 1. 0 0.1 
O1 O2- 16 g 0.3795(6) 0.2161(5) -.0058(9) 1. 0 0.89 
O2 O2- 16 g 0.3323(6) 0.0764(4) -.0700(9) 1. 0 0.53 
O3 O2- 16 g 0.3624(5) 0.1147(4) 0.1750(9) 1. 0 0.5 
O4 O2- 16 g 0.3385(6) 0.0018(4) 0.3435(9) 1. 0 0.51 
O5 O2- 16 g 0.3601(5) 0.1454(4) 0.4142(9) 1. 0 0.43 
O6 O2- 16 g 0.3373(6) 0.1779(4) 0.6649(9) 1. 0 0.9 
O7 O2- 8 f 0.5 0.1049(6) 0.0007(13) 1. 0 0.71 
O8 O2- 8 f 0.5 0.0634(6) 0.3192(14) 1. 0 0.71 
O9 O2- 8 f 0.5 0.1771(7) 0.5645(15) 1. 0 1.08 

#End of data_27212-ICSD


