data_39295-ICSD
#?2014 by Fachinformationszentrum Karlsruhe, and the U.S. Secretary of 
#Commerce on behalf of the United States.  All rights reserved.
_database_code_ICSD                39295
_audit_creation_date               1990/12/27
_audit_update_record               2009/02/01
_chemical_name_systematic
;
Potassium Dysprosium Bis(selenate(VI))
;
_chemical_formula_structural       'K Dy (Se O4)2'
_chemical_formula_sum              'Dy1 K1 O8 Se2'
_publ_section_title                'Crystal structure of K Dy (Se O4)2'
loop_
_citation_id
_citation_journal_abbrev
_citation_year
_citation_journal_volume
_citation_page_first
_citation_page_last
_citation_journal_id_ASTM
primary Kristallografiya 1990 35 1099 1104 KRISAJ
2 'Soviet Physics, Crystallography (= Kristallografiya)'
 1990 35 646 649 SPHCA6
_publ_author_name
;
Ishakova, L.D.;Ovanisyan, S.M.;Trunov, V.K.
;
_cell_length_a                     27.470(2)
_cell_length_b                     5.657(1)
_cell_length_c                     8.989(1)
_cell_angle_alpha                  90.
_cell_angle_beta                   90.
_cell_angle_gamma                  90.
_cell_volume                       1396.87
_cell_formula_units_Z              8
_symmetry_space_group_name_H-M     'P n a 21'
_symmetry_Int_Tables_number        33
_refine_ls_R_factor_all            .05
loop_
_symmetry_equiv_pos_site_id
_symmetry_equiv_pos_as_xyz
  1	'x+.5, -y+.5, z'
  2	'-x+.5, y+.5, z+.5'
  3	'-x, -y, z+.5'
  4	'x, y, z'
loop_
_atom_type_symbol
_atom_type_oxidation_number
Dy3+	3
K1+	1
O2-	-2
Se6+	6
loop_
_atom_site_label
_atom_site_type_symbol
_atom_site_symmetry_multiplicity
_atom_site_Wyckoff_symbol
_atom_site_fract_x
_atom_site_fract_y
_atom_site_fract_z
_atom_site_occupancy
_atom_site_attached_hydrogens
_atom_site_B_iso_or_equiv
Dy1 Dy3+ 4 a 0.80162(3) 0.1773(1) 0.3216(1) 1. 0 0.75(1) 
K1 K1+ 4 a 0.0812(3) 0.255(1) 0.9455(7) 1. 0 3.2(1) 
Se1 Se6+ 4 a 0.68271(7) 0.1891(3) 0.5528(2) 1. 0 0.80(3) 
Se2 Se6+ 4 a 0.79348(6) 0.7104(3) 0.5224(2) 1. 0 0.82(3) 
O1 O2- 4 a 0.2371(5) 0.246(3) 0.492(1) 1. 0 1.1(2) 
O2 O2- 4 a 0.3181(6) 0.076(3) 0.126(2) 1. 0 1.4(2) 
O3 O2- 4 a 0.1424(5) 0.295(3) 0.426(2) 1. 0 1.4(2) 
O4 O2- 4 a 0.1672(5) 0.117(3) 0.684(2) 1. 0 1.2(2) 
O5 O2- 4 a 0.2444(6) 0.235(3) 0.890(2) 1. 0 1.6(3) 
O6 O2- 4 a 0.2294(5) 0.327(3) 0.188(2) 1. 0 1.3(2) 
O7 O2- 4 a 0.3294(4) 0.556(2) 0.529(2) 1. 0 0.9(2) 
O8 O2- 4 a 0.3283(5) 0.021(3) 0.480(2) 1. 0 1.0(2) 
Dy2 Dy3+ 4 a 0.55326(3) 0.2262(1) 0.4147(1) 1. 0 0.75(1) 
K2 K1+ 4 a 0.3322(2) 0.287(1) 0.7859(8) 1. 0 2.9(1) 
Se3 Se6+ 4 a 0.56699(6) 0.7355(3) 0.6865(2) 1. 0 0.68(2) 
Se4 Se6+ 4 a 0.45521(6) 0.2379(3) 0.7125(2) 1. 0 0.75(3) 
O9 O2- 4 a 0.3935(5) 0.290(2) 0.329(2) 1. 0 1.2(2) 
O10 O2- 4 a 0.4274(6) -.001(2) 0.129(2) 1. 0 1.4(2) 
O11 O2- 4 a 0.0772(5) 0.955(3) 0.554(2) 1. 0 1.6(3) 
O12 O2- 4 a 0.9882(6) 0.191(3) 0.249(2) 1. 0 1.5(2) 
O13 O2- 4 a 0.9893(6) 0.325(3) 0.858(2) 1. 0 1.5(2) 
O14 O2- 4 a 0.0768(5) -.019(3) 0.238(2) 1. 0 1.3(2) 
O15 O2- 4 a 0.4837(5) 0.253(3) 0.554(2) 1. 0 1.5(2) 
O16 O2- 4 a 0.4159(6) 0.010(3) 0.715(2) 1. 0 1.5(3) 

#End of data_39295-ICSD


