data_300233-ICSD
#?2014 by Fachinformationszentrum Karlsruhe, and the U.S. Secretary of 
#Commerce on behalf of the United States.  All rights reserved.
_database_code_ICSD                300233
_audit_creation_date               1992/08/20
_audit_update_record               2007/08/01
_chemical_name_systematic
;
Tetrapotassium Hexaselenodigermanate
;
_chemical_formula_structural       'K4 (Ge2 Se6)'
_chemical_formula_sum              'Ge2 K4 Se6'
_publ_section_title
;
Crystal structure of tetrapotassium hexaselenidogermanate
;
loop_
_citation_id
_citation_journal_abbrev
_citation_year
_citation_journal_volume
_citation_page_first
_citation_page_last
_citation_journal_id_ASTM
primary 'Zeitschrift fuer Kristallographie (1979-2010)' 1993 203 301 302 ZEKRDZ
_publ_author_name                  'Eisenmann, B.;Hansa, J.'
_cell_length_a                     8.564(4)
_cell_length_b                     7.442(4)
_cell_length_c                     6.892(4)
_cell_angle_alpha                  66.4(1)
_cell_angle_beta                   71.8(1)
_cell_angle_gamma                  74.6(1)
_cell_volume                       377.36
_cell_formula_units_Z              1
_symmetry_space_group_name_H-M     'P -1'
_symmetry_Int_Tables_number        2
_refine_ls_R_factor_all            .087
loop_
_symmetry_equiv_pos_site_id
_symmetry_equiv_pos_as_xyz
  1	'-x, -y, -z'
  2	'x, y, z'
loop_
_atom_type_symbol
_atom_type_oxidation_number
Ge4+	4
K1+	1
Se2-	-2
loop_
_atom_site_label
_atom_site_type_symbol
_atom_site_symmetry_multiplicity
_atom_site_Wyckoff_symbol
_atom_site_fract_x
_atom_site_fract_y
_atom_site_fract_z
_atom_site_occupancy
_atom_site_attached_hydrogens
K1 K1+ 2 i 0.1180(7) 0.2003(10) 0.5981(11) 1. 0 
K2 K1+ 2 i 0.3163(8) 0.5419(10) 0.8450(11) 1. 0 
Ge1 Ge4+ 2 i 0.3145(3) 0.9408(4) 0.1372(4) 1. 0 
Se1 Se2- 2 i 0.2822(3) 0.6171(4) 0.3347(5) 1. 0 
Se2 Se2- 2 i 0.0838(3) 0.1837(4) 0.1299(5) 1. 0 
Se3 Se2- 2 i 0.4724(3) 0.9650(4) 0.7746(4) 1. 0 

loop_
_atom_site_aniso_label
_atom_site_aniso_type_symbol
_atom_site_aniso_U_11
_atom_site_aniso_U_22
_atom_site_aniso_U_33
_atom_site_aniso_U_12
_atom_site_aniso_U_13
_atom_site_aniso_U_23
K1 K1+ 0.023(3) 0.046(4) 0.045(4) -0.019(3) -0.005(3) -0.006(3)
K2 K1+ 0.029(3) 0.050(4) 0.046(4) -0.022(3) -0.0004(30) -0.006(3)
Ge1 Ge4+ 0.016(1) 0.034(1) 0.025(1) -0.019(1) -0.005(1) -0.006(1)
Se1 Se2- 0.025(1) 0.031(1) 0.038(2) -0.014(1) 0.0001(10) -0.003(1)
Se2 Se2- 0.023(1) 0.031(1) 0.043(2) -0.019(1) -0.003(1) 0.003(1)
Se3 Se2- 0.021(1) 0.056(2) 0.026(1) -0.028(1) 0.004(1) -0.012(1)
#End of data_300233-ICSD


