data_172400-ICSD
#?2014 by Fachinformationszentrum Karlsruhe, and the U.S. Secretary of 
#Commerce on behalf of the United States.  All rights reserved.
_database_code_ICSD                172400
_audit_creation_date               2007/04/01
_audit_update_record               2013/08/01
_chemical_name_systematic          'Tripotassium Hexaborate Bromide'
_chemical_formula_structural       'K3 (B6 O10) Br'
_chemical_formula_sum              'B6 Br1 K3 O10'
_publ_section_title
;
Potassium bromo-borate K3 [B6 O10] Br - a new nonlinear optical 
material
;
loop_
_citation_id
_citation_journal_abbrev
_citation_year
_citation_journal_volume
_citation_journal_issue
_citation_page_first
_citation_page_last
_citation_journal_id_ASTM
primary Kristallografiya 2006 51 2 254 258 KRISAJ
2 'Crystallography Reports' 2006 51 2 225 230 CYSTE3
_publ_author_name
;
Al'-Ama, A.G.;Belokoneva, E.L.;Stefanovich, S.Yu.;Dimitrova, 
O.V.;Mochenova, N.N.
;
_cell_length_a                     10.124(3)
_cell_length_b                     10.124(3)
_cell_length_c                     8.867(2)
_cell_angle_alpha                  90.
_cell_angle_beta                   90.
_cell_angle_gamma                  120.
_cell_volume                       787.07
_cell_formula_units_Z              3
_symmetry_space_group_name_H-M     'R 3 m H'
_symmetry_Int_Tables_number        160
_refine_ls_R_factor_all            .053
loop_
_symmetry_equiv_pos_site_id
_symmetry_equiv_pos_as_xyz
  1	'-x+y, y, z'
  2	'x, x-y, z'
  3	'-y, -x, z'
  4	'-x+y, -x, z'
  5	'-y, x-y, z'
  6	'x, y, z'
  7	'-x+y+.6666, y+.3333, z+.3333'
  8	'-x+y+.3333, y+.6666, z+.6666'
  9	'x+.6666, x-y+.3333, z+.3333'
 10	'x+.3333, x-y+.6666, z+.6666'
 11	'-y+.6666, -x+.3333, z+.3333'
 12	'-y+.3333, -x+.6666, z+.6666'
 13	'-x+y+.6666, -x+.3333, z+.3333'
 14	'-x+y+.3333, -x+.6666, z+.6666'
 15	'-y+.6666, x-y+.3333, z+.3333'
 16	'-y+.3333, x-y+.6666, z+.6666'
 17	'x+.6666, y+.3333, z+.3333'
 18	'x+.3333, y+.6666, z+.6666'
loop_
_atom_type_symbol
_atom_type_oxidation_number
B3+	3
Br1-	-1
K1+	1
O2-	-2
loop_
_atom_site_label
_atom_site_type_symbol
_atom_site_symmetry_multiplicity
_atom_site_Wyckoff_symbol
_atom_site_fract_x
_atom_site_fract_y
_atom_site_fract_z
_atom_site_occupancy
_atom_site_attached_hydrogens
_atom_site_B_iso_or_equiv
Br1 Br1- 3 a 0 0 0 1. 0 1.71(3) 
K1 K1+ 9 b 0.3056(3) 0.1528(2) 0.2240(3) 1. 0 1.22(4) 
B1 B3+ 9 b 0.5159(4) 0.0318(7) 0.0028(9) 1. 0 .2(1) 
B2 B3+ 9 b 0.0874(5) 0.1748(9) 0.552(1) 1. 0 .8(2) 
O1 O2- 18 c 0.2324(5) 0.2335(5) 0.6340(6) 1. 0 .9(1) 
O2 O2- 9 b 0.4424(7) 0.2212(7) 0.7324(7) 1. 0 1.0(1) 
O3 O2- 3 a 0 0 0.564(2) 1. 0 .9(2) 

#End of data_172400-ICSD


