data_30531-ICSD
#?2014 by Fachinformationszentrum Karlsruhe, and the U.S. Secretary of 
#Commerce on behalf of the United States.  All rights reserved.
_database_code_ICSD                30531
_audit_creation_date               1986/10/22
_audit_update_record               2012/02/01
_chemical_name_systematic
;
Silver Di-mue-thio-bis(dithiophosphate)
;
_chemical_formula_structural       'Ag2 P2 S6'
_chemical_formula_sum              'Ag2 P2 S6'
_publ_section_title
;
Structure Cristalline de l'Hexathiodimetaphosphate d'Argent, Ag2 P2 
S6
;
loop_
_citation_id
_citation_journal_abbrev
_citation_year
_citation_journal_volume
_citation_page_first
_citation_page_last
_citation_journal_id_ASTM
primary 'Acta Crystallographica B (24,1968-38,1982)' 1978 34 3561 3564 ACBCAR
_publ_author_name
;
Toffoli, P.;Khodadad, P.;Rodier, N.
;
_cell_length_a                     11.210(3)
_cell_length_b                     6.731(2)
_cell_length_c                     6.998(2)
_cell_angle_alpha                  90.
_cell_angle_beta                   90.
_cell_angle_gamma                  126.84(2)
_cell_volume                       422.59
_cell_formula_units_Z              2
_symmetry_space_group_name_H-M     'B 1 1 2/m'
_symmetry_Int_Tables_number        12
_refine_ls_R_factor_all            .033
loop_
_symmetry_equiv_pos_site_id
_symmetry_equiv_pos_as_xyz
  1	'-x, -y, z'
  2	'-x, -y, -z'
  3	'x, y, -z'
  4	'x, y, z'
  5	'-x+.5, -y, z+.5'
  6	'-x+.5, -y, -z+.5'
  7	'x+.5, y, -z+.5'
  8	'x+.5, y, z+.5'
loop_
_atom_type_symbol
_atom_type_oxidation_number
Ag1+	1
P5+	5
S2-	-2
loop_
_atom_site_label
_atom_site_type_symbol
_atom_site_symmetry_multiplicity
_atom_site_Wyckoff_symbol
_atom_site_fract_x
_atom_site_fract_y
_atom_site_fract_z
_atom_site_occupancy
_atom_site_attached_hydrogens
Ag1 Ag1+ 4 g 0 0 0.2715(1) 1. 0 
S1 S2- 4 i 0.1818(2) 0.0469(3) 0 1. 0 
S2 S2- 4 h 0 0.5 0.2790(2) 1. 0 
S3 S2- 4 i 0.2905(2) 0.6420(3) 0 1. 0 
P1 P5+ 4 i 0.3455(1) 0.4085(2) 0 1. 0 

#End of data_30531-ICSD


