data_200305-ICSD
#?2014 by Fachinformationszentrum Karlsruhe, and the U.S. Secretary of 
#Commerce on behalf of the United States.  All rights reserved.
_database_code_ICSD                200305
_audit_creation_date               1980/01/01
_audit_update_record               2013/02/01
_chemical_name_systematic
;
Sodium Dicesium Hexafluoroaluminate
;
_chemical_formula_structural       'Na Cs2 (Al F6)'
_chemical_formula_sum              'Al1 Cs2 F6 Na1'
_publ_section_title
;
The crystal structure of sodium cesium fluoroaluminate Cs2 Na Al F6
;
loop_
_citation_id
_citation_journal_abbrev
_citation_year
_citation_journal_volume
_citation_page_first
_citation_page_last
_citation_journal_id_ASTM
primary Kristallografiya 1978 23 42 46 KRISAJ
2 'Soviet Physics, Crystallography (= Kristallografiya)'
 1978 23 19 21 SPHCA6
_publ_author_name                  'Golovastikov, N.I.;Belov, N.V.'
_cell_length_a                     10.697
_cell_length_b                     10.561
_cell_length_c                     6.176
_cell_angle_alpha                  90.
_cell_angle_beta                   90.
_cell_angle_gamma                  109.73
_cell_volume                       656.75
_cell_formula_units_Z              4
_symmetry_space_group_name_H-M     'B 1 1 2/m'
_symmetry_Int_Tables_number        12
_refine_ls_R_factor_all            .0534
loop_
_symmetry_equiv_pos_site_id
_symmetry_equiv_pos_as_xyz
  1	'-x, -y, z'
  2	'-x, -y, -z'
  3	'x, y, -z'
  4	'x, y, z'
  5	'-x+.5, -y, z+.5'
  6	'-x+.5, -y, -z+.5'
  7	'x+.5, y, -z+.5'
  8	'x+.5, y, z+.5'
loop_
_atom_type_symbol
_atom_type_oxidation_number
Al3+	3
Cs1+	1
F1-	-1
Na1+	1
loop_
_atom_site_label
_atom_site_type_symbol
_atom_site_symmetry_multiplicity
_atom_site_Wyckoff_symbol
_atom_site_fract_x
_atom_site_fract_y
_atom_site_fract_z
_atom_site_occupancy
_atom_site_attached_hydrogens
_atom_site_B_iso_or_equiv
Al1 Al3+ 2 a 0 0 0 1. 0 0.10 
Al2 Al3+ 2 c 0 0.5 0.5 1. 0 0.10 
Na1 Na1+ 4 i 0.4014 0.2043 0 1. 0 0.49 
Cs1 Cs1+ 4 i 0.2199 0.1598 0.5 1. 0 0.57 
Cs2 Cs1+ 4 i 0.128 0.3841 0 1. 0 0.39 
F1 F1- 4 i 0.1733 0.1037 0 1. 0 0.61 
F2 F1- 8 j 0.4652 0.1037 0.2919 1. 0 0.62 
F3 F1- 4 i 0.0997 0.3918 0.5 1. 0 0.43 
F4 F1- 8 j 0.3961 0.3918 0.2036 1. 0 0.47 

#End of data_200305-ICSD


