data_415778-ICSD
#?2014 by Fachinformationszentrum Karlsruhe, and the U.S. Secretary of 
#Commerce on behalf of the United States.  All rights reserved.
_database_code_ICSD                415778
_audit_creation_date               2007/08/01
_chemical_name_systematic
;
Potassium Tricobalt Iron Tris(phosphate(V))
;
_chemical_formula_structural       'K Co3 Fe (P O4)3'
_chemical_formula_sum              'Co3 Fe1 K1 O12 P3'
_publ_section_title
;
Hydrothermal synthesis, X-ray structure, vibrational and Mossbauer 
spectra of a new tricationic orthophosphate, K Co3 Fe (P O4)3
;
loop_
_citation_id
_citation_journal_abbrev
_citation_year
_citation_journal_volume
_citation_page_first
_citation_page_last
_citation_journal_id_ASTM
primary 'Canadian Journal of Chemistry' 2006 84 124 133 CJCHAG
_publ_author_name
;
Assaaoudi, H.;Fang Zhen;Ryan, D.H.;Butler, I.S.;Kozinski, J.A.
;
_cell_length_a                     9.6722(12)
_cell_length_b                     16.457(2)
_cell_length_c                     6.2004(8)
_cell_angle_alpha                  90.00
_cell_angle_beta                   90.00
_cell_angle_gamma                  90.00
_cell_volume                       986.95
_cell_formula_units_Z              4
_symmetry_space_group_name_H-M     'P n n m'
_symmetry_Int_Tables_number        58
_refine_ls_R_factor_all            .0339
loop_
_symmetry_equiv_pos_site_id
_symmetry_equiv_pos_as_xyz
  1	'x+.5, -y+.5, z+.5'
  2	'-x+.5, y+.5, z+.5'
  3	'x, y, -z'
  4	'-x, -y, -z'
  5	'-x+.5, y+.5, -z+.5'
  6	'x+.5, -y+.5, -z+.5'
  7	'-x, -y, z'
  8	'x, y, z'
loop_
_atom_type_symbol
_atom_type_oxidation_number
Co2+	2
Fe2+	2
K1+	1
O2-	-2
P5+	5
loop_
_atom_site_label
_atom_site_type_symbol
_atom_site_symmetry_multiplicity
_atom_site_Wyckoff_symbol
_atom_site_fract_x
_atom_site_fract_y
_atom_site_fract_z
_atom_site_occupancy
_atom_site_attached_hydrogens
_atom_site_U_iso_or_equiv
Co1 Co2+ 4 g 0.53850(8) 0.40639(4) 0.0000 1 0 0.0066(2) 
Fe1 Fe2+ 4 g -0.01791(8) 0.36093(4) 0.0000 1 0 0.0042(2) 
Co2 Co2+ 8 h 0.25075(5) 0.29635(3) -0.25150(8) 1 0 0.0059(2) 
P1 P5+ 4 g 0.21165(16) 0.46210(8) 0.0000 1 0 0.0052(3) 
P2 P5+ 4 g 0.45779(14) 0.21697(8) 0.0000 1 0 0.0051(3) 
P3 P5+ 4 g 0.04371(14) 0.16626(8) 0.0000 1 0 0.0046(3) 
K1 K1+ 4 g 0.29485(14) 0.03292(7) 0.0000 1 0 0.0109(3) 
O1 O2- 4 g 0.3674(4) 0.4777(2) 0.0000 1 0 0.0081(8) 
O2 O2- 4 g -0.1413(5) 0.4562(2) 0.0000 1 0 0.0111(9) 
O3 O2- 8 h 0.5898(3) 0.37858(16) -0.3001(4) 1 0 0.0077(5) 
O4 O2- 4 g 0.3846(4) 0.3211(2) -0.5000 1 0 0.0076(8) 
O5 O2- 8 h 0.1679(3) 0.41031(15) 0.1967(5) 1 0 0.0090(6) 
O6 O2- 4 g 0.6170(4) 0.2243(2) 0.0000 1 0 0.0069(8) 
O7 O2- 4 g 0.3941(4) 0.3052(2) 0.0000 1 0 0.0067(8) 
O8 O2- 4 g 0.1143(4) 0.2530(2) 0.0000 1 0 0.0071(8) 
O9 O2- 8 h 0.4017(3) 0.17743(16) -0.2040(5) 1 0 0.0088(6) 

loop_
_atom_site_aniso_label
_atom_site_aniso_type_symbol
_atom_site_aniso_U_11
_atom_site_aniso_U_22
_atom_site_aniso_U_33
_atom_site_aniso_U_12
_atom_site_aniso_U_13
_atom_site_aniso_U_23
Co1 Co2+ 0.0099(4) 0.0071(4) 0.0029(4) -0.0005(3) 0.000 0.000
Fe1 Fe2+ 0.0072(4) 0.0043(4) 0.0011(4) 0.0008(3) 0.000 0.000
Co2 Co2+ 0.0079(3) 0.0075(4) 0.0024(4) -0.00019(18) -0.00005(18) 
-0.00040(17)
P1 P5+ 0.0078(7) 0.0044(6) 0.0034(7) 0.0000(5) 0.000 0.000
P2 P5+ 0.0070(7) 0.0053(6) 0.0029(6) 0.0009(5) 0.000 0.000
P3 P5+ 0.0072(7) 0.0046(6) 0.0018(6) 0.0005(5) 0.000 0.000
K1 K1+ 0.0164(7) 0.0097(6) 0.0067(6) 0.0032(5) 0.000 0.000
O1 O2- 0.0092(19) 0.0052(17) 0.0098(18) -0.0001(15) 0.000 0.000
O2 O2- 0.012(2) 0.0066(18) 0.015(2) 0.0036(15) 0.000 0.000
O3 O2- 0.0119(13) 0.0083(12) 0.0029(12) -0.0006(10) -0.0002(12) -0.0014(10)
O4 O2- 0.0085(19) 0.0093(18) 0.0050(19) -0.0006(15) 0.000 0.000
O5 O2- 0.0130(14) 0.0077(13) 0.0062(13) -0.0009(10) 0.0055(12) 0.0010(10)
O6 O2- 0.0064(19) 0.0097(17) 0.0047(18) -0.0008(15) 0.000 0.000
O7 O2- 0.0088(19) 0.0039(17) 0.0074(19) 0.0005(14) 0.000 0.000
O8 O2- 0.0101(19) 0.0057(18) 0.0055(18) 0.0008(14) 0.000 0.000
#End of data_415778-ICSD


