data_20100-ICSD
#?2014 by Fachinformationszentrum Karlsruhe, and the U.S. Secretary of 
#Commerce on behalf of the United States.  All rights reserved.
_database_code_ICSD                20100
_audit_creation_date               1980/01/01
_audit_update_record               2003/04/01
_chemical_name_systematic          'Dipotassium Zirconium Disilicate'
_chemical_formula_structural       'K2 Zr (Si2 O7)'
_chemical_formula_sum              'K2 O7 Si2 Zr1'
_chemical_name_mineral             Khibinskite
_publ_section_title
;
Crystalline structure of monoclinic modification of K, Zr-
diorthosilicate (K2 Zr Si2 O7)
;
loop_
_citation_id
_citation_journal_abbrev
_citation_year
_citation_journal_volume
_citation_page_first
_citation_page_last
_citation_journal_id_ASTM
primary 'Doklady Akademii Nauk SSSR' 1970 193 1293 1296 DANKAS
2 'Phase Transition' 1992 38 127 220 PHTRDP
_publ_author_name
;
Chernov, A.N.;Maksimov, B.A.;Ilyukhin, V.V.;Belov, N.V.
;
_cell_length_a                     9.54
_cell_length_b                     14.26
_cell_length_c                     5.6
_cell_angle_alpha                  90.
_cell_angle_beta                   90.
_cell_angle_gamma                  116.516
_cell_volume                       681.69
_cell_formula_units_Z              4
_symmetry_space_group_name_H-M     'P 1 1 21/b'
_symmetry_Int_Tables_number        14
_refine_ls_R_factor_all            .14
loop_
_symmetry_equiv_pos_site_id
_symmetry_equiv_pos_as_xyz
  1	'x, y+.5, -z+.5'
  2	'-x, -y, -z'
  3	'-x, -y+.5, z+.5'
  4	'x, y, z'
loop_
_atom_type_symbol
_atom_type_oxidation_number
K1+	1
O2-	-2
Si4+	4
Zr4+	4
loop_
_atom_site_label
_atom_site_type_symbol
_atom_site_symmetry_multiplicity
_atom_site_Wyckoff_symbol
_atom_site_fract_x
_atom_site_fract_y
_atom_site_fract_z
_atom_site_occupancy
_atom_site_attached_hydrogens
Zr1 Zr4+ 4 e 0.237 0.232 0.253 1. 0 
Si1 Si4+ 4 e 0.172 0.369 0.744 1. 0 
Si2 Si4+ 4 e 0.336 0.114 0.741 1. 0 
K1 K1+ 4 e 0.035 0.426 0.264 1. 0 
K2 K1+ 4 e 0.482 0.592 0.26 1. 0 
O1 O2- 4 e 0.004 0.629 0.264 1. 0 
O2 O2- 4 e 0.309 0.492 0.795 1. 0 
O3 O2- 4 e 0.476 0.316 0.232 1. 0 
O4 O2- 4 e 0.217 0.342 0.464 1. 0 
O5 O2- 4 e 0.185 0.296 0.935 1. 0 
O6 O2- 4 e 0.245 0.111 0.007 1. 0 
O7 O2- 4 e 0.265 0.148 0.54 1. 0 

#End of data_20100-ICSD


