data_187804-ICSD
#?2014 by Fachinformationszentrum Karlsruhe, and the U.S. Secretary of 
#Commerce on behalf of the United States.  All rights reserved.
_database_code_ICSD                187804
_audit_creation_date               2013/08/01
_chemical_name_systematic
;
Lithium Manganese Nickel Oxide (1/1.5/0.5/4)
;
_chemical_formula_structural       'Li Mn1.5 Ni0.5 O4'
_chemical_formula_sum              'Li1 Mn1.5 Ni0.5 O4'
_chemical_name_mineral             Spinel-(Li,Mn,Ni)
_publ_section_title
;
Influence of doping on the cation ordering and charge-discharge 
behavior of Li Mn1.5 Ni0.5-x Mx O4 (M = Cr, Fe, Co, and Ga) spinels 
between 5.0 and 2.0 V
;
loop_
_citation_id
_citation_journal_abbrev
_citation_year
_citation_journal_volume
_citation_journal_issue
_citation_page_first
_citation_page_last
_citation_journal_id_ASTM
primary 'Journal of Materials Chemistry A' 2013 1 9 3118 3126 JMCAET
_publ_author_name                  'Eun-Sung Lee;Arumugam Manthiram'
_cell_length_a                     8.1733(1)
_cell_length_b                     8.1733(1)
_cell_length_c                     8.1733(1)
_cell_angle_alpha                  90.
_cell_angle_beta                   90.
_cell_angle_gamma                  90.
_cell_volume                       546
_cell_formula_units_Z              8
_symmetry_space_group_name_H-M     'P 43 3 2'
_symmetry_Int_Tables_number        212
loop_
_symmetry_equiv_pos_site_id
_symmetry_equiv_pos_as_xyz
  1	'z+.25, y+.75, -x+.75'
  2	'-z+.75, y+.25, x+.75'
  3	'y+.25, x+.75, -z+.75'
  4	'-y+.75, x+.25, z+.75'
  5	'x+.25, z+.75, -y+.75'
  6	'-x+.75, z+.25, y+.75'
  7	'z+.75, -y+.75, x+.25'
  8	'-z+.25, -y+.25, -x+.25'
  9	'y+.75, -x+.75, z+.25'
 10	'-y+.25, -x+.25, -z+.25'
 11	'x+.75, -z+.75, y+.25'
 12	'-x+.25, -z+.25, -y+.25'
 13	'-y+.5, -z, x+.5'
 14	'-y, z+.5, -x+.5'
 15	'y+.5, -z+.5, -x'
 16	'y, z, x'
 17	'z+.5, -x+.5, -y'
 18	'-z+.5, -x, y+.5'
 19	'-z, x+.5, -y+.5'
 20	'z, x, y'
 21	'-x+.5, -y, z+.5'
 22	'-x, y+.5, -z+.5'
 23	'x+.5, -y+.5, -z'
 24	'x, y, z'
loop_
_atom_type_symbol
_atom_type_oxidation_number
Li1+	1
Mn4+	4
Ni2+	2
O2-	-2
loop_
_atom_site_label
_atom_site_type_symbol
_atom_site_symmetry_multiplicity
_atom_site_Wyckoff_symbol
_atom_site_fract_x
_atom_site_fract_y
_atom_site_fract_z
_atom_site_occupancy
_atom_site_attached_hydrogens
Li1 Li1+ 8 c 0.01 0.01 0.01 1. 0 
Ni1 Ni2+ 4 b 0.625 0.625 0.625 1. 0 
Mn1 Mn4+ 12 d 0.125 0.380 0.870 1. 0 
O1 O2- 8 c 0.385 0.385 0.385 1. 0 
O2 O2- 24 e 0.147 -0.142 0.126 1. 0 

#End of data_187804-ICSD


