data_413300-ICSD
#?2014 by Fachinformationszentrum Karlsruhe, and the U.S. Secretary of 
#Commerce on behalf of the United States.  All rights reserved.
_database_code_ICSD                413300
_audit_creation_date               2004/10/01
_chemical_name_systematic
;
Disilver(I) Mercury Sulfide Diiodide
;
_chemical_formula_structural       'Ag2 Hg S I2'
_chemical_formula_sum              'Ag2 Hg1 I2 S1'
_publ_section_title
;
Ueber Muenzmetall-Quecksilber-Chalkogenidhalogenide.III. Zur 
Kristallstruktur von Ag2 Hg S I2
;
loop_
_citation_id
_citation_journal_abbrev
_citation_year
_citation_journal_volume
_citation_page_first
_citation_page_last
_citation_journal_id_ASTM
primary 'Zeitschrift fuer Anorganische und Allgemeine Chemie (1950) (DE)'
 2003 629 2337 2340 ZAACAB
_publ_author_name                  'Keller, H.L.;Wimbert, L.'
_cell_length_a                     13.8435(6)
_cell_length_b                     7.46972(33)
_cell_length_c                     7.10288(30)
_cell_angle_alpha                  90.
_cell_angle_beta                   90.
_cell_angle_gamma                  90.
_cell_volume                       734.49
_cell_formula_units_Z              4
_symmetry_space_group_name_H-M     'C m c 21'
_symmetry_Int_Tables_number        36
_refine_ls_R_factor_all            .0567
loop_
_symmetry_equiv_pos_site_id
_symmetry_equiv_pos_as_xyz
  1	'x, -y, z+.5'
  2	'-x, -y, z+.5'
  3	'-x, y, z'
  4	'x, y, z'
  5	'x+.5, -y+.5, z+.5'
  6	'-x+.5, -y+.5, z+.5'
  7	'-x+.5, y+.5, z'
  8	'x+.5, y+.5, z'
loop_
_atom_type_symbol
_atom_type_oxidation_number
Ag1+	1
Hg2+	2
I1-	-1
S2-	-2
loop_
_atom_site_label
_atom_site_type_symbol
_atom_site_symmetry_multiplicity
_atom_site_Wyckoff_symbol
_atom_site_fract_x
_atom_site_fract_y
_atom_site_fract_z
_atom_site_occupancy
_atom_site_attached_hydrogens
_atom_site_U_iso_or_equiv
Hg1 Hg2+ 4 a 0.5 0.5160(7) 0.918(1) 1. 0 0.0406 
I1 I1- 8 b 0.1524(3) 0.2841(4) 0.677(1) 1. 0 0.0351 
Ag1 Ag1+ 8 b 0.3361(4) 0.1607(5) 0.7661(9) 1. 0 0.05312 
S1 S2- 4 a 0.5 0.274(2) 0.670(3) 1. 0 0.02484 

#End of data_413300-ICSD


