data_50939-ICSD
#?2014 by Fachinformationszentrum Karlsruhe, and the U.S. Secretary of 
#Commerce on behalf of the United States.  All rights reserved.
_database_code_ICSD                50939
_audit_creation_date               2000/12/16
_audit_update_record               2012/08/01
_chemical_name_systematic          'Bismuth Dicalcium Vanadate(V)'
_chemical_formula_structural       'Bi Ca2 (V O6)'
_chemical_formula_sum              'Bi1 Ca2 O6 V1'
_publ_section_title
;
Synthesis and structure of Bi Ca2 V O6
;
loop_
_citation_id
_citation_journal_abbrev
_citation_year
_citation_journal_volume
_citation_page_first
_citation_page_last
_citation_journal_id_ASTM
primary 'Journal of Solid State Chemistry' 1998 137 143 147 JSSCBI
_publ_author_name
;
Radosavljevic, I.;Evans, J.S.O.;Sleight, A.W.
;
_cell_length_a                     8.8946(3)
_cell_length_b                     11.9663(4)
_cell_length_c                     5.5445(2)
_cell_angle_alpha                  90.
_cell_angle_beta                   90.
_cell_angle_gamma                  90.
_cell_volume                       590.13
_cell_formula_units_Z              4
_symmetry_space_group_name_H-M     'C m c 21'
_symmetry_Int_Tables_number        36
_refine_ls_R_factor_all            .0939
loop_
_symmetry_equiv_pos_site_id
_symmetry_equiv_pos_as_xyz
  1	'x, -y, z+.5'
  2	'-x, -y, z+.5'
  3	'-x, y, z'
  4	'x, y, z'
  5	'x+.5, -y+.5, z+.5'
  6	'-x+.5, -y+.5, z+.5'
  7	'-x+.5, y+.5, z'
  8	'x+.5, y+.5, z'
loop_
_atom_type_symbol
_atom_type_oxidation_number
Bi3+	3
Ca2+	2
O2-	-2
V5+	5
loop_
_atom_site_label
_atom_site_type_symbol
_atom_site_symmetry_multiplicity
_atom_site_Wyckoff_symbol
_atom_site_fract_x
_atom_site_fract_y
_atom_site_fract_z
_atom_site_occupancy
_atom_site_attached_hydrogens
_atom_site_U_iso_or_equiv
Bi1 Bi3+ 4 a 0.5 0.0894(6) 0.25 1. 0 0.00998(87) 
V1 V5+ 4 a 0 0.181(2) 0.199(4) 1. 0 0.0126(9) 
Ca1 Ca2+ 8 b 0.2999(4) 0.3927(3) 0.242(1) 1. 0 0.017(1) 
O1 O2- 8 b 0.3492(4) 0.9970(3) 0.492(1) 1. 0 0.0108(8) 
O2 O2- 4 a 0 0.8168(3) 0.005(1) 1. 0 0.001(9) 
O3 O2- 4 a 0 0.9481(4) 0.568(1) 1. 0 0.013(1) 
O4 O2- 8 b 0.1548(4) 0.2472(3) 0.079(1) 1. 0 0.0126(8) 

#End of data_50939-ICSD


