data_249567-ICSD
#?2014 by Fachinformationszentrum Karlsruhe, and the U.S. Secretary of 
#Commerce on behalf of the United States.  All rights reserved.
_database_code_ICSD                249567
_audit_creation_date               2008/08/01
_chemical_name_systematic          'Sodium Magnesium Borate'
_chemical_formula_structural       'Na Mg (B O3)'
_chemical_formula_sum              'B1 Mg1 Na1 O3'
_publ_section_title
;
Structure determination of novel orthoborate Na Mg B O3: A promising 
birefringent crystal
;
loop_
_citation_id
_citation_journal_abbrev
_citation_year
_citation_journal_volume
_citation_journal_issue
_citation_page_first
_citation_page_last
_citation_journal_id_ASTM
primary 'Inorganic Chemistry' 2007 46 13 5207 5211 INOCAJ
_publ_author_name
;
Wu, L.;Zhang, Y.;Kong, Y.-F.;Sun, T.Q.;Xu, J.-J.;Chen, X.-L.
;
_cell_length_a                     5.01313(6)
_cell_length_b                     8.8007(1)
_cell_length_c                     5.52831(7)
_cell_angle_alpha                  90.00
_cell_angle_beta                   99.6962(6)
_cell_angle_gamma                  90.00
_cell_volume                       240.42
_cell_formula_units_Z              4
_symmetry_space_group_name_H-M     'C 1 2/c 1'
_symmetry_Int_Tables_number        15
_refine_ls_R_factor_all            .0257
loop_
_symmetry_equiv_pos_site_id
_symmetry_equiv_pos_as_xyz
  1	'x, -y, z+.5'
  2	'-x, -y, -z'
  3	'-x, y, -z+.5'
  4	'x, y, z'
  5	'x+.5, -y+.5, z+.5'
  6	'-x+.5, -y+.5, -z'
  7	'-x+.5, y+.5, -z+.5'
  8	'x+.5, y+.5, z'
loop_
_atom_type_symbol
_atom_type_oxidation_number
B3+	3
Mg2+	2
Na1+	1
O2-	-2
loop_
_atom_site_label
_atom_site_type_symbol
_atom_site_symmetry_multiplicity
_atom_site_Wyckoff_symbol
_atom_site_fract_x
_atom_site_fract_y
_atom_site_fract_z
_atom_site_occupancy
_atom_site_attached_hydrogens
_atom_site_U_iso_or_equiv
Mg1 Mg2+ 4 a 0 0 0 1 0 0.0080(1) 
Na1 Na1+ 4 e 0 0.33600(6) 0.25 1 0 0.0135(1) 
O1 O2- 8 f 0.22659(7) 0.58874(3) 0.20604(7) 1 0 0.0098(1) 
O2 O2- 4 e 0 -0.17940(6) 0.25 1 0 0.0103(1) 
B1 B3+ 4 e 0 -0.3302(1) 0.25 1 0 0.0149(2) 

#End of data_249567-ICSD


