data_250266-ICSD
#?2014 by Fachinformationszentrum Karlsruhe, and the U.S. Secretary of 
#Commerce on behalf of the United States.  All rights reserved.
_database_code_ICSD                250266
_audit_creation_date               2005/10/01
_chemical_name_systematic          'Potassium Dilead Bromide'
_chemical_formula_structural       'K Pb2 Br5'
_chemical_formula_sum              'Br5 K1 Pb2'
_publ_section_title
;
Single crystal study of K Pb2 Cl5 and K Pb2 Br5
;
loop_
_citation_id
_citation_journal_abbrev
_citation_year
_citation_journal_volume
_citation_page_first
_citation_page_last
_citation_journal_id_ASTM
primary 'Zhurnal Strukturnoi Khimii (Issue-No. from 1981)'
 2005 46 106 110 ZSTKAI
_publ_author_name
;
Merkulov, A.A.;Isaenko, L.I.;Pashkov, V.M.;Mazur, V.G.;Virovets, 
A.V.;Naumov, D.Yu.
;
_cell_length_a                     9.256(2)
_cell_length_b                     8.365(2)
_cell_length_c                     13.025(3)
_cell_angle_alpha                  90
_cell_angle_beta                   90.00(3)
_cell_angle_gamma                  90
_cell_volume                       1008.48
_cell_formula_units_Z              4
_symmetry_space_group_name_H-M     'P 1 21/c 1'
_symmetry_Int_Tables_number        14
_refine_ls_R_factor_all            .0692
loop_
_symmetry_equiv_pos_site_id
_symmetry_equiv_pos_as_xyz
  1	'x, -y+.5, z+.5'
  2	'-x, -y, -z'
  3	'-x, y+.5, -z+.5'
  4	'x, y, z'
loop_
_atom_type_symbol
_atom_type_oxidation_number
Br1-	-1
K1+	1
Pb2+	2
loop_
_atom_site_label
_atom_site_type_symbol
_atom_site_symmetry_multiplicity
_atom_site_Wyckoff_symbol
_atom_site_fract_x
_atom_site_fract_y
_atom_site_fract_z
_atom_site_occupancy
_atom_site_attached_hydrogens
_atom_site_U_iso_or_equiv
K1 K1+ 4 e 0.5099(6) 0.0542(6) 0.1692(5) 1. 0 0.044(1) 
Pb1 Pb2+ 4 e 0.0108(1) 0.0025(1) 0.1750(1) 1. 0 0.035(1) 
Pb2 Pb2+ 4 e 0.2559(1) 0.4329(1) 0.9937(1) 1. 0 0.030(1) 
Br1 Br1- 4 e 0.9578(2) 0.1648(2) 0.4022(2) 1. 0 0.027(1) 
Br2 Br1- 4 e 0.2220(2) 0.0391(2) 0.9981(2) 1. 0 0.029(1) 
Br3 Br1- 4 e 0.5419(2) 0.1819(2) 0.4210(2) 1. 0 0.035(1) 
Br4 Br1- 4 e 0.2366(2) 0.3130(2) 0.2199(2) 1. 0 0.030(1) 
Br5 Br1- 4 e 0.7677(3) 0.3463(2) 0.1881(2) 1. 0 0.037(1) 

loop_
_atom_site_aniso_label
_atom_site_aniso_type_symbol
_atom_site_aniso_U_11
_atom_site_aniso_U_22
_atom_site_aniso_U_33
_atom_site_aniso_U_12
_atom_site_aniso_U_13
_atom_site_aniso_U_23
K1 K1+ 0.049(3) 0.033(2) 0.048(3) 0.003(2) 0.000(1) -0.003(2)
Pb1 Pb2+ 0.040 0.033 0.033 -0.003 0.000 0.003
Pb2 Pb2+ 0.030 0.032 0.029 0.001 -0.001 0.002
Br1 Br1- 0.029(1) 0.021(1) 0.031(1) -0.002(1) 0.002(1) 0.005(1)
Br2 Br1- 0.034(1) 0.026(1) 0.026(1) 0.000(1) 0.002(1) 0.001(1)
Br3 Br1- 0.028(1) 0.031(1) 0.046(1) 0.001(1) 0.003(1) 0.013(1)
Br4 Br1- 0.036(2) 0.028(1) 0.027(1) 0.003(1) 0.000(1) -0.001(1)
Br5 Br1- 0.048(2) 0.032(2) 0.029(1) -0.010(2) -0.009(1) 0.007(1)
#End of data_250266-ICSD


