data_47141-ICSD
#?2014 by Fachinformationszentrum Karlsruhe, and the U.S. Secretary of 
#Commerce on behalf of the United States.  All rights reserved.
_database_code_ICSD                47141
_audit_creation_date               1985/06/11
_chemical_name_systematic          'Potassium Tetrabromoindate'
_chemical_formula_structural       'K (In Br4)'
_chemical_formula_sum              'Br4 In1 K1'
_publ_section_title
;
Potassium Tetrabromoindate(III), K (In Br4)
;
loop_
_citation_id
_citation_journal_abbrev
_citation_year
_citation_journal_volume
_citation_page_first
_citation_page_last
_citation_journal_id_ASTM
primary 'Acta Crystallographica, Section C: Crystal Structure Communications'
 1984 40 2006 2007 ACSCEE
_publ_author_name
;
Wignacourt, J.P.;Mairesse, G.;Abraham, F.
;
_cell_length_a                     7.891(12)
_cell_length_b                     10.390(5)
_cell_length_c                     10.390(5)
_cell_angle_alpha                  90.
_cell_angle_beta                   90.
_cell_angle_gamma                  90.
_cell_volume                       851.85
_cell_formula_units_Z              4
_symmetry_space_group_name_H-M     'P n n a'
_symmetry_Int_Tables_number        52
_refine_ls_R_factor_all            .052
loop_
_symmetry_equiv_pos_site_id
_symmetry_equiv_pos_as_xyz
  1	'x+.5, -y+.5, z+.5'
  2	'-x, y+.5, z+.5'
  3	'x+.5, y, -z'
  4	'-x, -y, -z'
  5	'-x+.5, y+.5, -z+.5'
  6	'x, -y+.5, -z+.5'
  7	'-x+.5, -y, z'
  8	'x, y, z'
loop_
_atom_type_symbol
_atom_type_oxidation_number
Br1-	-1
In3+	3
K1+	1
loop_
_atom_site_label
_atom_site_type_symbol
_atom_site_symmetry_multiplicity
_atom_site_Wyckoff_symbol
_atom_site_fract_x
_atom_site_fract_y
_atom_site_fract_z
_atom_site_occupancy
_atom_site_attached_hydrogens
In1 In3+ 4 c 0.25 0 0.1808(1) 1. 0 
Br1 Br1- 8 e 0.3428(2) 0.1875(2) 0.0486(2) 1. 0 
Br2 Br1- 8 e -.0018(2) 0.0544(1) 0.3197(2) 1. 0 
K1 K1+ 4 d 0.6792(6) 0.25 0.25 1. 0 

#End of data_47141-ICSD


