data_201729-ICSD
#?2014 by Fachinformationszentrum Karlsruhe, and the U.S. Secretary of 
#Commerce on behalf of the United States.  All rights reserved.
_database_code_ICSD                201729
_audit_creation_date               1986/12/03
_audit_update_record               2010/02/01
_chemical_name_systematic          'Calcium Trimagnesium Carbonate'
_chemical_formula_structural       'Ca Mg3 (C O3)4'
_chemical_formula_sum              'C4 Ca1 Mg3 O12'
_chemical_name_mineral             Huntite
_publ_section_title
;
Crystal structure refinement of Huntite Ca Mg3 (C O3)4 with X-ray 
powder data
;
loop_
_citation_id
_citation_journal_abbrev
_citation_year
_citation_journal_volume
_citation_page_first
_citation_page_last
_citation_journal_id_ASTM
primary 'American Mineralogist' 1986 71 163 166 AMMIAY
_publ_author_name                  'Dollase, W.A.;Reeder, R.J.'
_cell_length_a                     9.5027(6)
_cell_length_b                     9.5027(6)
_cell_length_c                     7.8212(6)
_cell_angle_alpha                  90.
_cell_angle_beta                   90.
_cell_angle_gamma                  120.
_cell_volume                       611.64
_cell_formula_units_Z              3
_symmetry_space_group_name_H-M     'R 3 2 H'
_symmetry_Int_Tables_number        155
_refine_ls_R_factor_all            .053
loop_
_symmetry_equiv_pos_site_id
_symmetry_equiv_pos_as_xyz
  1	'-x, -x+y, -z'
  2	'x-y, -y, -z'
  3	'y, x, -z'
  4	'-x+y, -x, z'
  5	'-y, x-y, z'
  6	'x, y, z'
  7	'-x+.6666, -x+y+.3333, -z+.3333'
  8	'-x+.3333, -x+y+.6666, -z+.6666'
  9	'x-y+.6666, -y+.3333, -z+.3333'
 10	'x-y+.3333, -y+.6666, -z+.6666'
 11	'y+.6666, x+.3333, -z+.3333'
 12	'y+.3333, x+.6666, -z+.6666'
 13	'-x+y+.6666, -x+.3333, z+.3333'
 14	'-x+y+.3333, -x+.6666, z+.6666'
 15	'-y+.6666, x-y+.3333, z+.3333'
 16	'-y+.3333, x-y+.6666, z+.6666'
 17	'x+.6666, y+.3333, z+.3333'
 18	'x+.3333, y+.6666, z+.6666'
loop_
_atom_type_symbol
_atom_type_oxidation_number
C4+	4
Ca2+	2
Mg2+	2
O2-	-2
loop_
_atom_site_label
_atom_site_type_symbol
_atom_site_symmetry_multiplicity
_atom_site_Wyckoff_symbol
_atom_site_fract_x
_atom_site_fract_y
_atom_site_fract_z
_atom_site_occupancy
_atom_site_attached_hydrogens
_atom_site_B_iso_or_equiv
Ca1 Ca2+ 3 a 0 0 0 1. 0 0.94(7) 
Mg1 Mg2+ 9 d 0.5443(7) 0 0 1. 0 0.94(7) 
C1 C4+ 3 b 0 0 0.5 1. 0 0.94(7) 
C2 C4+ 9 e 0.4535(20) 0 0.5 1. 0 0.94(7) 
O1 O2- 9 e 0.8663(15) 0 0.5 1. 0 0.94(7) 
O2 O2- 9 e 0.5895(13) 0 0.5 1. 0 0.94(7) 
O3 O2- 18 f 0.4569(11) 0.1355(12) 0.5161(11) 1. 0 0.94(7) 

#End of data_201729-ICSD


