data_100298-ICSD
#?2014 by Fachinformationszentrum Karlsruhe, and the U.S. Secretary of 
#Commerce on behalf of the United States.  All rights reserved.
_database_code_ICSD                100298
_audit_creation_date               1980/12/31
_audit_update_record               1990/05/24
_chemical_name_systematic          'Potassium Tetrafluorozincate'
_chemical_formula_structural       'K2 Zn F4'
_chemical_formula_sum              'F4 K2 Zn1'
_publ_section_title
;
Verfeinerung der Kristallstrukturen von K2 Zn F4 und K3 Zn2 F7
;
loop_
_citation_id
_citation_journal_abbrev
_citation_year
_citation_journal_volume
_citation_page_first
_citation_page_last
_citation_journal_id_ASTM
primary 'Zeitschrift fuer Kristallographie (1979-2010)' 1980 153 189 199 ZEKRDZ
2 'Zeitschrift fuer Elektrochemie' 1955 59 545 551 ZEELAI
3 'Heidelberger Beitraege zur Mineralogie und Petrographie (Berlin)'
 1954 4 6 11 HEIDAK
_publ_author_name                  'Herdtweck, E.;Babel, D.'
_cell_length_a                     4.058(2)
_cell_length_b                     4.058(2)
_cell_length_c                     13.109(3)
_cell_angle_alpha                  90.
_cell_angle_beta                   90.
_cell_angle_gamma                  90.
_cell_volume                       215.87
_cell_formula_units_Z              2
_symmetry_space_group_name_H-M     'I 4/m m m'
_symmetry_Int_Tables_number        139
_refine_ls_R_factor_all            .026
loop_
_symmetry_equiv_pos_site_id
_symmetry_equiv_pos_as_xyz
  1	'y, x, -z'
  2	'-y, -x, -z'
  3	'-y, x, -z'
  4	'y, -x, -z'
  5	'-x, y, -z'
  6	'x, -y, -z'
  7	'x, y, -z'
  8	'-x, -y, -z'
  9	'-y, -x, z'
 10	'y, x, z'
 11	'y, -x, z'
 12	'-y, x, z'
 13	'x, -y, z'
 14	'-x, y, z'
 15	'-x, -y, z'
 16	'x, y, z'
 17	'y+.5, x+.5, -z+.5'
 18	'-y+.5, -x+.5, -z+.5'
 19	'-y+.5, x+.5, -z+.5'
 20	'y+.5, -x+.5, -z+.5'
 21	'-x+.5, y+.5, -z+.5'
 22	'x+.5, -y+.5, -z+.5'
 23	'x+.5, y+.5, -z+.5'
 24	'-x+.5, -y+.5, -z+.5'
 25	'-y+.5, -x+.5, z+.5'
 26	'y+.5, x+.5, z+.5'
 27	'y+.5, -x+.5, z+.5'
 28	'-y+.5, x+.5, z+.5'
 29	'x+.5, -y+.5, z+.5'
 30	'-x+.5, y+.5, z+.5'
 31	'-x+.5, -y+.5, z+.5'
 32	'x+.5, y+.5, z+.5'
loop_
_atom_type_symbol
_atom_type_oxidation_number
F1-	-1
K1+	1
Zn2+	2
loop_
_atom_site_label
_atom_site_type_symbol
_atom_site_symmetry_multiplicity
_atom_site_Wyckoff_symbol
_atom_site_fract_x
_atom_site_fract_y
_atom_site_fract_z
_atom_site_occupancy
_atom_site_attached_hydrogens
K1 K1+ 4 e 0 0 0.3538(1) 1. 0 
Zn1 Zn2+ 2 a 0 0 0 1. 0 
F1 F1- 4 e 0 0 0.1546(1) 1. 0 
F2 F1- 4 c 0.5 0 0 1. 0 

loop_
_atom_site_aniso_label
_atom_site_aniso_type_symbol
_atom_site_aniso_B_11
_atom_site_aniso_B_22
_atom_site_aniso_B_33
_atom_site_aniso_B_12
_atom_site_aniso_B_13
_atom_site_aniso_B_23
K1 K1+ 1.37(2) 1.37(2) 0.87(2) 0 0 0
Zn1 Zn2+ 0.50(1) 0.50(1) 0.67(2) 0 0 0
F1 F1- 1.70(5) 1.70(5) 0.73(5) 0 0 0
F2 F1- 0.62(4) 1.41(6) 1.51(6) 0 0 0
#End of data_100298-ICSD


