data_9896-ICSD
#?2014 by Fachinformationszentrum Karlsruhe, and the U.S. Secretary of 
#Commerce on behalf of the United States.  All rights reserved.
_database_code_ICSD                9896
_audit_creation_date               1986/09/30
_audit_update_record               2007/04/01
_chemical_name_systematic
;
Potassium Tetrahydrogenpentafluoride
;
_chemical_formula_structural       'K (H4 F5)'
_chemical_formula_sum              'H4 F5 K1'
_publ_section_title
;
The structure of potassium tetrahydrogen pentafluoride
;
loop_
_citation_id
_citation_journal_abbrev
_citation_year
_citation_journal_volume
_citation_page_first
_citation_page_last
_citation_journal_id_ASTM
primary 'Journal of Solid State Chemistry' 1970 1 386 393 JSSCBI
_publ_author_name
;
Coyle, B.A.;Schroeder, L.W.;Ibers, J.A.
;
_cell_length_a                     6.384(3)
_cell_length_b                     6.384(3)
_cell_length_c                     13.227(7)
_cell_angle_alpha                  90.
_cell_angle_beta                   90.
_cell_angle_gamma                  90.
_cell_volume                       539.07
_cell_formula_units_Z              4
_symmetry_space_group_name_H-M     'I 41/a Z'
_symmetry_Int_Tables_number        88
_refine_ls_R_factor_all            .062
loop_
_symmetry_equiv_pos_site_id
_symmetry_equiv_pos_as_xyz
  1	'-y+.75, x+.75, -z+.75'
  2	'y+.25, -x+.75, -z+.75'
  3	'x, y+.5, -z'
  4	'-x, -y, -z'
  5	'y+.25, -x+.25, z+.25'
  6	'-y+.75, x+.25, z+.25'
  7	'-x, -y+.5, z'
  8	'x, y, z'
  9	'-y+.25, x+.25, -z+.25'
 10	'y+.75, -x+.25, -z+.25'
 11	'x+.5, y, -z+.5'
 12	'-x+.5, -y+.5, -z+.5'
 13	'y+.75, -x+.75, z+.75'
 14	'-y+.25, x+.75, z+.75'
 15	'-x+.5, -y, z+.5'
 16	'x+.5, y+.5, z+.5'
loop_
_atom_type_symbol
_atom_type_oxidation_number
F1-	-1
H1+	1
K1+	1
loop_
_atom_site_label
_atom_site_type_symbol
_atom_site_symmetry_multiplicity
_atom_site_Wyckoff_symbol
_atom_site_fract_x
_atom_site_fract_y
_atom_site_fract_z
_atom_site_occupancy
_atom_site_attached_hydrogens
_atom_site_B_iso_or_equiv
K1 K1+ 4 a 0 0.25 0.125 1. 0 0 
H1 H1+ 16 f 0.13(1) 0.45(1) -.309(3) 1. 0 12. 
F1 F1- 4 b 0 0.25 0.625 1. 0 0 
F2 F1- 16 f 0.1837(4) 0.0249(4) 0.2805(2) 1. 0 0 

#End of data_9896-ICSD


