data_85761-ICSD
#?2014 by Fachinformationszentrum Karlsruhe, and the U.S. Secretary of 
#Commerce on behalf of the United States.  All rights reserved.
_database_code_ICSD                85761
_audit_creation_date               1999/11/30
_chemical_name_systematic
;
Potassium Tris(thiocyanato)mercurate
;
_chemical_formula_structural       'K (Hg (S C N)3)'
_chemical_formula_sum              'C3 Hg1 K1 N3 S3'
_publ_section_title
;
Solid-state (199)Hg MAS NMR studies of mercury(II) thiocyanate and 
related compounds. Crystal structure of Hg (Se C N)2
;
loop_
_citation_id
_citation_journal_abbrev
_citation_year
_citation_journal_volume
_citation_page_first
_citation_page_last
_citation_journal_id_ASTM
primary 'Inorganic Chemistry' 1998 37 1734 1743 INOCAJ
_publ_author_name
;
Bowmaker, G.A.;Churakov, A.V.;Harris, R.K.;Howard, J.A.K.;Apperley, 
D.C.
;
_cell_length_a                     11.9119(3)
_cell_length_b                     4.0201(1)
_cell_length_c                     18.70949(30)
_cell_angle_alpha                  90.
_cell_angle_beta                   91.852(1)
_cell_angle_gamma                  90.
_cell_volume                       895.47
_cell_formula_units_Z              4
_symmetry_space_group_name_H-M     'P 1 21/n 1'
_symmetry_Int_Tables_number        14
_refine_ls_R_factor_all            .022
loop_
_symmetry_equiv_pos_site_id
_symmetry_equiv_pos_as_xyz
  1	'-x+.5, y+.5, -z+.5'
  2	'-x, -y, -z'
  3	'x+.5, -y+.5, z+.5'
  4	'x, y, z'
loop_
_atom_type_symbol
_atom_type_oxidation_number
C4+	4
Hg2+	2
K1+	1
N3-	-3
S2-	-2
loop_
_atom_site_label
_atom_site_type_symbol
_atom_site_symmetry_multiplicity
_atom_site_Wyckoff_symbol
_atom_site_fract_x
_atom_site_fract_y
_atom_site_fract_z
_atom_site_occupancy
_atom_site_attached_hydrogens
_atom_site_U_iso_or_equiv
Hg1 Hg2+ 4 e 0.6844(1) 0.2103(1) 0.5396(1) 1. 0 0.011(1) 
K1 K1+ 4 e 0.9046(1) 0.7107(2) 0.3101(1) 1. 0 0.011(1) 
S1 S2- 4 e 0.7266(1) 0.1569(3) 0.6663(1) 1. 0 0.015(1) 
C1 C4+ 4 e 0.5997(4) 0.2481(9) 0.6984(2) 1. 0 0.013(1) 
N1 N3- 4 e 0.5142(4) 0.3039(9) 0.7235(2) 1. 0 0.017(1) 
S2 S2- 4 e 0.8193(1) 0.7163(2) 0.4898(1) 1. 0 0.009(1) 
C2 C4+ 4 e 0.9153(4) 0.7580(9) 0.5563(2) 1. 0 0.010(1) 
N2 N3- 4 e 0.9819(3) 0.7864(9) 0.6024(2) 1. 0 0.018(1) 
S3 S2- 4 e 0.5582(1) 0.2654(2) 0.4339(1) 1. 0 0.011(1) 
C3 C4+ 4 e 0.6581(4) 0.2325(9) 0.3723(2) 1. 0 0.010(1) 
N3 N3- 4 e 0.7264(3) 0.2078(9) 0.3304(2) 1. 0 0.014(1) 

#End of data_85761-ICSD


