data_159565-ICSD
#?2014 by Fachinformationszentrum Karlsruhe, and the U.S. Secretary of 
#Commerce on behalf of the United States.  All rights reserved.
_database_code_ICSD                159565
_audit_creation_date               2008/08/01
_chemical_name_systematic          'Magnesium Catena-silicate'
_chemical_formula_structural       'Mg (Si O3)'
_chemical_formula_sum              'Mg1 O3 Si1'
_chemical_name_mineral             Protoenstatite
_publ_section_title
;
Model pyroxenes II: Structural variation as a function of tetrahedral 
rotation
;
loop_
_citation_id
_citation_journal_abbrev
_citation_year
_citation_journal_volume
_citation_page_first
_citation_page_last
_citation_journal_id_ASTM
primary 'American Mineralogist' 2004 89 614 628 AMMIAY
_publ_author_name                  'Thompson, R.M.;Downs, R.T.'
_cell_length_a                     9.154
_cell_length_b                     8.981
_cell_length_c                     5.185
_cell_angle_alpha                  90
_cell_angle_beta                   90
_cell_angle_gamma                  90
_cell_volume                       426.27
_cell_formula_units_Z              8
_symmetry_space_group_name_H-M     'P b c n'
_symmetry_Int_Tables_number        60
loop_
_symmetry_equiv_pos_site_id
_symmetry_equiv_pos_as_xyz
  1	'x, -y, z+.5'
  2	'-x+.5, y+.5, z'
  3	'x+.5, y+.5, -z+.5'
  4	'-x, -y, -z'
  5	'-x, y, -z+.5'
  6	'x+.5, -y+.5, -z'
  7	'-x+.5, -y+.5, z+.5'
  8	'x, y, z'
loop_
_atom_type_symbol
_atom_type_oxidation_number
Mg2+	2
O2-	-2
Si4+	4
loop_
_atom_site_label
_atom_site_type_symbol
_atom_site_symmetry_multiplicity
_atom_site_Wyckoff_symbol
_atom_site_fract_x
_atom_site_fract_y
_atom_site_fract_z
_atom_site_occupancy
_atom_site_attached_hydrogens
Mg1 Mg2+ 4 c 0.00000 0.08333 0.75000 1. 0 
Mg2 Mg2+ 4 c 0.00000 0.25000 0.25000 1. 0 
Si1 Si4+ 8 d 0.30820 0.08333 0.08333 1. 0 
O1 O2- 8 d 0.13350 0.08333 0.08333 1. 0 
O2 O2- 8 d 0.36650 0.25000 0.11910 1. 0 
O3 O2- 8 d 0.36650 -0.01790 0.31550 1. 0 

#End of data_159565-ICSD


