data_161016-ICSD
#?2014 by Fachinformationszentrum Karlsruhe, and the U.S. Secretary of 
#Commerce on behalf of the United States.  All rights reserved.
_database_code_ICSD                161016
_audit_creation_date               2009/02/01
_chemical_name_systematic
;
Potassium Lanthanum Cyclo-tetraphosphate(V)
;
_chemical_formula_structural       'K La (P4 O12)'
_chemical_formula_sum              'K1 La1 O12 P4'
_publ_section_title
;
Synthesis, X-ray diffraction study and physico-chemical 
characterizations of K La P4 O12
;
loop_
_citation_id
_citation_journal_abbrev
_citation_year
_citation_journal_volume
_citation_page_first
_citation_page_last
_citation_journal_id_ASTM
primary 'Materials Research Bulletin' 2008 43 2308 2317 MRBUAC
_publ_author_name                  'Belam, W.;Mechergui, J.'
_cell_length_a                     8.547(3)
_cell_length_b                     11.668(1)
_cell_length_c                     13.351(2)
_cell_angle_alpha                  90.
_cell_angle_beta                   90.
_cell_angle_gamma                  90.
_cell_volume                       1331.45
_cell_formula_units_Z              4
_symmetry_space_group_name_H-M     'C m c 21'
_symmetry_Int_Tables_number        36
_refine_ls_R_factor_all            .015
loop_
_symmetry_equiv_pos_site_id
_symmetry_equiv_pos_as_xyz
  1	'x, -y, z+.5'
  2	'-x, -y, z+.5'
  3	'-x, y, z'
  4	'x, y, z'
  5	'x+.5, -y+.5, z+.5'
  6	'-x+.5, -y+.5, z+.5'
  7	'-x+.5, y+.5, z'
  8	'x+.5, y+.5, z'
loop_
_atom_type_symbol
_atom_type_oxidation_number
K1+	1
La3+	3
O2-	-2
P5+	5
loop_
_atom_site_label
_atom_site_type_symbol
_atom_site_symmetry_multiplicity
_atom_site_Wyckoff_symbol
_atom_site_fract_x
_atom_site_fract_y
_atom_site_fract_z
_atom_site_occupancy
_atom_site_attached_hydrogens
_atom_site_U_iso_or_equiv
La1 La3+ 4 a 0.5 0.9044(1) 0.7508(1) 1. 0 0.007(1) 
K1 K1+ 4 a 0 0.8154(2) 0.7302(1) 1. 0 0.106(1) 
P1 P5+ 8 b 0.1604(1) 0.8844(1) 0.1575(1) 1. 0 0.020(1) 
P2 P5+ 8 b 0.1677(1) 0.9208(1) 0.9440(1) 1. 0 0.015(1) 
O1 O2- 8 b 0.2504(1) 0.0395(2) 0.9584(3) 1. 0 0.058(1) 
O2 O2- 4 a 0 0.9547(4) 0.9000(3) 1. 0 0.053(1) 
O3 O2- 8 b 0.2891(4) 0.8600(3) 0.8731(3) 1. 0 0.066(1) 
O4 O2- 8 b 0.1775(3) 0.8748(2) 0.0483(2) 1. 0 0.028(1) 
O5 O2- 8 b 0.3288(2) 0.7288(2) 0.7083(2) 1. 0 0.023(1) 
O6 O2- 4 a 0 0.0536(4) 0.6633(3) 1. 0 0.050(1) 
O7 O2- 8 b 0.7104(3) 0.0428(2) 0.7006(2) 1. 0 0.043(1) 

loop_
_atom_site_aniso_label
_atom_site_aniso_type_symbol
_atom_site_aniso_U_11
_atom_site_aniso_U_22
_atom_site_aniso_U_33
_atom_site_aniso_U_12
_atom_site_aniso_U_13
_atom_site_aniso_U_23
La1 La3+ 0.007(1) 0.007(1) 0.007(1) 0. 0. 0.000(1)
K1 K1+ 0.104(1) 0.106(2) 0.107(3) 0. 0. -0.002(2)
P1 P5+ 0.020(1) 0.020(1) 0.020(1) 0.000(1) 0.000(1) 0.000(1)
P2 P5+ 0.015(1) 0.015(1) 0.015(1) 0.000(1) 0.000(1) 0.000(1)
O1 O2- 0.057(2) 0.058(1) 0.058(1) 0.000(2) 0.000(2) 0.000(2)
O2 O2- 0.053(2) 0.053(2) 0.053(3) 0. 0. 0.000(2)
O3 O2- 0.066(3) 0.066(2) 0.067(2) -0.001(2) 0.000(2) 0.000(2)
O4 O2- 0.028(1) 0.027(1) 0.028(1) 0.000(1) 0.000(1) 0.000(1)
O5 O2- 0.023(1) 0.023(1) 0.023(1) 0.000(1) 0.000(1) 0.000(1)
O6 O2- 0.050(2) 0.050(2) 0.049(2) 0. 0. -0.001(2)
O7 O2- 0.043(2) 0.043(1) 0.043(1) 0.000(1) 0.000(1) 0.000(1)
#End of data_161016-ICSD


