data_50227-ICSD
#?2014 by Fachinformationszentrum Karlsruhe, and the U.S. Secretary of 
#Commerce on behalf of the United States.  All rights reserved.
_database_code_ICSD                50227
_audit_creation_date               1999/06/02
_chemical_name_systematic          'Barium Magnesium Fluoride'
_chemical_formula_structural       'Ba Mg F4'
_chemical_formula_sum              'Ba1 F4 Mg1'
_publ_section_title
;
Ba Mg F4 and Ba2 Mg3 F10: new examples for structural relationships 
between hydrides and fluorides
;
loop_
_citation_id
_citation_journal_abbrev
_citation_year
_citation_journal_volume
_citation_page_first
_citation_page_last
_citation_journal_id_ASTM
primary 'Zeitschrift fuer Anorganische und Allgemeine Chemie (1950) (DE)'
 1997 623 705 709 ZAACAB
_publ_author_name                  'Gingl, F.'
_cell_length_a                     4.126(1)
_cell_length_b                     14.518(4)
_cell_length_c                     5.821(2)
_cell_angle_alpha                  90.
_cell_angle_beta                   90.
_cell_angle_gamma                  90.
_cell_volume                       348.69
_cell_formula_units_Z              4
_symmetry_space_group_name_H-M     'C m c 21'
_symmetry_Int_Tables_number        36
_refine_ls_R_factor_all            .0148
loop_
_symmetry_equiv_pos_site_id
_symmetry_equiv_pos_as_xyz
  1	'x, -y, z+.5'
  2	'-x, -y, z+.5'
  3	'-x, y, z'
  4	'x, y, z'
  5	'x+.5, -y+.5, z+.5'
  6	'-x+.5, -y+.5, z+.5'
  7	'-x+.5, y+.5, z'
  8	'x+.5, y+.5, z'
loop_
_atom_type_symbol
_atom_type_oxidation_number
Ba2+	2
F1-	-1
Mg2+	2
loop_
_atom_site_label
_atom_site_type_symbol
_atom_site_symmetry_multiplicity
_atom_site_Wyckoff_symbol
_atom_site_fract_x
_atom_site_fract_y
_atom_site_fract_z
_atom_site_occupancy
_atom_site_attached_hydrogens
Ba1 Ba2+ 4 a 0 0.35166(1) 0.34622 1. 0 
Mg1 Mg2+ 4 a 0 0.08522(4) 0.3111(2) 1. 0 
F1 F1- 4 a 0 0.02437(8) 0.0000(2) 1. 0 
F2 F1- 4 a 0 0.1666(1) 0.5770(3) 1. 0 
F3 F1- 4 a 0 0.19618(9) 0.1134(3) 1. 0 
F4 F1- 4 a 0 0.57856(8) 0.3028(2) 1. 0 

loop_
_atom_site_aniso_label
_atom_site_aniso_type_symbol
_atom_site_aniso_U_11
_atom_site_aniso_U_22
_atom_site_aniso_U_33
_atom_site_aniso_U_12
_atom_site_aniso_U_13
_atom_site_aniso_U_23
Ba1 Ba2+ 0.00921(5) 0.02097(5) 0.01398(5) 0 0 -.00568
Mg1 Mg2+ 0.0137(3) 0.0116(2) 0.0068(6) 0 0 0.0007(2)
F1 F1- 0.0235(6) 0.0158(5) 0.0175(7) 0 0 -.0061
F2 F1- 0.0160(7) 0.0206(7) 0.0115(6) 0 0 -.004
F3 F1- 0.0215(8) 0.0131(6) 0.0158(6) 0 0 -.0002
F4 F1- 0.0148(5) 0.0301(6) 0.012(1) 0 0 0.0026(4)
#End of data_50227-ICSD


