data_402424-ICSD
#?2014 by Fachinformationszentrum Karlsruhe, and the U.S. Secretary of 
#Commerce on behalf of the United States.  All rights reserved.
_database_code_ICSD                402424
_audit_creation_date               1997/05/13
_chemical_name_systematic
;
Potassium Dicopper Vanadium(III) Sulfide
;
_chemical_formula_structural       'K Cu2 V S4'
_chemical_formula_sum              'Cu2 K1 S4 V1'
_publ_section_title
;
Crystal structure of potassium dicopper vanadium tetrasulfide, K Cu2 
V S4
;
loop_
_citation_id
_citation_journal_abbrev
_citation_year
_citation_journal_volume
_citation_page_first
_citation_page_last
_citation_journal_id_ASTM
primary 'Zeitschrift fuer Kristallographie (1979-2010)' 1996 211 933 933 ZEKRDZ
_publ_author_name
;
Bensch, W.;Duerichen, P.;Weidlich, C.
;
_cell_length_a                     7.340(1)
_cell_length_b                     17.8370(40)
_cell_length_c                     5.396(1)
_cell_angle_alpha                  90.
_cell_angle_beta                   90.
_cell_angle_gamma                  90.
_cell_volume                       706.46
_cell_formula_units_Z              4
_symmetry_space_group_name_H-M     'A m a 2'
_symmetry_Int_Tables_number        40
_refine_ls_R_factor_all            .0265
loop_
_symmetry_equiv_pos_site_id
_symmetry_equiv_pos_as_xyz
  1	'x+.5, -y, z'
  2	'-x+.5, y, z'
  3	'-x, -y, z'
  4	'x, y, z'
  5	'x+.5, -y+.5, z+.5'
  6	'-x+.5, y+.5, z+.5'
  7	'-x, -y+.5, z+.5'
  8	'x, y+.5, z+.5'
loop_
_atom_type_symbol
_atom_type_oxidation_number
Cu2+	2
K1+	1
S2-	-2
V3+	3
loop_
_atom_site_label
_atom_site_type_symbol
_atom_site_symmetry_multiplicity
_atom_site_Wyckoff_symbol
_atom_site_fract_x
_atom_site_fract_y
_atom_site_fract_z
_atom_site_occupancy
_atom_site_attached_hydrogens
V1 V3+ 4 b 0.25 0.11100(6) 0.2484 1. 0 
S1 S2- 4 b 0.25 0.00781(9) 0.01549(60) 1. 0 
S2 S2- 8 c 0.00547(18) 0.11163(8) 0.48258(52) 1. 0 
S3 S2- 4 b 0.25 0.20867(10) 0.01586(70) 1. 0 
K1 K1+ 4 b 0.25 -.18166(11) 0.00269(71) 1. 0 
Cu1 Cu2+ 4 a 0 0 0.27207(42) 1. 0 
Cu2 Cu2+ 4 b 0.25 0.10822(6) -.25253(41) 1. 0 

#End of data_402424-ICSD


