data_172340-ICSD
#?2014 by Fachinformationszentrum Karlsruhe, and the U.S. Secretary of 
#Commerce on behalf of the United States.  All rights reserved.
_database_code_ICSD                172340
_audit_creation_date               2007/04/01
_chemical_name_systematic
;
Bis(ammonium) Tris(hexaaquamagnesium) Tetrakis(hydrogen 
Phosphate(III))
;
_chemical_formula_structural       '(N H4)2 (Mg (H2 O)6)3 (H P O3)4'
_chemical_formula_sum              'H48 Mg3 N2 O30 P4'
_publ_section_title
;
Bis(ammonium) tris(hexaaquamagnesium) tetrakis(hydrogen phosphite)
;
loop_
_citation_id
_citation_journal_abbrev
_citation_year
_citation_journal_volume
_citation_journal_issue
_citation_page_first
_citation_page_last
_citation_journal_id_ASTM
primary 'Acta Crystallographica, Section C: Crystal Structure Communications'
 2006 62 6 i43 i45 ACSCEE
_publ_author_name
;
Abdallah, K.I.;Mohamed, S.;Mohamed, R.;Abdelhalim, G.
;
_cell_length_a                     34.364(9)
_cell_length_b                     7.045(2)
_cell_length_c                     6.1736(17)
_cell_angle_alpha                  90
_cell_angle_beta                   91.349(4)
_cell_angle_gamma                  90
_cell_volume                       1494.18
_cell_formula_units_Z              2
_symmetry_space_group_name_H-M     'C 1 2/m 1'
_symmetry_Int_Tables_number        12
_refine_ls_R_factor_all            .033
loop_
_symmetry_equiv_pos_site_id
_symmetry_equiv_pos_as_xyz
  1	'-x, y, -z'
  2	'-x, -y, -z'
  3	'x, -y, z'
  4	'x, y, z'
  5	'-x+.5, y+.5, -z'
  6	'-x+.5, -y+.5, -z'
  7	'x+.5, -y+.5, z'
  8	'x+.5, y+.5, z'
loop_
_atom_type_symbol
_atom_type_oxidation_number
H1+	1
Mg2+	2
N3-	-3
O2-	-2
P3+	3
loop_
_atom_site_label
_atom_site_type_symbol
_atom_site_symmetry_multiplicity
_atom_site_Wyckoff_symbol
_atom_site_fract_x
_atom_site_fract_y
_atom_site_fract_z
_atom_site_occupancy
_atom_site_attached_hydrogens
_atom_site_U_iso_or_equiv
N1 N3- 4 i 0.38276(8) -0.5000 0.9858(5) 1 0 0.0375(5) 
H1 H1+ 8 j 0.3776(8) -0.601(4) 1.069(4) 1 0 0.064(8) 
H2 H1+ 4 i 0.3683(9) -0.5000 0.870(5) 1 0 0.028(8) 
H3 H1+ 4 i 0.4074(13) -0.5000 0.946(6) 1 0 0.066(12) 
P1 P3+ 4 i 0.452443(16) 0.0000 0.65602(9) 1 0 0.01871(15) 
O1 O2- 4 i 0.43576(5) 0.0000 0.8833(3) 1 0 0.0269(4) 
O2 O2- 8 j 0.44201(3) -0.17973(16) 0.52994(18) 1 0 0.0254(3) 
H4 H1+ 4 i 0.4900(7) 0.0000 0.690(4) 1 0 0.021(6) 
Mg1 Mg2+ 2 a 0.5000 -0.5000 1.0000 1 0 0.0215(2) 
O3 O2- 8 j 0.46426(4) -0.2927(2) 1.1279(2) 1 0 0.0316(3) 
H5 H1+ 8 j 0.4569(7) -0.200(4) 1.053(4) 1 0 0.043(6) 
H6 H1+ 8 j 0.4596(7) -0.261(3) 1.257(3) 1 0 0.045(7) 
O4 O2- 4 i 0.46310(6) -0.5000 0.7337(3) 1 0 0.0363(5) 
H7 H1+ 8 j 0.4581(7) -0.593(3) 0.660(4) 1 0 0.046(7) 
P2 P3+ 4 i 0.295175(16) -0.5000 0.62182(9) 1 0 0.02015(15) 
H8 H1+ 4 i 0.2799(9) -0.5000 0.428(5) 1 0 0.036(8) 
O5 O2- 4 i 0.33953(5) -0.5000 0.5950(3) 1 0 0.0283(4) 
O6 O2- 8 j 0.28127(3) -0.31957(17) 0.73269(19) 1 0 0.0273(3) 
Mg2 Mg2+ 4 i 0.33310(2) 0.0000 0.24863(12) 1 0 0.02177(19) 
O7 O2- 8 j 0.37051(3) -0.21943(19) 0.3490(2) 1 0 0.0279(3) 
O8 O2- 4 i 0.35909(6) 0.0000 -0.0526(3) 1 0 0.0435(5) 
O9 O2- 8 j 0.29501(4) -0.2102(2) 0.1503(2) 1 0 0.0300(3) 
O10 O2- 4 i 0.30871(5) 0.0000 0.5567(3) 1 0 0.0276(4) 
H9 H1+ 8 j 0.2971(6) 0.095(3) 0.609(3) 1 0 0.040(6) 
H10 H1+ 8 j 0.3601(6) -0.298(3) 0.429(3) 1 0 0.037(6) 
H11 H1+ 8 j 0.3923(5) -0.198(3) 0.401(3) 1 0 0.039(6) 
H12 H1+ 4 i 0.3828(6) 0.0000 -0.080(5) 1 0 0.039(8) 
H13 H1+ 4 i 0.3476(10) 0.0000 -0.169(4) 1 0 0.055(11) 
H14 H1+ 8 j 0.2939(7) -0.251(3) 0.025(3) 1 0 0.046(7) 
H15 H1+ 8 j 0.2726(5) -0.208(4) 0.193(4) 1 0 0.060(8) 

loop_
_atom_site_aniso_label
_atom_site_aniso_type_symbol
_atom_site_aniso_U_11
_atom_site_aniso_U_22
_atom_site_aniso_U_33
_atom_site_aniso_U_12
_atom_site_aniso_U_13
_atom_site_aniso_U_23
N1 N3- 0.0341(13) 0.0435(15) 0.0348(13) 0.000 -0.0044(11) 0.000
P1 P3+ 0.0182(3) 0.0206(3) 0.0173(3) 0.000 0.0001(2) 0.000
O1 O2- 0.0279(8) 0.0341(9) 0.0187(8) 0.000 0.0028(6) 0.000
O2 O2- 0.0307(6) 0.0224(6) 0.0229(6) 0.0005(5) -0.0019(5) -0.0024(4)
Mg1 Mg2+ 0.0239(5) 0.0221(5) 0.0185(5) 0.000 -0.0008(4) 0.000
O3 O2- 0.0439(8) 0.0288(6) 0.0224(6) 0.0109(6) 0.0052(5) 0.0002(5)
O4 O2- 0.0575(13) 0.0210(9) 0.0296(10) 0.000 -0.0190(9) 0.000
P2 P3+ 0.0199(3) 0.0206(3) 0.0200(3) 0.000 0.0020(2) 0.000
O5 O2- 0.0202(8) 0.0330(9) 0.0317(9) 0.000 0.0034(7) 0.000
O6 O2- 0.0290(6) 0.0241(6) 0.0289(6) 0.0000(5) 0.0050(5) -0.0034(5)
Mg2 Mg2+ 0.0183(4) 0.0256(4) 0.0214(4) 0.000 0.0004(3) 0.000
O7 O2- 0.0203(6) 0.0290(7) 0.0344(7) -0.0004(5) -0.0015(5) 0.0037(5)
O8 O2- 0.0231(9) 0.0866(17) 0.0207(9) 0.000 0.0014(7) 0.000
O9 O2- 0.0228(6) 0.0391(7) 0.0283(7) -0.0046(5) 0.0012(5) -0.0075(6)
O10 O2- 0.0325(9) 0.0234(9) 0.0272(9) 0.000 0.0079(7) 0.000
#End of data_172340-ICSD


