data_109601-ICSD
#?2014 by Fachinformationszentrum Karlsruhe, and the U.S. Secretary of 
#Commerce on behalf of the United States.  All rights reserved.
_database_code_ICSD                109601
_audit_creation_date               2008/02/01
_audit_update_record               2010/02/01
_chemical_name_systematic          'Disilver Oxalate'
_chemical_formula_structural       'Ag2 (C2 O4)'
_chemical_formula_sum              'C2 Ag2 O4'
_publ_section_title                'Silver oxalate, 2Ag+ * C2 O4(2-)'
loop_
_citation_id
_citation_journal_abbrev
_citation_year
_citation_journal_volume
_citation_page_first
_citation_page_last
_citation_journal_id_ASTM
primary 'Acta Crystallographica, Section C: Crystal Structure Communications'
 1995 51 60 62 ACSCEE
2 'Zhurnal Strukturnoi Khimii (Issue-No. from 1981)' 1994 35 158 168 ZSTKAI
_publ_author_name
;
Naumov, D.Yu.;Virovets, A.V.;Podberezskaya, N.V.;Boldyreva, E.V.
;
_cell_length_a                     3.4603(5)
_cell_length_b                     6.1972(9)
_cell_length_c                     9.548(2)
_cell_angle_alpha                  90
_cell_angle_beta                   103.47(1)
_cell_angle_gamma                  90
_cell_volume                       199.12
_cell_formula_units_Z              2
_symmetry_space_group_name_H-M     'P 1 21/c 1'
_symmetry_Int_Tables_number        14
_refine_ls_R_factor_all            .0259
loop_
_symmetry_equiv_pos_site_id
_symmetry_equiv_pos_as_xyz
  1	'x, -y+.5, z+.5'
  2	'-x, -y, -z'
  3	'-x, y+.5, -z+.5'
  4	'x, y, z'
loop_
_atom_type_symbol
_atom_type_oxidation_number
Ag1+	1
C3+	3
O2-	-2
loop_
_atom_site_label
_atom_site_type_symbol
_atom_site_symmetry_multiplicity
_atom_site_Wyckoff_symbol
_atom_site_fract_x
_atom_site_fract_y
_atom_site_fract_z
_atom_site_occupancy
_atom_site_attached_hydrogens
_atom_site_U_iso_or_equiv
Ag1 Ag1+ 4 e 0.1416(2) 0.00557(7) -0.34218(8) 1. 0 .0257(4) 
C1 C3+ 4 e 0.403(2) -.384(1) -.4963(9) 1. 0 .018(2) 
O1 O2- 4 e 0.507(2) -.2859(8) -.3817(6) 1. 0 .026(1) 
O2 O2- 4 e 0.175(2) -.3228(7) -.6097(6) 1. 0 .024(1) 

#End of data_109601-ICSD


