data_74543-ICSD
#?2014 by Fachinformationszentrum Karlsruhe, and the U.S. Secretary of 
#Commerce on behalf of the United States.  All rights reserved.
_database_code_ICSD                74543
_audit_creation_date               1995/10/17
_chemical_name_systematic          'Potassium Hydrogenphosphate'
_chemical_formula_structural       'K2 (H P O4)'
_chemical_formula_sum              'H1 K2 O4 P1'
_publ_section_title
;
Isomorphous crystals: K2HPO4 and K5Na(HPO4)3
;
loop_
_citation_id
_citation_journal_abbrev
_citation_year
_citation_journal_volume
_citation_page_first
_citation_page_last
_citation_journal_id_ASTM
primary 'Acta Crystallographica, Section C: Crystal Structure Communications'
 1994 50 484 487 ACSCEE
_publ_author_name                  'Lis, T.'
_cell_length_a                     22.535(15)
_cell_length_b                     10.322(5)
_cell_length_c                     5.923(3)
_cell_angle_alpha                  90.
_cell_angle_beta                   90.
_cell_angle_gamma                  90.
_cell_volume                       1377.73
_cell_formula_units_Z              12
_symmetry_space_group_name_H-M     'P n a 21'
_symmetry_Int_Tables_number        33
_refine_ls_R_factor_all            .032
loop_
_symmetry_equiv_pos_site_id
_symmetry_equiv_pos_as_xyz
  1	'x+.5, -y+.5, z'
  2	'-x+.5, y+.5, z+.5'
  3	'-x, -y, z+.5'
  4	'x, y, z'
loop_
_atom_type_symbol
_atom_type_oxidation_number
H1+	1
K1+	1
O2-	-2
P5+	5
loop_
_atom_site_label
_atom_site_type_symbol
_atom_site_symmetry_multiplicity
_atom_site_Wyckoff_symbol
_atom_site_fract_x
_atom_site_fract_y
_atom_site_fract_z
_atom_site_occupancy
_atom_site_attached_hydrogens
_atom_site_U_iso_or_equiv
P1 P5+ 4 a 0.59381(4) 0.54499(9) 0.7486(4) 1. 0 0 
P2 P5+ 4 a 0.92500(5) 0.56748(9) 0.7576(4) 1. 0 0 
P3 P5+ 4 a 0.74427(5) 0.84955(9) 0.7896(3) 1. 0 0 
O1 O2- 4 a 0.66533(11) 0.5495(3) 0.7431(8) 1. 0 0 
O2 O2- 4 a 0.57822(13) 0.4028(3) 0.7536(9) 1. 0 0 
O3 O2- 4 a 0.57239(18) 0.6129(4) 0.5369(7) 1. 0 0 
O4 O2- 4 a 0.57393(18) 0.6167(5) 0.9581(7) 1. 0 0 
O5 O2- 4 a 0.97935(17) 0.5911(5) 0.8994(8) 1. 0 0 
O6 O2- 4 a 0.90108(13) 0.4323(3) 0.7821(9) 1. 0 0 
O7 O2- 4 a 0.87842(14) 0.6701(3) 0.7953(9) 1. 0 0 
O8 O2- 4 a 0.94533(17) 0.5853(4) 0.5014(7) 1. 0 0 
O9 O2- 4 a 0.81227(13) 0.8689(3) 0.7119(7) 1. 0 0 
O10 O2- 4 a 0.71811(13) 0.9841(3) 0.7856(7) 1. 0 0 
O11 O2- 4 a 0.71583(16) 0.7626(3) 0.6126(6) 1. 0 0 
O12 O2- 4 a 0.74408(15) 0.7870(3) 0.0188(6) 1. 0 0 
K1 K1+ 4 a 0.94999(4) 0.90187(8) 0.75 1. 0 0 
K2 K1+ 4 a 0.59868(4) 0.86597(9) 0.7395(4) 1. 0 0 
K3 K1+ 4 a 0.82825(4) 0.13691(8) 0.7453(3) 1. 0 0 
K4 K1+ 4 a 0.66394(4) 0.22474(9) 0.7796(4) 1. 0 0 
K5 K1+ 4 a 0.78228(4) 0.49409(9) 0.7933(3) 1. 0 0 
K6 K1+ 4 a 0.98734(4) 0.25243(8) 0.7399(4) 1. 0 0 
H1 H1+ 4 a 0.685(2) 0.622(3) 0.671(3) 1. 0 0.034(16) 
H2 H1+ 4 a 0.980(2) 0.530(5) 0.493(12) 1. 0 0.057(23) 
H3 H1+ 4 a 0.843(2) 0.803(5) 0.710(14) 1. 0 0.087(25) 

loop_
_atom_site_aniso_label
_atom_site_aniso_type_symbol
_atom_site_aniso_U_11
_atom_site_aniso_U_22
_atom_site_aniso_U_33
_atom_site_aniso_U_12
_atom_site_aniso_U_13
_atom_site_aniso_U_23
P1 P5+ 0.0128(4) 0.0133(4) 0.0103(5) -.0001(4) 0.0008(6) 0.0002(6)
P2 P5+ 0.0144(5) 0.0160(5) 0.0198(6) 0.0019(4) -.0003(7) 0.0002(7)
P3 P5+ 0.0153(5) 0.0145(5) 0.0119(5) 0.0005(4) -.0001(5) 0.0007(5)
O1 O2- 0.0127(13) 0.0222(13) 0.0288(18) 0.0010(12) -.0017(21) 0.0016(21)
O2 O2- 0.0219(14) 0.0158(12) 0.0369(19) -.0050(12) -.0017(23) 0.0040(23)
O3 O2- 0.0239(25) 0.0278(27) 0.0145(16) 0.0015(20) -.0052(17) 0.0145(16)
O4 O2- 0.0258(25) 0.0307(29) 0.0145(16) 0.0036(22) 0.0038(16) -.0055(16)
O5 O2- 0.0313(22) 0.0534(27) 0.0431(24) 0.0073(21) -.0181(21) -.0228(22)
O6 O2- 0.0239(15) 0.0160(13) 0.0541(26) 0.0033(13) 0.0125(25) 0.0075(21)
O7 O2- 0.0289(17) 0.0188(14) 0.0579(28) 0.0116(13) 0.0071(23) -.0006(21)
O8 O2- 0.0366(23) 0.0388(23) 0.027(2) -.0004(20) 0.0074(20) 0.0080(19)
O9 O2- 0.0160(14) 0.0190(14) 0.0298(22) 0.0009(12) 0.0102(16) 0.0078(15)
O10 O2- 0.0228(14) 0.0189(14) 0.0267(19) 0.0069(12) 0.0016(17) 0.0008(16)
O11 O2- 0.0368(21) 0.0226(17) 0.0175(15) -.0102(16) -.0069(16) -.0037(14)
O12 O2- 0.0244(18) 0.0270(17) 0.0139(15) -.0030(16) -.0015(14) 0.0082(14)
K1 K1+ 0.0246(5) 0.0224(4) 0.0239(5) 0.0001(4) 0.0004(7) -.0006(6)
K2 K1+ 0.0244(5) 0.0230(4) 0.0313(6) 0.0003(4) 0.0032(7) 0.0005(7)
K3 K1+ 0.0216(4) 0.0256(4) 0.0152(4) 0.0057(4) -.0006(5) 0.0003(6)
K4 K1+ 0.0277(6) 0.0262(5) 0.0293(7) 0.0054(4) 0.0088(6) 0.0028(6)
K5 K1+ 0.0177(4) 0.0272(5) 0.0226(6) -.0006(4) -.0015(5) -.0011(5)
K6 K1+ 0.0200(4) 0.0171(4) 0.0175(4) 0.0007(3) -.0017(6) 0.0008(6)
#End of data_74543-ICSD


