data_419291-ICSD
#?2014 by Fachinformationszentrum Karlsruhe, and the U.S. Secretary of 
#Commerce on behalf of the United States.  All rights reserved.
_database_code_ICSD                419291
_audit_creation_date               2009/02/01
_chemical_name_systematic
;
Potassium Uranyl Cyclo-triphosphate - Beta
;
_chemical_formula_structural       'K ((U O2) (P3 O9))'
_chemical_formula_sum              'K1 O11 P3 U1'
_publ_section_title
;
Complex topology of uranyl polyphosphate frameworks: Crystal 
structure of alpha-, beta- K [(U O2) (P3 O9)] and K [(U O2)2 (P3 
O10)]
;
loop_
_citation_id
_citation_journal_abbrev
_citation_year
_citation_journal_volume
_citation_journal_issue
_citation_page_first
_citation_page_last
_citation_journal_id_ASTM
primary 'Zeitschrift fuer Anorganische und Allgemeine Chemie (1950) (DE)'
 2008 634 9 1527 1532 ZAACAB
_publ_author_name
;
Alekseev, E.V.;Krivovichev, S.V.;Depmeier, W.;Knorr, K.
;
_cell_length_a                     14.842(2)
_cell_length_b                     8.6070(10)
_cell_length_c                     14.9510(10)
_cell_angle_alpha                  90.00
_cell_angle_beta                   95.829(5)
_cell_angle_gamma                  90.00
_cell_volume                       1900.04
_cell_formula_units_Z              8
_symmetry_space_group_name_H-M     'P 1 21/n 1'
_symmetry_Int_Tables_number        14
_refine_ls_R_factor_all            .0787
loop_
_symmetry_equiv_pos_site_id
_symmetry_equiv_pos_as_xyz
  1	'-x+.5, y+.5, -z+.5'
  2	'-x, -y, -z'
  3	'x+.5, -y+.5, z+.5'
  4	'x, y, z'
loop_
_atom_type_symbol
_atom_type_oxidation_number
K1+	1
O2-	-2
P5+	5
U6+	6
loop_
_atom_site_label
_atom_site_type_symbol
_atom_site_symmetry_multiplicity
_atom_site_Wyckoff_symbol
_atom_site_fract_x
_atom_site_fract_y
_atom_site_fract_z
_atom_site_occupancy
_atom_site_attached_hydrogens
_atom_site_U_iso_or_equiv
U1 U6+ 4 e 0.01818(5) 0.16909(8) 0.25868(5) 1 0 0.01537(16) 
U2 U6+ 4 e -0.25758(5) -0.10949(8) 0.01460(5) 1 0 0.01572(16) 
P1 P5+ 4 e -0.0201(4) -0.1775(6) 0.1025(3) 1 0 0.0153(10) 
P2 P5+ 4 e -0.1016(4) 0.2283(6) 0.0395(4) 1 0 0.0160(10) 
P3 P5+ 4 e -0.2375(4) -0.5335(6) 0.0386(4) 1 0 0.0191(11) 
P4 P5+ 4 e -0.3908(4) 0.2465(6) -0.0089(4) 1 0 0.0164(10) 
P5 P5+ 4 e 0.0373(5) 0.6012(7) 0.2385(4) 1 0 0.0235(12) 
P6 P5+ 4 e 0.0331(4) -0.1982(6) 0.3932(4) 1 0 0.0152(10) 
K1 K1+ 4 e -0.2801(4) 0.1549(6) 0.2236(4) 1 0 0.0268(10) 
K2 K1+ 4 e 0.2415(4) -0.0907(7) 0.2834(5) 1 0 0.0382(14) 
O1 O2- 4 e -0.2440(9) -0.3803(17) 0.0019(12) 1 0 0.017(3) 
O2 O2- 4 e -0.0541(11) -0.1551(18) 0.4382(11) 1 0 0.020(3) 
O3 O2- 4 e 0.1351(12) 0.175(2) 0.2409(12) 1 0 0.023(3) 
O4 O2- 4 e -0.0056(13) -0.062(2) 0.1760(11) 1 0 0.024(3) 
O5 O2- 4 e -0.3578(12) 0.097(2) 0.0352(11) 1 0 0.024(3) 
O6 O2- 4 e -0.0228(12) -0.3424(18) 0.1483(11) 1 0 0.020(3) 
O7 O2- 4 e 0.0695(12) -0.175(2) 0.0530(12) 1 0 0.027(4) 
O8 O2- 4 e -0.1445(13) -0.6136(19) 0.0118(14) 1 0 0.027(4) 
O9 O2- 4 e 0.0956(11) -0.2923(17) 0.4556(11) 1 0 0.018(3) 
O10 O2- 4 e 0.014(2) 0.445(2) 0.2475(12) 1 0 0.050(6) 
O11 O2- 4 e 0.0665(11) -0.0486(19) 0.3552(11) 1 0 0.022(3) 
O12 O2- 4 e -0.0103(12) 0.692(2) 0.3141(13) 1 0 0.025(4) 
O13 O2- 4 e 0.1334(14) 0.651(3) 0.2374(13) 1 0 0.036(5) 
O14 O2- 4 e -0.1764(12) 0.123(2) 0.0612(11) 1 0 0.023(3) 
O15 O2- 4 e -0.1003(12) -0.166(2) 0.0338(13) 1 0 0.025(4) 
O16 O2- 4 e -0.0234(12) 0.245(2) 0.1099(12) 1 0 0.024(3) 
O17 O2- 4 e -0.4462(12) 0.233(2) -0.0949(12) 1 0 0.025(4) 
O18 O2- 4 e -0.2671(12) -0.145(2) 0.1308(12) 1 0 0.025(4) 
O19 O2- 4 e -0.2474(14) -0.552(2) 0.1336(11) 1 0 0.029(4) 
O20 O2- 4 e -0.0980(13) 0.153(3) 0.2786(15) 1 0 0.036(5) 
O21 O2- 4 e -0.2441(13) -0.060(3) -0.0986(11) 1 0 0.030(4) 
O22 O2- 4 e -0.3082(12) -0.639(2) -0.0245(12) 1 0 0.025(4) 

loop_
_atom_site_aniso_label
_atom_site_aniso_type_symbol
_atom_site_aniso_U_11
_atom_site_aniso_U_22
_atom_site_aniso_U_33
_atom_site_aniso_U_12
_atom_site_aniso_U_13
_atom_site_aniso_U_23
U1 U6+ 0.0189(3) 0.0114(3) 0.0159(3) 0.0001(3) 0.0028(2) -0.0006(3)
U2 U6+ 0.0191(3) 0.0117(3) 0.0165(3) 0.0000(3) 0.0026(2) 0.0001(3)
P1 P5+ 0.024(2) 0.011(2) 0.012(2) 0.0002(18) 0.0049(18) -0.0007(17)
P2 P5+ 0.018(2) 0.012(2) 0.019(2) 0.0006(18) 0.0022(18) 0.0023(18)
P3 P5+ 0.023(2) 0.013(2) 0.022(2) 0.0021(19) 0.0049(19) 0.0015(19)
P4 P5+ 0.019(2) 0.013(2) 0.017(2) 0.0002(19) 0.0014(18) 0.0006(18)
P5 P5+ 0.034(3) 0.017(2) 0.018(2) 0.004(2) -0.002(2) -0.001(2)
P6 P5+ 0.018(2) 0.010(2) 0.017(2) -0.0003(17) 0.0024(18) 0.0014(18)
K1 K1+ 0.030(2) 0.027(2) 0.022(2) -0.0003(19) 0.0005(18) -0.0035(19)
K2 K1+ 0.030(2) 0.029(3) 0.058(4) 0.006(2) 0.016(2) 0.004(3)
O1 O2- 0.005(5) 0.013(6) 0.036(8) 0.001(5) 0.013(5) -0.006(6)
O2 O2- 0.024(7) 0.013(6) 0.024(7) -0.006(6) 0.003(6) 0.001(6)
O3 O2- 0.028(7) 0.021(7) 0.022(7) 0.003(6) 0.010(6) 0.003(6)
O4 O2- 0.033(8) 0.024(8) 0.016(7) 0.005(7) 0.003(6) -0.011(6)
O5 O2- 0.025(7) 0.026(8) 0.019(7) -0.005(6) -0.001(6) 0.004(6)
O6 O2- 0.028(7) 0.015(7) 0.017(7) 0.003(6) -0.001(6) 0.009(5)
O7 O2- 0.022(7) 0.039(9) 0.020(7) -0.002(7) 0.007(6) 0.004(7)
O8 O2- 0.032(8) 0.011(7) 0.041(9) 0.003(6) 0.019(7) 0.009(6)
O9 O2- 0.027(7) 0.010(6) 0.018(6) 0.001(5) 0.009(6) 0.003(5)
O10 O2- 0.108(17) 0.022(8) 0.011(7) 0.036(10) -0.028(9) -0.004(6)
O11 O2- 0.027(7) 0.016(7) 0.023(7) -0.014(6) 0.003(6) 0.010(6)
O12 O2- 0.023(7) 0.022(8) 0.029(8) 0.002(6) 0.001(6) 0.003(7)
O13 O2- 0.029(8) 0.052(11) 0.025(8) 0.023(8) 0.002(7) 0.004(8)
O14 O2- 0.028(8) 0.018(7) 0.023(7) -0.013(6) -0.004(6) -0.004(6)
O15 O2- 0.023(7) 0.025(8) 0.028(8) 0.005(6) 0.000(6) 0.001(7)
O16 O2- 0.025(7) 0.025(8) 0.022(7) -0.006(6) 0.002(6) -0.001(6)
O17 O2- 0.028(8) 0.021(7) 0.024(8) -0.007(6) 0.000(6) 0.001(6)
O18 O2- 0.028(8) 0.028(8) 0.020(7) 0.008(7) 0.003(6) -0.007(6)
O19 O2- 0.038(9) 0.039(10) 0.012(7) 0.000(8) 0.009(6) 0.001(7)
O20 O2- 0.018(7) 0.053(12) 0.037(10) -0.004(8) 0.000(7) -0.001(9)
O21 O2- 0.033(8) 0.041(10) 0.015(7) -0.011(8) 0.001(6) -0.012(7)
O22 O2- 0.029(8) 0.018(7) 0.026(8) -0.015(6) -0.008(6) 0.001(6)
#End of data_419291-ICSD


