data_29075-ICSD
#?2014 by Fachinformationszentrum Karlsruhe, and the U.S. Secretary of 
#Commerce on behalf of the United States.  All rights reserved.
_database_code_ICSD                29075
_audit_creation_date               1980/01/01
_audit_update_record               2007/08/01
_chemical_name_systematic          'Potassium Closo-trivanadate'
_chemical_formula_structural       'K (V3 O8)'
_chemical_formula_sum              'K1 O8 V3'
_publ_section_title
;
Crystal structure of potassium trivanadate
;
loop_
_citation_id
_citation_journal_abbrev
_citation_year
_citation_journal_volume
_citation_page_first
_citation_page_last
_citation_journal_id_ASTM
primary 'Nature (London)' 1960 186 540 541 NATUAS
_publ_author_name                  'Block, S.'
_cell_length_a                     7.63
_cell_length_b                     8.43
_cell_length_c                     4.97
_cell_angle_alpha                  90.
_cell_angle_beta                   96.75
_cell_angle_gamma                  90.
_cell_volume                       317.46
_cell_formula_units_Z              2
_symmetry_space_group_name_H-M     'P 1 21/m 1'
_symmetry_Int_Tables_number        11
_refine_ls_R_factor_all            .14
loop_
_symmetry_equiv_pos_site_id
_symmetry_equiv_pos_as_xyz
  1	'x, -y+.5, z'
  2	'-x, -y, -z'
  3	'-x, y+.5, -z'
  4	'x, y, z'
loop_
_atom_type_symbol
_atom_type_oxidation_number
K1+	1
O2-	-2
V5+	5
loop_
_atom_site_label
_atom_site_type_symbol
_atom_site_symmetry_multiplicity
_atom_site_Wyckoff_symbol
_atom_site_fract_x
_atom_site_fract_y
_atom_site_fract_z
_atom_site_occupancy
_atom_site_attached_hydrogens
K1 K1+ 2 e 0.062 0.25 0.0945 1. 0 
V1 V5+ 2 e 0.577 0.25 0.917 1. 0 
V2 V5+ 4 f 0.693 0.057 0.441 1. 0 
O1 O2- 2 e 0.415 0.25 0.109 1. 0 
O2 O2- 2 e 0.759 0.25 0.595 1. 0 
O3 O2- 4 f 0.516 0.101 0.7 1. 0 
O4 O2- 4 f 0.158 0.063 0.441 1. 0 
O5 O2- 4 f 0.744 0.092 0.13 1. 0 

#End of data_29075-ICSD


