data_27762-ICSD
#?2014 by Fachinformationszentrum Karlsruhe, and the U.S. Secretary of 
#Commerce on behalf of the United States.  All rights reserved.
_database_code_ICSD                27762
_audit_creation_date               1980/01/01
_audit_update_record               2012/02/01
_chemical_name_systematic          'Disodium Phyllo-disilicate - Beta'
_chemical_formula_structural       'Na2 (Si2 O5)'
_chemical_formula_sum              'Na2 O5 Si2'
_chemical_name_mineral             Natrosilite
_publ_section_title
;
La structure cristalline du disilicate de soude beta-Na2 Si2 O5
;
loop_
_citation_id
_citation_journal_abbrev
_citation_year
_citation_journal_volume
_citation_page_first
_citation_page_last
_citation_journal_id_ASTM
primary
;
Bulletin de la Societe Francaise de Mineralogie et de 
Cristallographie (72,1949-100,1977)
;
 1954 77 775 785 BUFCAE
2 'Golden Book of Phase Transitions, Wroclaw' 2002 1 1 123 GBOPT5
_publ_author_name                  'Grund, A.'
_cell_length_a                     12.26
_cell_length_b                     4.8
_cell_length_c                     8.08
_cell_angle_alpha                  90.
_cell_angle_beta                   104.3
_cell_angle_gamma                  90.
_cell_volume                       460.76
_cell_formula_units_Z              4
_symmetry_space_group_name_H-M     'P 1 21/a 1'
_symmetry_Int_Tables_number        14
loop_
_symmetry_equiv_pos_site_id
_symmetry_equiv_pos_as_xyz
  1	'x+.5, -y+.5, z'
  2	'-x, -y, -z'
  3	'-x+.5, y+.5, -z'
  4	'x, y, z'
loop_
_atom_type_symbol
_atom_type_oxidation_number
Na1+	1
O2-	-2
Si4+	4
loop_
_atom_site_label
_atom_site_type_symbol
_atom_site_symmetry_multiplicity
_atom_site_Wyckoff_symbol
_atom_site_fract_x
_atom_site_fract_y
_atom_site_fract_z
_atom_site_occupancy
_atom_site_attached_hydrogens
Si1 Si4+ 4 e 0.183 0.196 0.02 1. 0 
Si2 Si4+ 4 e 0.278 0.3 0.406 1. 0 
Na1 Na1+ 4 e 0.435 0.765 0.39 1. 0 
Na2 Na1+ 4 e 0.465 0.235 0.136 1. 0 
O1 O2- 4 e 0.215 0.866 0.029 1. 0 
O2 O2- 4 e 0.254 0.635 0.434 1. 0 
O3 O2- 4 e 0.184 0.25 0.222 1. 0 
O4 O2- 4 e 0.397 0.265 0.394 1. 0 
O5 O2- 4 e 0.434 0.735 0.09 1. 0 

#End of data_27762-ICSD


