data_605408-ICSD
#?2014 by Fachinformationszentrum Karlsruhe, and the U.S. Secretary of 
#Commerce on behalf of the United States.  All rights reserved.
_database_code_ICSD                605408
_audit_creation_date               2012/02/01
_chemical_name_systematic          'Silver Indium Sulfide (1/1/2)'
_chemical_formula_structural       'Ag In S2'
_chemical_formula_sum              'Ag1 In1 S2'
_publ_section_title
;
Phase diagram and growth of single crystals of solid solutions of the 
system Ag Ga S2 - Ag In S2
;
loop_
_citation_id
_citation_journal_abbrev
_citation_year
_citation_journal_volume
_citation_journal_issue
_citation_page_first
_citation_page_last
_citation_journal_id_ASTM
primary 'Inorganic Materials' 1979 15 12 1658 1660 INOMAF
_publ_author_name
;
Bodnar', I.V.
;
_cell_length_a                     7.002(5)
_cell_length_b                     8.275(5)
_cell_length_c                     6.699(5)
_cell_angle_alpha                  90.0
_cell_angle_beta                   90.0
_cell_angle_gamma                  90.0
_cell_volume                       388.15
_cell_formula_units_Z              4
_symmetry_space_group_name_H-M     'P n a 21'
_symmetry_Int_Tables_number        33
loop_
_symmetry_equiv_pos_site_id
_symmetry_equiv_pos_as_xyz
  1	'x+.5, -y+.5, z'
  2	'-x+.5, y+.5, z+.5'
  3	'-x, -y, z+.5'
  4	'x, y, z'
loop_
_atom_type_symbol
_atom_type_oxidation_number
Ag1+	1
In3+	3
S2-	-2
loop_
_atom_site_label
_atom_site_type_symbol
_atom_site_symmetry_multiplicity
_atom_site_Wyckoff_symbol
_atom_site_fract_x
_atom_site_fract_y
_atom_site_fract_z
_atom_site_occupancy
_atom_site_attached_hydrogens
Ag1 Ag1+ 4 a 0.409 0.128 0.113 1. 0 
In1 In3+ 4 a 0.067 0.129 0.618 1. 0 
S1 S2- 4 a 0.078 0.108 0.985 1. 0 
S2 S2- 4 a 0.086 0.620 0.019 1. 0 

#End of data_605408-ICSD


