data_32717-ICSD
#?2014 by Fachinformationszentrum Karlsruhe, and the U.S. Secretary of 
#Commerce on behalf of the United States.  All rights reserved.
_database_code_ICSD                32717
_audit_creation_date               1982/12/31
_audit_update_record               2005/10/01
_chemical_name_systematic
;
Sodium Tripotassium Hexachloroferrate(II)
;
_chemical_formula_structural       'Na K3 (Fe Cl6)'
_chemical_formula_sum              'Cl6 Fe1 K3 Na1'
_chemical_name_mineral             Rinneite
_publ_section_title
;
Crystal and molecular structures of rinneite, sodium tripotassium 
hexachloroferrate(II), and hexaamminecobalt(III) 
hexachloroferrate(III). Comparison of iron-chloride distances in 
hexachloroferrates(II) and -(III)
;
loop_
_citation_id
_citation_journal_abbrev
_citation_year
_citation_journal_volume
_citation_page_first
_citation_page_last
_citation_journal_id_ASTM
primary 'Inorganic Chemistry' 1982 21 1292 1295 INOCAJ
_publ_author_name                  'Beattie, J.K.;Moore, C.J.'
_cell_length_a                     8.3376(7)
_cell_length_b                     8.3376(7)
_cell_length_c                     8.3376(7)
_cell_angle_alpha                  92.29(1)
_cell_angle_beta                   92.29(1)
_cell_angle_gamma                  92.29(1)
_cell_volume                       578.17
_cell_formula_units_Z              2
_symmetry_space_group_name_H-M     'R -3 c R'
_symmetry_Int_Tables_number        167
_refine_ls_R_factor_all            .022
loop_
_symmetry_equiv_pos_site_id
_symmetry_equiv_pos_as_xyz
  1	'-x+.5, -z+.5, -y+.5'
  2	'-z+.5, -y+.5, -x+.5'
  3	'-y+.5, -x+.5, -z+.5'
  4	'x+.5, z+.5, y+.5'
  5	'z+.5, y+.5, x+.5'
  6	'y+.5, x+.5, z+.5'
  7	'-z, -x, -y'
  8	'-y, -z, -x'
  9	'-x, -y, -z'
 10	'z, x, y'
 11	'y, z, x'
 12	'x, y, z'
loop_
_atom_type_symbol
_atom_type_oxidation_number
Cl1-	-1
Fe2+	2
K1+	1
Na1+	1
loop_
_atom_site_label
_atom_site_type_symbol
_atom_site_symmetry_multiplicity
_atom_site_Wyckoff_symbol
_atom_site_fract_x
_atom_site_fract_y
_atom_site_fract_z
_atom_site_occupancy
_atom_site_attached_hydrogens
Fe1 Fe2+ 2 b 0.5 0.5 0.5 1. 0 
K1 K1+ 6 e 0.12598(5) 0.37402(5) 0.75 1. 0 
Cl1 Cl1- 12 f 0.41962(6) 0.21254(5) 0.54528(5) 1. 0 
Na1 Na1+ 2 a 0.25 0.25 0.25 1. 0 

#End of data_32717-ICSD


