data_81771-ICSD
#?2014 by Fachinformationszentrum Karlsruhe, and the U.S. Secretary of 
#Commerce on behalf of the United States.  All rights reserved.
_database_code_ICSD                81771
_audit_creation_date               1997/05/13
_audit_update_record               1999/11/30
_chemical_name_systematic
;
Potassium Bismuth Heptathiodiphosphate
;
_chemical_formula_structural       'K Bi (P2 S7)'
_chemical_formula_sum              'Bi1 K1 P2 S7'
_publ_section_title
;
Synthesis in molten alkali metal polythiophosphate fluxes. The new 
quaternary bismuth and antimony thiophosphates A Bi P2 S7 (A = K, 
Rb), A3 M (P S4)2 (A = K, Rb, Cs; M =Sb, Bi), Cs3 Bi2 (P S4)3, and 
Na0.16 Bi1.28 P2 S6
;
loop_
_citation_id
_citation_journal_abbrev
_citation_year
_citation_journal_volume
_citation_page_first
_citation_page_last
_citation_journal_id_ASTM
primary 'Journal of Alloys and Compounds' 1996 236 70 85 JALCEU
_publ_author_name                  'McCarthy, T.J.;Kanatzidis, M.G.'
_cell_length_a                     9.500(3)
_cell_length_b                     12.303(4)
_cell_length_c                     9.097(3)
_cell_angle_alpha                  90.
_cell_angle_beta                   90.59(3)
_cell_angle_gamma                  90.
_cell_volume                       1063.19
_cell_formula_units_Z              4
_symmetry_space_group_name_H-M     'P 1 21/c 1'
_symmetry_Int_Tables_number        14
_refine_ls_R_factor_all            .028
loop_
_symmetry_equiv_pos_site_id
_symmetry_equiv_pos_as_xyz
  1	'x, -y+.5, z+.5'
  2	'-x, -y, -z'
  3	'-x, y+.5, -z+.5'
  4	'x, y, z'
loop_
_atom_type_symbol
_atom_type_oxidation_number
Bi3+	3
K1+	1
P5+	5
S2-	-2
loop_
_atom_site_label
_atom_site_type_symbol
_atom_site_symmetry_multiplicity
_atom_site_Wyckoff_symbol
_atom_site_fract_x
_atom_site_fract_y
_atom_site_fract_z
_atom_site_occupancy
_atom_site_attached_hydrogens
_atom_site_B_iso_or_equiv
Bi1 Bi3+ 4 e 0.3419(3) 0.13823(2) 0.11948(3) 1. 0 1.26(1) 
K1 K1+ 4 e 0.8847(2) 0.1909(2) 0.8708(2) 1. 0 2.26(7) 
S1 S2- 4 e 0.6536(2) 0.1937(1) 0.1485(2) 1. 0 1.11(7) 
S2 S2- 4 e 0.1161(2) 0.2928(1) 0.1101(2) 1. 0 1.20(7) 
S3 S2- 4 e 0.1655(2) 0.0297(2) -.0738(2) 1. 0 1.27(7) 
S4 S2- 4 e 0.4087(2) 0.1716(1) 0.4314(2) 1. 0 1.16(7) 
S5 S2- 4 e 0.5057(2) -.0554(1) 0.1860(2) 1. 0 1.25(7) 
S6 S2- 4 e 0.2472(2) 0.5509(1) 0.0802(2) 1. 0 0.93(6) 
S7 S2- 4 e 0.1237(2) 0.0545(2) 0.2942(2) 1. 0 1.18(7) 
P1 P5+ 4 e 0.6811(2) 0.0367(1) 0.1997(2) 1. 0 0.74(6) 
P2 P5+ 4 e 0.2224(2) 0.1031(1) 0.4811(2) 1. 0 0.74(6) 

#End of data_81771-ICSD


