data_61788-ICSD
#?2014 by Fachinformationszentrum Karlsruhe, and the U.S. Secretary of 
#Commerce on behalf of the United States.  All rights reserved.
_database_code_ICSD                61788
_audit_creation_date               1988/02/22
_audit_update_record               2005/10/01
_chemical_name_systematic
;
Potassium Antimony Bis(phosphate(V))
;
_chemical_formula_structural       'K Sb (P O4)2'
_chemical_formula_sum              'K1 O8 P2 Sb1'
_publ_section_title                'Crystal structure of K Sb P2 O8'
loop_
_citation_id
_citation_journal_abbrev
_citation_year
_citation_journal_volume
_citation_page_first
_citation_page_last
_citation_journal_id_ASTM
primary 'Journal of Solid State Chemistry' 1985 60 209 213 JSSCBI
_publ_author_name
;
Piffard, Y.;Oyetola, S.;Courant, S.;Lachgar, A.
;
_cell_length_a                     4.7623(4)
_cell_length_b                     4.7623(4)
_cell_length_c                     25.409(4)
_cell_angle_alpha                  90.
_cell_angle_beta                   90.
_cell_angle_gamma                  120.
_cell_volume                       499.06
_cell_formula_units_Z              3
_symmetry_space_group_name_H-M     'R -3 H'
_symmetry_Int_Tables_number        148
_refine_ls_R_factor_all            .03
loop_
_symmetry_equiv_pos_site_id
_symmetry_equiv_pos_as_xyz
  1	'x-y, x, -z'
  2	'y, -x+y, -z'
  3	'-x, -y, -z'
  4	'-x+y, -x, z'
  5	'-y, x-y, z'
  6	'x, y, z'
  7	'x-y+.6666, x+.3333, -z+.3333'
  8	'x-y+.3333, x+.6666, -z+.6666'
  9	'y+.6666, -x+y+.3333, -z+.3333'
 10	'y+.3333, -x+y+.6666, -z+.6666'
 11	'-x+.6666, -y+.3333, -z+.3333'
 12	'-x+.3333, -y+.6666, -z+.6666'
 13	'-x+y+.6666, -x+.3333, z+.3333'
 14	'-x+y+.3333, -x+.6666, z+.6666'
 15	'-y+.6666, x-y+.3333, z+.3333'
 16	'-y+.3333, x-y+.6666, z+.6666'
 17	'x+.6666, y+.3333, z+.3333'
 18	'x+.3333, y+.6666, z+.6666'
loop_
_atom_type_symbol
_atom_type_oxidation_number
K1+	1
O2-	-2
P5+	5
Sb5+	5
loop_
_atom_site_label
_atom_site_type_symbol
_atom_site_symmetry_multiplicity
_atom_site_Wyckoff_symbol
_atom_site_fract_x
_atom_site_fract_y
_atom_site_fract_z
_atom_site_occupancy
_atom_site_attached_hydrogens
Sb1 Sb5+ 3 a 0 0 0 1. 0 
K1 K1+ 3 b 0 0 0.5 1. 0 
P1 P5+ 6 c 0 0 0.26473(5) 1. 0 
O1 O2- 6 c 0 0 0.2067 1. 0 
O2 O2- 18 f 0.9556(5) 0.3050(5) 0.04565(9) 1. 0 

#End of data_61788-ICSD


