data_411121-ICSD
#?2014 by Fachinformationszentrum Karlsruhe, and the U.S. Secretary of 
#Commerce on behalf of the United States.  All rights reserved.
_database_code_ICSD                411121
_audit_creation_date               2002/04/01
_chemical_name_systematic
;
Dirubidium Sodium Hexacyanomanganate(III)
;
_chemical_formula_structural       'Rb2 Na (Mn (C N)6)'
_chemical_formula_sum              'C6 Mn1 N6 Na1 Rb2'
_publ_section_title
;
Kristallstrukturbestimmungen an Cs2 Na Cr (C N)6 und weiteren 
Verbindungen A2 B M (C N)6 (A= Rb, Cs; B= Na, K, Rb, NH4; M= Cr, Mn, 
Fe, Co): Oktaederkippung und Toleranzfaktor von Cyanokryolithen
;
loop_
_citation_id
_citation_journal_abbrev
_citation_year
_citation_journal_volume
_citation_page_first
_citation_page_last
_citation_journal_id_ASTM
primary 'Zeitschrift fuer Anorganische und Allgemeine Chemie (1950) (DE)'
 2000 626 1561 1566 ZAACAB
_publ_author_name
;
Peschel, S.;Ziegler, B.;Schwarten, M.;Babel, D.
;
_cell_length_a                     7.262(2)
_cell_length_b                     7.795(2)
_cell_length_c                     10.604(2)
_cell_angle_alpha                  90.
_cell_angle_beta                   90.54(2)
_cell_angle_gamma                  90.
_cell_volume                       600.24
_cell_formula_units_Z              2
_symmetry_space_group_name_H-M     'P 1 21/n 1'
_symmetry_Int_Tables_number        14
_refine_ls_R_factor_all            .1575
loop_
_symmetry_equiv_pos_site_id
_symmetry_equiv_pos_as_xyz
  1	'-x+.5, y+.5, -z+.5'
  2	'-x, -y, -z'
  3	'x+.5, -y+.5, z+.5'
  4	'x, y, z'
loop_
_atom_type_symbol
_atom_type_oxidation_number
C2+	2
Mn3+	3
N3-	-3
Na1+	1
Rb1+	1
loop_
_atom_site_label
_atom_site_type_symbol
_atom_site_symmetry_multiplicity
_atom_site_Wyckoff_symbol
_atom_site_fract_x
_atom_site_fract_y
_atom_site_fract_z
_atom_site_occupancy
_atom_site_attached_hydrogens
Rb1 Rb1+ 4 e 0.52351(8) -.07425(8) 0.24920(6) 1. 0 
Na1 Na1+ 2 b 0 0 0.5 1. 0 
Mn1 Mn3+ 2 a 0 0 0 1. 0 
C1 C2+ 4 e 0.0760(7) 0.0201(8) 0.1801(5) 1. 0 
N1 N3- 4 e 0.1170(7) 0.0355(7) 0.2834(4) 1. 0 
C2 C2+ 4 e -.2258(7) 0.1376(7) 0.0346(5) 1. 0 
N2 N3- 4 e -.3511(7) 0.2190(7) 0.0562(5) 1. 0 
C3 C2+ 4 e 0.1364(7) 0.2159(7) -.0420(5) 1. 0 
N3 N3- 4 e 0.2155(7) 0.3370(7) -.0659(5) 1. 0 

loop_
_atom_site_aniso_label
_atom_site_aniso_type_symbol
_atom_site_aniso_U_11
_atom_site_aniso_U_22
_atom_site_aniso_U_33
_atom_site_aniso_U_12
_atom_site_aniso_U_13
_atom_site_aniso_U_23
Rb1 Rb1+ 0.0456(4) 0.0372(4) 0.0436(4) -.0050(3) -.0003(3) 0.0014(3)
Na1 Na1+ 0.031(2) 0.027(2) 0.025(2) -.0001(13) -.0009(13) 0.000(2)
Mn1 Mn3+ 0.0247(6) 0.0210(6) 0.0181(6) -.0001(5) -.0008(5) 0.0001(5)
C1 C2+ 0.030(3) 0.028(3) 0.026(3) 0.004(2) 0.004(2) 0.003(3)
N1 N3- 0.046(3) 0.059(4) 0.021(3) 0.005(3) 0.000(2) -.005(2)
C2 C2+ 0.033(3) 0.024(3) 0.019(3) 0.004(2) -.004(2) 0.002(2)
N2 N3- 0.045(3) 0.037(3) 0.045(3) 0.013(3) 0.009(3) 0.008(3)
C3 C2+ 0.020(3) 0.033(3) 0.024(3) 0.003(2) -.004(2) -.002(3)
N3 N3- 0.041(3) 0.042(3) 0.047(3) -.012(3) -.004(3) 0.005(3)
#End of data_411121-ICSD


