data_300165-ICSD
#?2014 by Fachinformationszentrum Karlsruhe, and the U.S. Secretary of 
#Commerce on behalf of the United States.  All rights reserved.
_database_code_ICSD                300165
_audit_creation_date               1991/07/10
_audit_update_record               2000/07/15
_chemical_name_systematic
;
Hexasodium Di-mue-thio-bis(dithioindate)
;
_chemical_formula_structural       'Na6 (S2 (In S2)2)'
_chemical_formula_sum              'In2 Na6 S6'
_publ_section_title
;
Crystal structure of hexasodium di-mue-thio-bis(dithioindate)
;
loop_
_citation_id
_citation_journal_abbrev
_citation_year
_citation_journal_volume
_citation_page_first
_citation_page_last
_citation_journal_id_ASTM
primary 'Zeitschrift fuer Kristallographie (1979-2010)' 1991 197 151 152 ZEKRDZ
_publ_author_name                  'Eisenmann, B.;Hofmann, A.'
_cell_length_a                     15.945(6)
_cell_length_b                     13.456(6)
_cell_length_c                     7.358(4)
_cell_angle_alpha                  90.
_cell_angle_beta                   117.406(60)
_cell_angle_gamma                  90.
_cell_volume                       1401.52
_cell_formula_units_Z              4
_symmetry_space_group_name_H-M     'C 1 2/c 1'
_symmetry_Int_Tables_number        15
_refine_ls_R_factor_all            .044
loop_
_symmetry_equiv_pos_site_id
_symmetry_equiv_pos_as_xyz
  1	'x, -y, z+.5'
  2	'-x, -y, -z'
  3	'-x, y, -z+.5'
  4	'x, y, z'
  5	'x+.5, -y+.5, z+.5'
  6	'-x+.5, -y+.5, -z'
  7	'-x+.5, y+.5, -z+.5'
  8	'x+.5, y+.5, z'
loop_
_atom_type_symbol
_atom_type_oxidation_number
In3+	3
Na1+	1
S2-	-2
loop_
_atom_site_label
_atom_site_type_symbol
_atom_site_symmetry_multiplicity
_atom_site_Wyckoff_symbol
_atom_site_fract_x
_atom_site_fract_y
_atom_site_fract_z
_atom_site_occupancy
_atom_site_attached_hydrogens
Na1 Na1+ 8 f 0.0920(2) 0.0814(2) 0.5454(5) 1. 0 
Na2 Na1+ 8 f 0.2969(2) 0.0664(2) 0.4131(5) 1. 0 
Na3 Na1+ 4 e 0 0.2773(4) 0.25 1. 0 
Na4 Na1+ 4 e 0 0.5653(4) 0.25 1. 0 
In1 In3+ 8 f 0.1728 0.2552 0.0970(1) 1. 0 
S1 S2- 8 f 0.1066(1) 0.1114(1) 0.1823(3) 1. 0 
S2 S2- 8 f 0.1169(1) 0.4099(1) 0.1718(3) 1. 0 
S3 S2- 8 f 0.3502(1) 0.2361(1) 0.2619(2) 1. 0 

#End of data_300165-ICSD


