data_183784-ICSD
#?2014 by Fachinformationszentrum Karlsruhe, and the U.S. Secretary of 
#Commerce on behalf of the United States.  All rights reserved.
_database_code_ICSD                183784
_audit_creation_date               2012/08/01
_chemical_name_systematic          'Sodium Indium Disilicate'
_chemical_formula_structural       'Na In (Si2 O6)'
_chemical_formula_sum              'In1 Na1 O6 Si2'
_chemical_name_mineral             'Clinopyroxene - (Na,In)'
_publ_section_title
;
High-pressure behavior of Na In Si2 O6 and the influence of Me(3+) on 
the compressibility of Na Me(3+) Si2 O6 silicates
;
loop_
_citation_id
_citation_journal_abbrev
_citation_year
_citation_journal_volume
_citation_page_first
_citation_page_last
_citation_journal_id_ASTM
primary 'Solid State Communications' 2012 152 132 137 SSCOA4
_publ_author_name
;
Periotto, B.;Nestola, F.;Balic Zunic, T.;Pasqual, D.;Alvaro, 
M.;Ohashi, H.
;
_cell_length_a                     9.6883(7)
_cell_length_b                     8.8749(9)
_cell_length_c                     5.2453(4)
_cell_angle_alpha                  90.
_cell_angle_beta                   106.240(6)
_cell_angle_gamma                  90.
_cell_volume                       433.01
_cell_formula_units_Z              4
_symmetry_space_group_name_H-M     'C 1 2/c 1'
_symmetry_Int_Tables_number        15
_refine_ls_R_factor_all            .035
loop_
_symmetry_equiv_pos_site_id
_symmetry_equiv_pos_as_xyz
  1	'x, -y, z+.5'
  2	'-x, -y, -z'
  3	'-x, y, -z+.5'
  4	'x, y, z'
  5	'x+.5, -y+.5, z+.5'
  6	'-x+.5, -y+.5, -z'
  7	'-x+.5, y+.5, -z+.5'
  8	'x+.5, y+.5, z'
loop_
_atom_type_symbol
_atom_type_oxidation_number
In3+	3
Na1+	1
O2-	-2
Si4+	4
loop_
_atom_site_label
_atom_site_type_symbol
_atom_site_symmetry_multiplicity
_atom_site_Wyckoff_symbol
_atom_site_fract_x
_atom_site_fract_y
_atom_site_fract_z
_atom_site_occupancy
_atom_site_attached_hydrogens
_atom_site_U_iso_or_equiv
In1 In3+ 4 e 0 0.8958(1) 0.250 1. 0 0.0057(4) 
Na1 Na1+ 4 e 0 0.3076(7) 0.250 1. 0 0.015(1) 
Si1 Si4+ 8 f 0.2922(3) 0.0887(3) 0.2482(4) 1. 0 0.0058(5) 
O1 O2- 8 f 0.1201(7) 0.0838(7) 0.155(1) 1. 0 0.006(1) 
O2 O2- 8 f 0.3551(6) 0.2512(7) 0.3326(9) 1. 0 0.008(1) 
O3 O2- 8 f 0.3536(5) 0.0210(8) 0.0105(8) 1. 0 0.007(1) 

loop_
_atom_site_aniso_label
_atom_site_aniso_type_symbol
_atom_site_aniso_U_11
_atom_site_aniso_U_22
_atom_site_aniso_U_33
_atom_site_aniso_U_12
_atom_site_aniso_U_13
_atom_site_aniso_U_23
In1 In3+ 0.0077(8) 0.0045(9) 0.0049(5) 0. 0.0018(4) 0.
#End of data_183784-ICSD


