data_280240-ICSD
#?2014 by Fachinformationszentrum Karlsruhe, and the U.S. Secretary of 
#Commerce on behalf of the United States.  All rights reserved.
_database_code_ICSD                280240
_audit_creation_date               2002/04/01
_chemical_name_systematic
;
Dirubidium Dizinc Tris(hydrogenphosphate(V))
;
_chemical_formula_structural       'Rb2 Zn2 (H P O4)3'
_chemical_formula_sum              'H3 O12 P3 Rb2 Zn2'
_publ_section_title
;
New rubidium zinc hydrogen phosphate, Rb2 Zn2 (H P O4)3: synthesis, 
crystal structure, and 31P single-crystal NMR
;
loop_
_citation_id
_citation_journal_abbrev
_citation_year
_citation_journal_volume
_citation_page_first
_citation_page_last
_citation_journal_id_ASTM
primary 'Inorganic Chemistry' 2000 39 2026 2032 INOCAJ
_publ_author_name
;
Jensen, T.R.;Hazell, R.G.;Vosegaard, T.;Jacobsen, H.J.
;
_cell_length_a                     12.5880(4)
_cell_length_b                     12.7170(8)
_cell_length_c                     7.5827(8)
_cell_angle_alpha                  90.
_cell_angle_beta                   96.100(1)
_cell_angle_gamma                  90.
_cell_volume                       1206.98
_cell_formula_units_Z              4
_symmetry_space_group_name_H-M     'P 1 21/c 1'
_symmetry_Int_Tables_number        14
_refine_ls_R_factor_all            .036
loop_
_symmetry_equiv_pos_site_id
_symmetry_equiv_pos_as_xyz
  1	'x, -y+.5, z+.5'
  2	'-x, -y, -z'
  3	'-x, y+.5, -z+.5'
  4	'x, y, z'
loop_
_atom_type_symbol
_atom_type_oxidation_number
H1+	1
O2-	-2
P5+	5
Rb1+	1
Zn2+	2
loop_
_atom_site_label
_atom_site_type_symbol
_atom_site_symmetry_multiplicity
_atom_site_Wyckoff_symbol
_atom_site_fract_x
_atom_site_fract_y
_atom_site_fract_z
_atom_site_occupancy
_atom_site_attached_hydrogens
_atom_site_U_iso_or_equiv
Rb1 Rb1+ 4 e -.36941(4) 0.12050(4) 0.62488(7) 1. 0 0 
Rb2 Rb1+ 4 e 0.14458(3) 0.12898(4) 1.10389(6) 1. 0 0 
Zn1 Zn2+ 4 e -.04815(4) 0.10354(4) 0.65436(7) 1. 0 0 
Zn2 Zn2+ 4 e -.33763(4) 0.05181(4) 0.13292(7) 1. 0 0 
P1 P5+ 4 e -.14946(9) 0.17971(9) 1.01186(15) 1. 0 0 
O1 O2- 4 e -.2654(2) 0.1773(2) 1.0516(4) 1. 0 0 
O2 O2- 4 e -.1312(3) 0.1112(3) 0.8556(4) 1. 0 0 
O3 O2- 4 e -.1132(3) 0.2926(2) 0.9831(4) 1. 0 0 
O4 O2- 4 e -.0767(3) 0.1329(3) 1.1744(4) 1. 0 0 
P2 P5+ 4 e 0.17346(9) 0.07887(8) 0.5788(1) 1. 0 0 
O5 O2- 4 e 0.2594(2) 0.0049(2) 0.6552(4) 1. 0 0 
O6 O2- 4 e 0.1011(2) 0.0310(2) 0.4264(4) 1. 0 0 
O7 O2- 4 e 0.1050(3) 0.1234(2) 0.7165(4) 1. 0 0 
O8 O2- 4 e 0.2293(3) 0.1723(2) 0.4878(4) 1. 0 0 
P3 P5+ 4 e 0.43721(9) 0.13548(9) 0.0982(2) 1. 0 0 
O9 O2- 4 e 0.5321(3) 0.0996(2) 0.2257(4) 1. 0 0 
O10 O2- 4 e 0.3536(2) 0.0485(2) 0.0619(4) 1. 0 0 
O11 O2- 4 e 0.3861(2) 0.2336(3) 0.1655(4) 1. 0 0 
O12 O2- 4 e 0.4862(3) 0.1617(3) -.0804(5) 1. 0 0 
H1 H1+ 4 e -.0888 0.1575 1.2768 1. 0 0.028(17) 
H2 H1+ 4 e 0.2807 0.1909 0.5232 1. 0 0.066(28) 
H3 H1+ 4 e 0.4526 0.1967 -.1654 1. 0 0.142(47) 

loop_
_atom_site_aniso_label
_atom_site_aniso_type_symbol
_atom_site_aniso_U_11
_atom_site_aniso_U_22
_atom_site_aniso_U_33
_atom_site_aniso_U_12
_atom_site_aniso_U_13
_atom_site_aniso_U_23
Rb1 Rb1+ 0.0197(3) 0.0273(3) 0.0193(3) -.0022(2) 0.0008(2) -.0014(2)
Rb2 Rb1+ 0.0071(2) 0.0180(2) 0.0144(2) 0.0011(2) 0.0005(2) 0.0035(2)
Zn1 Zn2+ 0.0042(2) 0.0073(2) 0.0109(3) -.0008(2) -.0011(2) -.0005(2)
Zn2 Zn2+ 0.0028(2) 0.0104(3) 0.0128(3) 0.0012(2) -.0010(2) 0.0000(2)
P1 P5+ 0.0041(5) 0.0084(5) 0.0096(5) -.0018(4) 0.0004(4) -.0017(4)
O1 O2- 0.004(1) 0.014(2) 0.021(2) -.001(1) 0.000(1) 0.001(1)
O2 O2- 0.021(2) 0.014(2) 0.014(2) -.003(1) 0.007(2) -.005(1)
O3 O2- 0.017(2) 0.013(2) 0.014(2) -.009(1) -.002(1) 0.000(1)
O4 O2- 0.007(2) 0.023(2) 0.012(2) 0.005(1) -.003(1) 0.004(1)
P2 P5+ 0.0018(5) 0.0057(5) 0.0101(5) -.0001(4) -.0022(4) 0.0005(4)
O5 O2- 0.008(2) 0.018(2) 0.018(2) 0.005(1) -.005(1) 0.003(1)
O6 O2- 0.012(2) 0.008(1) 0.013(2) -.005(1) -.004(1) -.002(1)
O7 O2- 0.007(2) 0.018(2) 0.013(2) 0.001(1) -.001(1) -.004(1)
O8 O2- 0.009(2) 0.014(2) 0.018(2) -.006(1) -.005(1) 0.004(1)
P3 P5+ 0.0021(5) 0.0086(5) 0.0121(5) 0.0025(4) -.0019(4) -.0016(4)
O9 O2- 0.004(1) 0.019(2) 0.015(2) 0.006(1) -.001(1) 0.001(1)
O10 O2- 0.007(2) 0.014(2) 0.018(2) 0.000(1) 0.001(1) -.003(1)
O11 O2- 0.009(2) 0.015(2) 0.021(2) 0.006(1) -.006(1) -.008(1)
O12 O2- 0.007(2) 0.029(2) 0.015(2) 0.006(1) 0.000(1) 0.008(1)
#End of data_280240-ICSD


