data_15631-ICSD
#?2014 by Fachinformationszentrum Karlsruhe, and the U.S. Secretary of 
#Commerce on behalf of the United States.  All rights reserved.
_database_code_ICSD                15631
_audit_creation_date               1980/01/01
_audit_update_record               2007/04/01
_chemical_name_systematic          'Heptalithium Antimonate'
_chemical_formula_structural       'Li7 (Sb O6)'
_chemical_formula_sum              'Li7 O6 Sb1'
_publ_section_title                'Zur Kristallstruktur des Li7 Sb O6'
loop_
_citation_id
_citation_journal_abbrev
_citation_year
_citation_journal_volume
_citation_page_first
_citation_page_last
_citation_journal_id_ASTM
primary
;
Zeitschrift fuer Naturforschung, Teil B. Anorganische Chemie, 
Organische Chemie (2,1947-32,1977)
;
 1969 24 252 252 ZENBAX
2 'Zeitschrift fuer Anorganische und Allgemeine Chemie (1950) (DE)'
 1964 327 15 27 ZAACAB
_publ_author_name                  'Hauck, J.'
_cell_length_a                     5.393(3)
_cell_length_b                     5.393
_cell_length_c                     15.084(8)
_cell_angle_alpha                  90.
_cell_angle_beta                   90.
_cell_angle_gamma                  120.
_cell_volume                       379.93
_cell_formula_units_Z              3
_symmetry_space_group_name_H-M     'R 3 H'
_symmetry_Int_Tables_number        146
_refine_ls_R_factor_all            .11
loop_
_symmetry_equiv_pos_site_id
_symmetry_equiv_pos_as_xyz
  1	'-x+y, -x, z'
  2	'-y, x-y, z'
  3	'x, y, z'
  4	'-x+y+.6666, -x+.3333, z+.3333'
  5	'-x+y+.3333, -x+.6666, z+.6666'
  6	'-y+.6666, x-y+.3333, z+.3333'
  7	'-y+.3333, x-y+.6666, z+.6666'
  8	'x+.6666, y+.3333, z+.3333'
  9	'x+.3333, y+.6666, z+.6666'
loop_
_atom_type_symbol
_atom_type_oxidation_number
Li1+	1
O2-	-2
Sb5+	5
loop_
_atom_site_label
_atom_site_type_symbol
_atom_site_symmetry_multiplicity
_atom_site_Wyckoff_symbol
_atom_site_fract_x
_atom_site_fract_y
_atom_site_fract_z
_atom_site_occupancy
_atom_site_attached_hydrogens
Sb1 Sb5+ 3 a 0 0 0 1. 0 
O1 O2- 9 b 0.32 0.03 0.082 1. 0 
O2 O2- 9 b -.03 -.32 -.082 1. 0 
Li1 Li1+ 9 b -.36 -.33 -.11 1. 0 
Li2 Li1+ 9 b 0.33 0.36 0.11 1. 0 
Li3 Li1+ 3 a 0 0 0.67 1. 0 

#End of data_15631-ICSD


