data_63033-ICSD
#?2014 by Fachinformationszentrum Karlsruhe, and the U.S. Secretary of 
#Commerce on behalf of the United States.  All rights reserved.
_database_code_ICSD                63033
_audit_creation_date               1989/06/19
_chemical_name_systematic
;
Potassium Aluminium Bis(dihydrogen Diphosphate)
;
_chemical_formula_structural       'K Al (H2 P2 O7)2'
_chemical_formula_sum              'H4 Al1 K1 O14 P4'
_publ_section_title
;
Crystal structure of the new K, Al pyrophosphate K Al (H2 P2 O7)2
;
loop_
_citation_id
_citation_journal_abbrev
_citation_year
_citation_journal_volume
_citation_journal_issue
_citation_page_first
_citation_page_last
_citation_journal_id_ASTM
primary Kristallografiya 1988 33- 33 37 KRISAJ
2 'Soviet Physics, Crystallography (= Kristallografiya)'
 1988 33 1 16 19 SPHCA6
_publ_author_name
;
Yakubovich, O.V.;Dadashov, M.S.;Litvin, B.N.
;
_cell_length_a                     4.888(3)
_cell_length_b                     7.453(4)
_cell_length_c                     7.764(5)
_cell_angle_alpha                  97.81(5)
_cell_angle_beta                   95.96(5)
_cell_angle_gamma                  73.86(5)
_cell_volume                       268.53
_cell_formula_units_Z              1
_symmetry_space_group_name_H-M     'P -1'
_symmetry_Int_Tables_number        2
_refine_ls_R_factor_all            .0245
loop_
_symmetry_equiv_pos_site_id
_symmetry_equiv_pos_as_xyz
  1	'-x, -y, -z'
  2	'x, y, z'
loop_
_atom_type_symbol
_atom_type_oxidation_number
Al3+	3
H1+	1
K1+	1
O2-	-2
P5+	5
loop_
_atom_site_label
_atom_site_type_symbol
_atom_site_symmetry_multiplicity
_atom_site_Wyckoff_symbol
_atom_site_fract_x
_atom_site_fract_y
_atom_site_fract_z
_atom_site_occupancy
_atom_site_attached_hydrogens
_atom_site_B_iso_or_equiv
K1 K1+ 1 a 0 0 0 1. 0 1.62(2) 
Al1 Al3+ 1 c 0 0.5 0 1. 0 0.60(2) 
P1 P5+ 2 i 0.41786(8) 0.60475(5) 0.77369(5) 1. 0 0.55(1) 
P2 P5+ 2 i 0.31497(9) 0.23636(5) 0.68475(5) 1. 0 0.65(1) 
O1 O2- 2 i 0.1665(3) 0.1661(2) 0.5228(1) 1. 0 0.99(3) 
O2 O2- 2 i 0.1662(3) 0.2798(1) 0.8499(1) 1. 0 0.97(3) 
O3 O2- 2 i 0.2394(2) 0.6277(1) 0.9266(1) 1. 0 0.79(3) 
O4 O2- 2 i 0.3808(3) 0.4256(2) 0.6471(1) 1. 0 1.14(3) 
O5 O2- 2 i 0.2735(2) 0.4096(2) 0.1796(1) 1. 0 1.07(3) 
O6 O2- 2 i 0.2995(3) 0.7715(2) 0.6644(2) 1. 0 1.10(3) 
O7 O2- 2 i 0.3883(3) 0.9045(2) 0.2800(2) 1. 0 1.23(3) 
H1 H1+ 2 i 0.150(5) 0.783(3) 0.600(3) 1. 0 4.8(6) 
H2 H1+ 2 i 0.315(5) 0.991(3) 0.370(3) 1. 0 5.7(7) 

#End of data_63033-ICSD


