data_171017-ICSD
#?2014 by Fachinformationszentrum Karlsruhe, and the U.S. Secretary of 
#Commerce on behalf of the United States.  All rights reserved.
_database_code_ICSD                171017
_audit_creation_date               2006/04/01
_chemical_name_systematic          'Magnesium Pentaoxoditellurate(IV)'
_chemical_formula_structural       'Mg (Te2 O5)'
_chemical_formula_sum              'Mg1 O5 Te2'
_publ_section_title                'Redetermination of Mg Te2 O5'
loop_
_citation_id
_citation_journal_abbrev
_citation_year
_citation_journal_volume
_citation_page_first
_citation_page_last
_citation_journal_id_ASTM
primary 'Acta Crystallographica, Section E. Structure Reports Online'
 2005 61 i237 i239 ACSEBH
_publ_author_name                  'Weil, M.'
_cell_length_a                     7.2391(9)
_cell_length_b                     10.6580(10)
_cell_length_c                     5.9880(6)
_cell_angle_alpha                  90.00
_cell_angle_beta                   90.00
_cell_angle_gamma                  90.00
_cell_volume                       462
_cell_formula_units_Z              4
_symmetry_space_group_name_H-M     'P b c n'
_symmetry_Int_Tables_number        60
_refine_ls_R_factor_all            .0207
loop_
_symmetry_equiv_pos_site_id
_symmetry_equiv_pos_as_xyz
  1	'x, -y, z+.5'
  2	'-x+.5, y+.5, z'
  3	'x+.5, y+.5, -z+.5'
  4	'-x, -y, -z'
  5	'-x, y, -z+.5'
  6	'x+.5, -y+.5, -z'
  7	'-x+.5, -y+.5, z+.5'
  8	'x, y, z'
loop_
_atom_type_symbol
_atom_type_oxidation_number
Mg2+	2
O2-	-2
Te4+	4
loop_
_atom_site_label
_atom_site_type_symbol
_atom_site_symmetry_multiplicity
_atom_site_Wyckoff_symbol
_atom_site_fract_x
_atom_site_fract_y
_atom_site_fract_z
_atom_site_occupancy
_atom_site_attached_hydrogens
_atom_site_U_iso_or_equiv
Mg1 Mg2+ 4 c 0.0000 0.44331(7) 0.2500 1 0 0.00966(14) 
Te1 Te4+ 8 d 0.133353(13) 0.154562(9) 0.010001(18) 1 0 0.00856(5) 
O1 O2- 8 d 0.19064(18) 0.29457(11) 0.1816(2) 1 0 0.0145(2) 
O2 O2- 8 d 0.35061(16) 0.06582(12) 0.0487(2) 1 0 0.0120(2) 
O3 O2- 4 c 0.0000 0.06250(16) 0.2500 1 0 0.0156(3) 

loop_
_atom_site_aniso_label
_atom_site_aniso_type_symbol
_atom_site_aniso_U_11
_atom_site_aniso_U_22
_atom_site_aniso_U_33
_atom_site_aniso_U_12
_atom_site_aniso_U_13
_atom_site_aniso_U_23
Mg1 Mg2+ 0.0094(3) 0.0092(3) 0.0104(3) 0.000 -0.0014(2) 0.000
Te1 Te4+ 0.00683(7) 0.00788(7) 0.01098(8) 0.00041(2) -0.00014(2) 
-0.00088(2)
O1 O2- 0.0138(5) 0.0109(5) 0.0189(6) 0.0010(4) -0.0022(4) -0.0049(4)
O2 O2- 0.0098(5) 0.0123(5) 0.0138(5) 0.0051(4) 0.0015(4) 0.0016(4)
O3 O2- 0.0175(7) 0.0106(6) 0.0186(8) 0.000 0.0092(6) 0.000
#End of data_171017-ICSD


