data_16255-ICSD
#?2014 by Fachinformationszentrum Karlsruhe, and the U.S. Secretary of 
#Commerce on behalf of the United States.  All rights reserved.
_database_code_ICSD                16255
_audit_creation_date               1980/01/01
_audit_update_record               2006/04/01
_chemical_name_systematic
;
Dicesium Sodium Hexafluoroferrate(III)
;
_chemical_formula_structural       'Cs2 Na (Fe F6)'
_chemical_formula_sum              'Cs2 F6 Fe1 Na1'
_publ_section_title
;
Ueber Hexafluoroferrate(III): Cs2 Tl Fe F6, Cs2 K Fe F6, Rb2 K Rb2 K 
Fe F6, Rb2 Na Fe F6 und Cs2 Na Fe F6
;
loop_
_citation_id
_citation_journal_abbrev
_citation_year
_citation_journal_volume
_citation_page_first
_citation_page_last
_citation_journal_id_ASTM
primary 'Zeitschrift fuer Anorganische und Allgemeine Chemie (1950) (DE)'
 1974 407 305 312 ZAACAB
_publ_author_name                  'Alter, E.;Hoppe, R.'
_cell_length_a                     6.281
_cell_length_b                     6.281
_cell_length_c                     30.532
_cell_angle_alpha                  90.
_cell_angle_beta                   90.
_cell_angle_gamma                  120.
_cell_volume                       1043.14
_cell_formula_units_Z              6
_symmetry_space_group_name_H-M     'R -3 m H'
_symmetry_Int_Tables_number        166
loop_
_symmetry_equiv_pos_site_id
_symmetry_equiv_pos_as_xyz
  1	'x-y, -y, -z'
  2	'-x, -x+y, -z'
  3	'y, x, -z'
  4	'x-y, x, -z'
  5	'y, -x+y, -z'
  6	'-x, -y, -z'
  7	'-x+y, y, z'
  8	'x, x-y, z'
  9	'-y, -x, z'
 10	'-x+y, -x, z'
 11	'-y, x-y, z'
 12	'x, y, z'
 13	'x-y+.6666, -y+.3333, -z+.3333'
 14	'x-y+.3333, -y+.6666, -z+.6666'
 15	'-x+.6666, -x+y+.3333, -z+.3333'
 16	'-x+.3333, -x+y+.6666, -z+.6666'
 17	'y+.6666, x+.3333, -z+.3333'
 18	'y+.3333, x+.6666, -z+.6666'
 19	'x-y+.6666, x+.3333, -z+.3333'
 20	'x-y+.3333, x+.6666, -z+.6666'
 21	'y+.6666, -x+y+.3333, -z+.3333'
 22	'y+.3333, -x+y+.6666, -z+.6666'
 23	'-x+.6666, -y+.3333, -z+.3333'
 24	'-x+.3333, -y+.6666, -z+.6666'
 25	'-x+y+.6666, y+.3333, z+.3333'
 26	'-x+y+.3333, y+.6666, z+.6666'
 27	'x+.6666, x-y+.3333, z+.3333'
 28	'x+.3333, x-y+.6666, z+.6666'
 29	'-y+.6666, -x+.3333, z+.3333'
 30	'-y+.3333, -x+.6666, z+.6666'
 31	'-x+y+.6666, -x+.3333, z+.3333'
 32	'-x+y+.3333, -x+.6666, z+.6666'
 33	'-y+.6666, x-y+.3333, z+.3333'
 34	'-y+.3333, x-y+.6666, z+.6666'
 35	'x+.6666, y+.3333, z+.3333'
 36	'x+.3333, y+.6666, z+.6666'
loop_
_atom_type_symbol
_atom_type_oxidation_number
Cs1+	1
F1-	-1
Fe3+	3
Na1+	1
loop_
_atom_site_label
_atom_site_type_symbol
_atom_site_symmetry_multiplicity
_atom_site_Wyckoff_symbol
_atom_site_fract_x
_atom_site_fract_y
_atom_site_fract_z
_atom_site_occupancy
_atom_site_attached_hydrogens
Cs1 Cs1+ 6 c 0 0 0.13 1. 0 
Cs2 Cs1+ 6 c 0 0 0.28 1. 0 
Na1 Na1+ 6 c 0 0 0.41 1. 0 
Fe1 Fe3+ 3 a 0 0 0 1. 0 
Fe2 Fe3+ 3 b 0 0 0.5 1. 0 
F1 F1- 18 h 0.15 -.15 0.467 1. 0 
F2 F1- 18 h 0.18 -.18 0.636 1. 0 

#End of data_16255-ICSD


