data_38344-ICSD
#?2014 by Fachinformationszentrum Karlsruhe, and the U.S. Secretary of 
#Commerce on behalf of the United States.  All rights reserved.
_database_code_ICSD                38344
_audit_creation_date               1984/12/31
_chemical_name_systematic          'Magnesium Aluminium Tetrasulfide'
_chemical_formula_structural       'Mg Al2 S4'
_chemical_formula_sum              'Al2 Mg1 S4'
_publ_section_title
;
Die Strukturen des Mg Al2 S4 und Mg0.830 In2.113 S4
;
loop_
_citation_id
_citation_journal_abbrev
_citation_year
_citation_journal_volume
_citation_page_first
_citation_page_last
_citation_journal_id_ASTM
primary 'Materials Research Bulletin' 1984 19 77 82 MRBUAC
_publ_author_name
;
Eisenmann, B.;Jakowski, M.;Schaefer, H.
;
_cell_length_a                     12.511(6)
_cell_length_b                     7.220(4)
_cell_length_c                     5.921(4)
_cell_angle_alpha                  90.
_cell_angle_beta                   90.
_cell_angle_gamma                  90.
_cell_volume                       534.84
_cell_formula_units_Z              4
_symmetry_space_group_name_H-M     'P n m a'
_symmetry_Int_Tables_number        62
_refine_ls_R_factor_all            .055
loop_
_symmetry_equiv_pos_site_id
_symmetry_equiv_pos_as_xyz
  1	'x+.5, y, -z+.5'
  2	'x, -y+.5, z'
  3	'-x+.5, y+.5, z+.5'
  4	'-x, -y, -z'
  5	'-x+.5, -y, z+.5'
  6	'-x, y+.5, -z'
  7	'x+.5, -y+.5, -z+.5'
  8	'x, y, z'
loop_
_atom_type_symbol
_atom_type_oxidation_number
Al3+	3
Mg2+	2
S2-	-2
loop_
_atom_site_label
_atom_site_type_symbol
_atom_site_symmetry_multiplicity
_atom_site_Wyckoff_symbol
_atom_site_fract_x
_atom_site_fract_y
_atom_site_fract_z
_atom_site_occupancy
_atom_site_attached_hydrogens
Mg1 Mg2+ 4 c 0.2658(2) 0.25 0.9971(5) 1. 0 
Al1 Al3+ 4 c 0.0854(1) 0.25 0.4117(4) 1. 0 
Al2 Al3+ 4 a 0 0 0 1. 0 
S1 S2- 4 c 0.0844(2) 0.25 0.7869(3) 1. 0 
S2 S2- 4 c 0.4260(2) 0.25 0.2713(4) 1. 0 
S3 S2- 8 d 0.1578(1) 0.0044(2) 0.2396(2) 1. 0 

loop_
_atom_site_aniso_label
_atom_site_aniso_type_symbol
_atom_site_aniso_U_11
_atom_site_aniso_U_22
_atom_site_aniso_U_33
_atom_site_aniso_U_12
_atom_site_aniso_U_13
_atom_site_aniso_U_23
Mg1 Mg2+ 0.0151(13) 0.0143(14) 0.0137(14) 0 -.0008(12) 0
Al1 Al3+ 0.0109(11) 0.0074(11) 0.0034(10) 0 0.0003(9) 0
Al2 Al3+ 0.0095(10) 0.0079(11) 0.0092(11) 0.0018(9) -.0006(9) -.0005(10)
S1 S2- 0.0089(8) 0.0056(8) 0.0048(9) 0 -.0010(7) 0
S2 S2- 0.0057(8) 0.0078(8) 0.0080(9) 0 -.0013(7) 0
S3 S2- 0.0096(6) 0.0074(6) 0.0082(6) 0.0002(5) -.0015(5) 0.0006(6)
#End of data_38344-ICSD


