data_246369-ICSD
#?2014 by Fachinformationszentrum Karlsruhe, and the U.S. Secretary of 
#Commerce on behalf of the United States.  All rights reserved.
_database_code_ICSD                246369
_audit_creation_date               2009/08/01
_chemical_name_systematic          'Dicesium Calcium Divanadate(VI)'
_chemical_formula_structural       'Cs2 Ca (V2 O7)'
_chemical_formula_sum              'Ca1 Cs2 O7 V2'
_publ_section_title
;
Synthesis, crystal structure and luminescent properties of 
pyrovanadates A2 Ca V2 O7 (A = Rb, Cs)
;
loop_
_citation_id
_citation_journal_abbrev
_citation_year
_citation_journal_volume
_citation_journal_issue
_citation_page_first
_citation_page_last
_citation_journal_id_ASTM
primary 'Solid State Sciences' 2009 11 3 726 732 SSSCFJ
_publ_author_name
;
Zubkov, V.G.;Tyutyunnik, A.P.;Tarakina, N.V.;Berger, I.F.;Surat, 
L.L.;Slobodin, B.V.;Svensson, G.;Forslund, B.;Shulgin, 
B.V.;Pustovarov, V.A.;Ishchenko, A.V.;Cherepanov, A.N.
;
_cell_length_a                     14.0713(2)
_cell_length_b                     6.0934(1)
_cell_length_c                     10.5944(1)
_cell_angle_alpha                  90
_cell_angle_beta                   104.608(1)
_cell_angle_gamma                  90
_cell_volume                       879.02
_cell_formula_units_Z              4
_symmetry_space_group_name_H-M     'P 1 21/n 1'
_symmetry_Int_Tables_number        14
_refine_ls_R_factor_all            .0339
loop_
_symmetry_equiv_pos_site_id
_symmetry_equiv_pos_as_xyz
  1	'-x+.5, y+.5, -z+.5'
  2	'-x, -y, -z'
  3	'x+.5, -y+.5, z+.5'
  4	'x, y, z'
loop_
_atom_type_symbol
_atom_type_oxidation_number
Ca2+	2
Cs1+	1
O2-	-2
V5+	5
loop_
_atom_site_label
_atom_site_type_symbol
_atom_site_symmetry_multiplicity
_atom_site_Wyckoff_symbol
_atom_site_fract_x
_atom_site_fract_y
_atom_site_fract_z
_atom_site_occupancy
_atom_site_attached_hydrogens
_atom_site_U_iso_or_equiv
Ca1 Ca2+ 4 e 0.0151(4) 0.243(2) 0.252(1) 1. 0 0.011(1) 
Cs1 Cs1+ 4 e 0.3229(1) 0.2744(9) 0.3600(3) 1. 0 0.0245(9) 
Cs2 Cs1+ 4 e 0.8451(1) 0.732(1) 0.3630(4) 1. 0 0.033(1) 
V1 V5+ 4 e 0.1215(4) 0.273(2) -0.0486(8) 1. 0 0.013(2) 
V2 V5+ 4 e 0.3688(4) 0.261(3) 0.0333(9) 1. 0 0.026(2) 
O1 O2- 4 e 0.0495(8) 0.078(2) 0.867(1) 1. 0 0.013(3) 
O2 O2- 4 e 0.1000(9) 0.518(2) 0.876(2) 1. 0 0.015(3) 
O3 O2- 4 e 0.1155(8) 0.279(2) 0.107(1) 1. 0 0.015(4) 
O4 O2- 4 e 0.242(1) 0.192(2) -0.0563(9) 1. 0 0.026(3) 
O5 O2- 4 e 0.3700(9) 0.498(2) 0.118(2) 1. 0 0.018(3) 
O6 O2- 4 e 0.431(1) 0.291(3) -0.082(1) 1. 0 0.036(5) 
O7 O2- 4 e 0.4102(8) 0.049(2) 0.136(2) 1. 0 0.022(4) 

#End of data_246369-ICSD


