data_407796-ICSD
#?2014 by Fachinformationszentrum Karlsruhe, and the U.S. Secretary of 
#Commerce on behalf of the United States.  All rights reserved.
_database_code_ICSD                407796
_audit_creation_date               1999/06/02
_audit_update_record               2012/02/01
_chemical_name_systematic
;
Sodium Iron Trihydroxoheptaoxoborodiphosphate(V)
;
_chemical_formula_structural       'Na Fe (B P2 O7 (O H)3)'
_chemical_formula_sum              'H3 B1 Fe1 Na1 O10 P2'
_publ_section_title
;
Oligomere Tetraeder-Anionen in Borophosphaten: Darstellung und 
Kristallstrukturen von Na Fe (B P2 O7 (O H)3) und K2 Fe2 (B2 P4 O16 
(O H)2)
;
loop_
_citation_id
_citation_journal_abbrev
_citation_year
_citation_journal_volume
_citation_page_first
_citation_page_last
_citation_journal_id_ASTM
primary 'Zeitschrift fuer Naturforschung, B: Chemical Sciences'
 1998 53 165 170 ZNBSEN
_publ_author_name
;
Boy, I.;Cordier, G.;Eisenmann, B.;Kniep, R.
;
_cell_length_a                     10.420(2)
_cell_length_b                     8.215(1)
_cell_length_c                     9.217(1)
_cell_angle_alpha                  90.
_cell_angle_beta                   116.60(1)
_cell_angle_gamma                  90.
_cell_volume                       705.47
_cell_formula_units_Z              4
_symmetry_space_group_name_H-M     'C 1 2/c 1'
_symmetry_Int_Tables_number        15
_refine_ls_R_factor_all            .0319
loop_
_symmetry_equiv_pos_site_id
_symmetry_equiv_pos_as_xyz
  1	'x, -y, z+.5'
  2	'-x, -y, -z'
  3	'-x, y, -z+.5'
  4	'x, y, z'
  5	'x+.5, -y+.5, z+.5'
  6	'-x+.5, -y+.5, -z'
  7	'-x+.5, y+.5, -z+.5'
  8	'x+.5, y+.5, z'
loop_
_atom_type_symbol
_atom_type_oxidation_number
B3+	3
Fe3+	3
H1+	1
Na1+	1
O2-	-2
P5+	5
loop_
_atom_site_label
_atom_site_type_symbol
_atom_site_symmetry_multiplicity
_atom_site_Wyckoff_symbol
_atom_site_fract_x
_atom_site_fract_y
_atom_site_fract_z
_atom_site_occupancy
_atom_site_attached_hydrogens
_atom_site_U_iso_or_equiv
Na1 Na1+ 4 e 0 0.1332(2) 0.25 1. 0 0 
Fe1 Fe3+ 4 c 0.25 0.25 0 1. 0 0 
B1 B3+ 4 e 0 0.5265(4) 0.25 1. 0 0 
P1 P5+ 8 f 0.27814(6) 0.43168(7) 0.32312(6) 1. 0 0 
O1 O2- 8 f 0.1116(2) 0.4177(2) 0.2507(2) 1. 0 0 
O2 O2- 8 f 0.1598(2) 0.1990(2) 0.5429(2) 1. 0 0 
O3 O2- 8 f 0.1729(2) 0.1024(2) 0.1095(2) 1. 0 0 
O4 O2- 8 f 0.3251(2) 0.4008(2) 0.1916(2) 1. 0 0 
O5 O2- 8 f 0.4406(2) 0.1263(2) 0.1014(2) 1. 0 0 
H1 H1+ 8 f 0.4934(44) 0.1617(52) 0.0857(46) 1. 0 0.035(11) 
H2 H1+ 4 d 0.25 0.25 0.5 1. 0 0.073(25) 

loop_
_atom_site_aniso_label
_atom_site_aniso_type_symbol
_atom_site_aniso_U_11
_atom_site_aniso_U_22
_atom_site_aniso_U_33
_atom_site_aniso_U_12
_atom_site_aniso_U_13
_atom_site_aniso_U_23
Na1 Na1+ 0.0200(7) 0.0218(7) 0.0268(8) 0 0.0082(6) 0
Fe1 Fe3+ 0.0112(2) 0.0096(2) 0.0104(2) 0.0006(2) 0.0045(2) 0.00079(15)
B1 B3+ 0.0088(13) 0.0098(14) 0.0132(14) 0 0.0032(11) 0
P1 P5+ 0.0092(2) 0.0106(2) 0.0112(3) 0.0000(2) 0.0046(2) -.0006(2)
O1 O2- 0.0092(6) 0.0125(7) 0.0171(7) 0.0006(6) 0.0047(6) -.0016(6)
O2 O2- 0.0150(7) 0.0162(8) 0.0151(8) 0.0013(6) 0.0057(6) 0.0051(6)
O3 O2- 0.0144(7) 0.0124(7) 0.0158(7) 0.0021(6) 0.0083(6) 0.0034(6)
O4 O2- 0.0145(7) 0.0163(8) 0.0128(7) -.0019(6) 0.0078(6) -.0031(6)
O5 O2- 0.0108(7) 0.0149(8) 0.0129(7) 0.0016(6) 0.0049(6) 0.0031(6)
#End of data_407796-ICSD


