data_187835-ICSD
#?2014 by Fachinformationszentrum Karlsruhe, and the U.S. Secretary of 
#Commerce on behalf of the United States.  All rights reserved.
_database_code_ICSD                187835
_audit_creation_date               2013/08/01
_chemical_name_systematic          'Tetrapotassium Pyrophosphate'
_chemical_formula_structural       'K4 (P2 O7)'
_chemical_formula_sum              'K4 O7 P2'
_publ_section_title
;
Tetrapotassium pyrophosphates gamma- and delta-K4 P2 O7
;
loop_
_citation_id
_citation_journal_abbrev
_citation_year
_citation_journal_volume
_citation_journal_issue
_citation_page_first
_citation_page_last
_citation_journal_id_ASTM
primary 'Powder Diffraction' 2013 28 1 2 12 PODIE2
_publ_author_name
;
Le Bail, A.;Hansen, T.;Crichton, W.A.
;
_cell_length_a                     10.21145(7)
_cell_length_b                     10.21145(7)
_cell_length_c                     42.6958(4)
_cell_angle_alpha                  90.
_cell_angle_beta                   90.
_cell_angle_gamma                  120.
_cell_volume                       3855.59
_cell_formula_units_Z              18
_symmetry_space_group_name_H-M     'P 61'
_symmetry_Int_Tables_number        169
_refine_ls_R_factor_all            .0325
loop_
_symmetry_equiv_pos_site_id
_symmetry_equiv_pos_as_xyz
  1	'x-y, x, z+.1667'
  2	'y, -x+y, z+.8333'
  3	'-x, -y, z+.5'
  4	'-x+y, -x, z+.6667'
  5	'-y, x-y, z+.3333'
  6	'x, y, z'
loop_
_atom_type_symbol
_atom_type_oxidation_number
K1+	1
O2-	-2
P5+	5
loop_
_atom_site_label
_atom_site_type_symbol
_atom_site_symmetry_multiplicity
_atom_site_Wyckoff_symbol
_atom_site_fract_x
_atom_site_fract_y
_atom_site_fract_z
_atom_site_occupancy
_atom_site_attached_hydrogens
_atom_site_U_iso_or_equiv
K1 K1+ 6 a 0.3041(6) 0.3892(6) 0.27646(14) 1. 0 0.0210(3) 
K2 K1+ 6 a 0.2946(6) -0.0075(6) 0.20455(12) 1. 0 0.0210(3) 
K3 K1+ 6 a 0.9995(6) 0.0366(6) 0.16267(16) 1. 0 0.0210(3) 
K4 K1+ 6 a 0.0029(6) 0.0354(5) 0.24872(14) 1. 0 0.0210(3) 
K5 K1+ 6 a 0.3466(5) 0.2755(6) 0.60834(13) 1. 0 0.0210(3) 
K6 K1+ 6 a 0.3490(5) 0.3219(5) 0.95177(12) 1. 0 0.0210(3) 
K7 K1+ 6 a 0.2775(6) 0.9274(6) 0.55312(13) 1. 0 0.0210(3) 
K8 K1+ 6 a 0.4159(6) 0.0535(7) 0.88773(14) 1. 0 0.0210(3) 
K9 K1+ 6 a 0.3021(6) 0.6853(5) 0.16560(17) 1. 0 0.0210(3) 
K10 K1+ 6 a 0.6580(8) 0.3767(5) 0.16655(19) 1. 0 0.0210(3) 
K11 K1+ 6 a 0.3179(5) 0.7326(7) 0.25110(13) 1. 0 0.0210(3) 
K12 K1+ 6 a 0.5891(6) 0.3221(6) 0.250 1. 0 0.0210(3) 
P1 P5+ 6 a 0.2841(3) 0.3720(3) 0.19718(5) 1. 0 0.0066(4) 
P2 P5+ 6 a 0.2753(3) -0.0434(2) 0.36569(5) 1. 0 0.0066(4) 
P3 P5+ 6 a 0.2933(3) 0.0211(3) 0.29666(5) 1. 0 0.0066(4) 
P4 P5+ 6 a 0.3723(3) 0.3950(3) 0.13060(5) 1. 0 0.0066(4) 
P5 P5+ 6 a 0.3857(3) 0.3518(3) 0.86794(6) 1. 0 0.0066(4) 
P6 P5+ 6 a 0.3608(3) 0.3125(3) 0.79736(6) 1. 0 0.0066(4) 
O1 O2- 6 a 0.2744(7) 0.2390(5) 0.21457(13) 1. 0 0.0114(5) 
O2 O2- 6 a 0.2592(8) -0.1846(5) 0.38081(14) 1. 0 0.0114(5) 
O3 O2- 6 a 0.3526(7) 0.5168(5) 0.21557(13) 1. 0 0.0114(5) 
O4 O2- 6 a 0.4218(4) 0.0963(5) 0.37430(15) 1. 0 0.0114(5) 
O5 O2- 6 a 0.1353(4) 0.3340(7) 0.18222(14) 1. 0 0.0114(5) 
O6 O2- 6 a 0.1387(5) -0.0261(8) 0.37097(16) 1. 0 0.0114(5) 
O7 O2- 6 a 0.4347(5) 0.0474(7) 0.28001(14) 1. 0 0.0114(5) 
O8 O2- 6 a 0.3475(7) 0.5246(5) 0.12215(16) 1. 0 0.0114(5) 
O9 O2- 6 a 0.3035(8) 0.1674(4) 0.30690(15) 1. 0 0.0114(5) 
O10 O2- 6 a 0.2382(5) 0.2433(4) 0.12278(15) 1. 0 0.0114(5) 
O11 O2- 6 a 0.1502(5) -0.0781(6) 0.27867(14) 1. 0 0.0114(5) 
O12 O2- 6 a 0.5182(5) 0.4144(7) 0.11709(14) 1. 0 0.0114(5) 
O13 O2- 6 a 0.4000(4) 0.4037(5) 0.16820(5) 1. 0 0.0114(5) 
O14 O2- 6 a 0.2826(6) -0.0711(4) 0.32845(4) 1. 0 0.0114(5) 
O15 O2- 6 a 0.2819(6) 0.2315(5) 0.89075(11) 1. 0 0.0114(5) 
O16 O2- 6 a 0.3841(7) 0.4983(4) 0.87082(15) 1. 0 0.0114(5) 
O17 O2- 6 a 0.5434(4) 0.3747(7) 0.86810(16) 1. 0 0.0114(5) 
O18 O2- 6 a 0.3826(7) 0.4662(4) 0.78944(15) 1. 0 0.0114(5) 
O19 O2- 6 a 0.2268(5) 0.1855(5) 0.78077(13) 1. 0 0.0114(5) 
O20 O2- 6 a 0.5029(5) 0.3034(8) 0.79406(16) 1. 0 0.0114(5) 
O21 O2- 6 a 0.3128(4) 0.2838(5) 0.83399(4) 1. 0 0.0114(5) 

#End of data_187835-ICSD


