data_170597-ICSD
#?2014 by Fachinformationszentrum Karlsruhe, and the U.S. Secretary of 
#Commerce on behalf of the United States.  All rights reserved.
_database_code_ICSD                170597
_audit_creation_date               2006/04/01
_chemical_name_systematic          'Calcium Rhodium Oxide'
_chemical_formula_structural       'Ca Rh2 O4'
_chemical_formula_sum              'Ca1 O4 Rh2'
_publ_section_title
;
High-pressure synthesis, crystal structure determination, and a Ca 
substitution study of the metallic rhodium oxide Na Rh2 O4
;
loop_
_citation_id
_citation_journal_abbrev
_citation_year
_citation_journal_volume
_citation_journal_issue
_citation_page_first
_citation_page_last
_citation_journal_id_ASTM
primary 'Chemistry of Materials' 2005 17 2 359 365 CMATEX
_publ_author_name
;
Yamaura, K.;Huang, Q.;Moldovan, M.;Young, D.P.;Sato, A.;Baba, 
Y.;Nagai, T.;Matsui, Y.;Takayama Muromachi, E.
;
_cell_length_a                     9.0354(3)
_cell_length_b                     3.0340(1)
_cell_length_c                     10.7062(3)
_cell_angle_alpha                  90.000
_cell_angle_beta                   90.000
_cell_angle_gamma                  90.000
_cell_volume                       293.49
_cell_formula_units_Z              4
_symmetry_space_group_name_H-M     'P n m a'
_symmetry_Int_Tables_number        62
_refine_ls_R_factor_all            .038
loop_
_symmetry_equiv_pos_site_id
_symmetry_equiv_pos_as_xyz
  1	'x+.5, y, -z+.5'
  2	'x, -y+.5, z'
  3	'-x+.5, y+.5, z+.5'
  4	'-x, -y, -z'
  5	'-x+.5, -y, z+.5'
  6	'-x, y+.5, -z'
  7	'x+.5, -y+.5, -z+.5'
  8	'x, y, z'
loop_
_atom_type_symbol
_atom_type_oxidation_number
Ca2+	2
O2-	-2
Rh3+	3
loop_
_atom_site_label
_atom_site_type_symbol
_atom_site_symmetry_multiplicity
_atom_site_Wyckoff_symbol
_atom_site_fract_x
_atom_site_fract_y
_atom_site_fract_z
_atom_site_occupancy
_atom_site_attached_hydrogens
_atom_site_U_iso_or_equiv
Ca1 Ca2+ 4 c 0.2381(1) 0.2500 0.3401(1) 1.000 0 0.01227(11) 
Rh1 Rh3+ 4 c 0.0864(0) 0.2500 0.6001(0) 1.000 0 0.00568(5) 
Rh2 Rh3+ 4 c 0.0563(0) 0.2500 0.1151(0) 1.000 0 0.00534(5) 
O1 O2- 4 c 0.3015(3) 0.2500 0.6622(2) 1.000 0 0.00699(30) 
O2 O2- 4 c 0.3825(2) 0.2500 -0.0236(2) 1.000 0 0.00528(30) 
O3 O2- 4 c 0.4688(3) 0.2500 0.2114(2) 1.000 0 0.00598(30) 
O4 O2- 4 c 0.0850(2) 0.2500 -0.0726(2) 1.000 0 0.00528(30) 

loop_
_atom_site_aniso_label
_atom_site_aniso_type_symbol
_atom_site_aniso_U_11
_atom_site_aniso_U_22
_atom_site_aniso_U_33
_atom_site_aniso_U_12
_atom_site_aniso_U_13
_atom_site_aniso_U_23
Ca1 Ca2+ 0.00722(20) 0.02156(32) 0.00808(19) 0.00000 0.00004(16) 0.00000
Rh1 Rh3+ 0.00514(8) 0.00677(8) 0.00515(7) 0.00000 -0.00016(5) 0.00000
Rh2 Rh3+ 0.00512(8) 0.00553(8) 0.00543(7) 0.00000 -0.00022(5) 0.00000
O1 O2- 0.00350(61) 0.00757(75) 0.00997(69) 0.00000 0.00025(56) 0.00000
O2 O2- 0.00326(59) 0.00772(71) 0.00480(55) 0.00000 0.00019(49) 0.00000
O3 O2- 0.00595(67) 0.00750(72) 0.00449(58) 0.00000 -0.00154(51) 0.00000
O4 O2- 0.00367(63) 0.00564(61) 0.00653(61) 0.00000 -0.00041(50) 0.00000
#End of data_170597-ICSD


