data_414154-ICSD
#?2014 by Fachinformationszentrum Karlsruhe, and the U.S. Secretary of 
#Commerce on behalf of the United States.  All rights reserved.
_database_code_ICSD                414154
_audit_creation_date               2005/10/01
_chemical_name_systematic
;
Cubo-tetrabismuthtetrasulfur-tetrakis(tetrachloroaluminate)
;
_chemical_formula_structural       '(Bi4 S4) (Al Cl4)4'
_chemical_formula_sum              'Al4 Bi4 Cl16 S4'
_publ_section_title
;
The cube-shaped main group element clusters (Bi4 S4)(4+) and (Bi4 
Se4)(4+) - synthesis from chloroaluminate melts, crystal structures 
and vibrational spectra
;
loop_
_citation_id
_citation_journal_abbrev
_citation_year
_citation_journal_volume
_citation_page_first
_citation_page_last
_citation_journal_id_ASTM
primary 'Zeitschrift fuer Anorganische und Allgemeine Chemie (1950) (DE)'
 2004 630 2512 2519 ZAACAB
_publ_author_name                  'Beck, J.;Schlueter, S.;Zotov, N.'
_cell_length_a                     11.8160(2)
_cell_length_b                     11.8160(2)
_cell_length_c                     11.0475(2)
_cell_angle_alpha                  90.00
_cell_angle_beta                   90.00
_cell_angle_gamma                  90.00
_cell_volume                       1542.43
_cell_formula_units_Z              2
_symmetry_space_group_name_H-M     'I -4'
_symmetry_Int_Tables_number        82
_refine_ls_R_factor_all            .0375
loop_
_symmetry_equiv_pos_site_id
_symmetry_equiv_pos_as_xyz
  1	'-y, x, -z'
  2	'y, -x, -z'
  3	'-x, -y, z'
  4	'x, y, z'
  5	'-y+.5, x+.5, -z+.5'
  6	'y+.5, -x+.5, -z+.5'
  7	'-x+.5, -y+.5, z+.5'
  8	'x+.5, y+.5, z+.5'
loop_
_atom_type_symbol
_atom_type_oxidation_number
Al3+	3
Bi3+	3
Cl1-	-1
S2-	-2
loop_
_atom_site_label
_atom_site_type_symbol
_atom_site_symmetry_multiplicity
_atom_site_Wyckoff_symbol
_atom_site_fract_x
_atom_site_fract_y
_atom_site_fract_z
_atom_site_occupancy
_atom_site_attached_hydrogens
_atom_site_U_iso_or_equiv
Bi1 Bi3+ 8 g 0.43885(3) 0.84554(3) 0.63111(3) 1 0 0.02437(17) 
S1 S2- 8 g 0.6403(2) 0.9459(2) 0.6254(2) 1 0 0.0250(4) 
Cl1 Cl1- 8 g 0.8637(2) 0.5499(3) 0.6368(2) 1 0 0.0341(5) 
Cl2 Cl1- 8 g 0.6985(2) 0.6802(2) 0.8696(3) 1 0 0.0365(5) 
Cl3 Cl1- 8 g 0.6070(2) 0.6534(2) 0.5721(2) 1 0 0.0334(5) 
Cl4 Cl1- 8 g 0.6327(3) 0.4117(2) 0.7715(3) 1 0 0.0390(6) 
Al1 Al3+ 8 g 0.6972(3) 0.5701(2) 0.7165(3) 1 0 0.0250(6) 

loop_
_atom_site_aniso_label
_atom_site_aniso_type_symbol
_atom_site_aniso_U_11
_atom_site_aniso_U_22
_atom_site_aniso_U_33
_atom_site_aniso_U_12
_atom_site_aniso_U_13
_atom_site_aniso_U_23
Bi1 Bi3+ 0.0235(2) 0.0244(2) 0.0252(2) -0.00007(12) -0.00042(13) 
-0.00368(13)
S1 S2- 0.0229(10) 0.0266(12) 0.0255(10) 0.0021(9) 0.0031(10) -0.0005(10)
Cl1 Cl1- 0.0248(10) 0.0510(16) 0.0267(11) 0.0071(10) -0.0005(10) 
-0.0024(12)
Cl2 Cl1- 0.0517(15) 0.0269(11) 0.0309(11) 0.0015(10) 0.0016(12) -0.0062(10)
Cl3 Cl1- 0.0359(14) 0.0318(13) 0.0326(12) 0.0091(9) -0.0058(11) 0.0014(10)
Cl4 Cl1- 0.0465(16) 0.0246(12) 0.0458(15) -0.0048(10) 0.0020(12) 0.0033(11)
Al1 Al3+ 0.0259(14) 0.0220(14) 0.0273(14) 0.0033(11) 0.0001(12) -0.0009(10)
#End of data_414154-ICSD


