data_75401-ICSD
#?2014 by Fachinformationszentrum Karlsruhe, and the U.S. Secretary of 
#Commerce on behalf of the United States.  All rights reserved.
_database_code_ICSD                75401
_audit_creation_date               1996/04/22
_chemical_name_systematic
;
Potassium Copper Carbonate Fluoride
;
_chemical_formula_structural       'K Cu (C O3) F'
_chemical_formula_sum              'C1 Cu1 F1 K1 O3'
_publ_section_title
;
Synthesis, characterization and crystal structure of a new copper 
fluorocarbonate K Cu (C O3) F
;
loop_
_citation_id
_citation_journal_abbrev
_citation_year
_citation_journal_volume
_citation_page_first
_citation_page_last
_citation_journal_id_ASTM
primary 'European Journal of Solid State Inorganic Chemistry'
 1994 31 423 430 EJSCE5
_publ_author_name                  'Mercier, N.;le Blanc, M.'
_cell_length_a                     3.972(1)
_cell_length_b                     5.038(2)
_cell_length_c                     9.005(5)
_cell_angle_alpha                  90.
_cell_angle_beta                   90.
_cell_angle_gamma                  90.
_cell_volume                       180.2
_cell_formula_units_Z              2
_symmetry_space_group_name_H-M     'P m c 21'
_symmetry_Int_Tables_number        26
_refine_ls_R_factor_all            .021
loop_
_symmetry_equiv_pos_site_id
_symmetry_equiv_pos_as_xyz
  1	'x, -y, z+.5'
  2	'-x, -y, z+.5'
  3	'-x, y, z'
  4	'x, y, z'
loop_
_atom_type_symbol
_atom_type_oxidation_number
C4+	4
Cu2+	2
F1-	-1
K1+	1
O2-	-2
loop_
_atom_site_label
_atom_site_type_symbol
_atom_site_symmetry_multiplicity
_atom_site_Wyckoff_symbol
_atom_site_fract_x
_atom_site_fract_y
_atom_site_fract_z
_atom_site_occupancy
_atom_site_attached_hydrogens
K1 K1+ 2 b 0.5 0.7108(2) 0.0759(1) 1. 0 
Cu1 Cu2+ 2 a 0 0.7833(1) 0.7340(1) 1. 0 
F1 F1- 2 b 0.5 0.1961(4) 0.2287(5) 1. 0 
C1 C4+ 2 a 0 0.2168(7) 0.9139(4) 1. 0 
O1 O2- 2 a 0 0.0398(5) 0.4239(3) 1. 0 
O2 O2- 2 a 0 0.3545(6) 0.0352(3) 1. 0 
O3 O2- 2 a 0 0.6674(5) 0.2884(3) 1. 0 

loop_
_atom_site_aniso_label
_atom_site_aniso_type_symbol
_atom_site_aniso_U_11
_atom_site_aniso_U_22
_atom_site_aniso_U_33
_atom_site_aniso_U_12
_atom_site_aniso_U_13
_atom_site_aniso_U_23
K1 K1+ 0.0123(3) 0.0166(3) 0.0192(3) 0 0 0.0022(4)
Cu1 Cu2+ 0.0083(1) 0.0119(2) 0.0086(1) 0 0 -.0025(3)
F1 F1- 0.0102(7) 0.0268(11) 0.0266(11) 0 0 0.0012(15)
C1 C4+ 0.0110(12) 0.0111(12) 0.0077(12) 0 0 0.0002(10)
O1 O2- 0.0182(10) 0.0106(10) 0.0082(9) 0 0 0.0001(8)
O2 O2- 0.0215(12) 0.0115(10) 0.0086(9) 0 0 -.0019(8)
O3 O2- 0.0241(13) 0.0141(13) 0.0082(9) 0 0 -.0031(9)
#End of data_75401-ICSD


