data_77540-ICSD
#?2014 by Fachinformationszentrum Karlsruhe, and the U.S. Secretary of 
#Commerce on behalf of the United States.  All rights reserved.
_database_code_ICSD                77540
_audit_creation_date               2003/04/01
_chemical_name_systematic          'Dialuminium Silicate Oxide'
_chemical_formula_structural       'Al2 (Si O4) O'
_chemical_formula_sum              'Al2 O5 Si1'
_chemical_name_mineral             Kyanite
_publ_section_title
;
High-pressure behavior of kyanite: Compressibility and structural 
deformations
;
loop_
_citation_id
_citation_journal_abbrev
_citation_year
_citation_journal_volume
_citation_page_first
_citation_page_last
_citation_journal_id_ASTM
primary 'American Mineralogist' 1997 82 452 459 AMMIAY
_publ_author_name
;
Comodi, P.;Zanazzi, P.F.;Poli, S.;Schmidt, M.W.
;
_cell_length_a                     7.079(5)
_cell_length_b                     7.824(3)
_cell_length_c                     5.547(2)
_cell_angle_alpha                  90.13(3)
_cell_angle_beta                   101.00(5)
_cell_angle_gamma                  105.98(5)
_cell_volume                       289.44
_cell_formula_units_Z              4
_symmetry_space_group_name_H-M     'P -1'
_symmetry_Int_Tables_number        2
_refine_ls_R_factor_all            .059
loop_
_symmetry_equiv_pos_site_id
_symmetry_equiv_pos_as_xyz
  1	'-x, -y, -z'
  2	'x, y, z'
loop_
_atom_type_symbol
_atom_type_oxidation_number
Al3+	3
O2-	-2
Si4+	4
loop_
_atom_site_label
_atom_site_type_symbol
_atom_site_symmetry_multiplicity
_atom_site_Wyckoff_symbol
_atom_site_fract_x
_atom_site_fract_y
_atom_site_fract_z
_atom_site_occupancy
_atom_site_attached_hydrogens
_atom_site_U_iso_or_equiv
Si1 Si4+ 2 i 0.298(1) 0.0660(5) 0.7073(6) 1. 0 0.0025(7) 
Si2 Si4+ 2 i 0.292(2) 0.3316(5) 0.1895(6) 1. 0 0.0031(7) 
Al1 Al3+ 2 i 0.326(2) 0.7043(6) 0.4592(7) 1. 0 0.0037(7) 
Al2 Al3+ 2 i 0.299(2) 0.6992(5) 0.9506(7) 1. 0 0.0045(7) 
Al3 Al3+ 2 i 0.103(2) 0.3866(6) 0.6403(7) 1. 0 0.0036(7) 
Al4 Al3+ 2 i 0.112(2) 0.9181(5) 0.1652(7) 1. 0 0.0037(8) 
O1 O2- 2 i 0.108(4) 0.148(1) 0.132(2) 1. 0 0.006(2) 
O2 O2- 2 i 0.129(4) 0.687(1) 0.184(2) 1. 0 0.003(2) 
O3 O2- 2 i 0.272(3) 0.455(1) 0.956(1) 1. 0 0.004(2) 
O4 O2- 2 i 0.283(4) 0.936(1) 0.936(2) 1. 0 0.004(2) 
O5 O2- 2 i 0.110(5) 0.151(1) 0.665(2) 1. 0 0.008(2) 
O6 O2- 2 i 0.118(4) 0.631(1) 0.638(2) 1. 0 0.004(2) 
O7 O2- 2 i 0.285(4) 0.446(1) 0.429(2) 1. 0 0.004(2) 
O8 O2- 2 i 0.292(3) 0.947(1) 0.465(1) 1. 0 0.006(2) 
O9 O2- 2 i 0.499(4) 0.275(1) 0.245(2) 1. 0 0.004(2) 
O10 O2- 2 i 0.498(5) 0.232(1) 0.754(2) 1. 0 0.004(2) 

#End of data_77540-ICSD


