data_91754-ICSD
#?2014 by Fachinformationszentrum Karlsruhe, and the U.S. Secretary of 
#Commerce on behalf of the United States.  All rights reserved.
_database_code_ICSD                91754
_audit_creation_date               2002/10/01
_chemical_name_systematic
;
Potassium Chromium Heptathiodiphosphate(V)
;
_chemical_formula_structural       'K Cr (P2 S7)'
_chemical_formula_sum              'Cr1 K1 P2 S7'
_publ_section_title
;
Synthesis and crystal structure determination of three layered-type 
thiophosphate compounds K M P2 S7 (M = Cr, V, In)
;
loop_
_citation_id
_citation_journal_abbrev
_citation_year
_citation_journal_volume
_citation_page_first
_citation_page_last
_citation_journal_id_ASTM
primary 'Materials Research Bulletin' 2000 35 1401 1410 MRBUAC
_publ_author_name
;
Kopnin, E.;Coste, S.;Jobic, S.;Evain, M.;Brec, R.
;
_cell_length_a                     8.5146(6)
_cell_length_b                     9.5848(6)
_cell_length_c                     6.3052(5)
_cell_angle_alpha                  90.
_cell_angle_beta                   97.981(8)
_cell_angle_gamma                  90.
_cell_volume                       509.59
_cell_formula_units_Z              2
_symmetry_space_group_name_H-M     'C 1 2 1'
_symmetry_Int_Tables_number        5
_refine_ls_R_factor_all            .031
loop_
_symmetry_equiv_pos_site_id
_symmetry_equiv_pos_as_xyz
  1	'-x, y, -z'
  2	'x, y, z'
  3	'-x+.5, y+.5, -z'
  4	'x+.5, y+.5, z'
loop_
_atom_type_symbol
_atom_type_oxidation_number
Cr3+	3
K1+	1
P5+	5
S2-	-2
loop_
_atom_site_label
_atom_site_type_symbol
_atom_site_symmetry_multiplicity
_atom_site_Wyckoff_symbol
_atom_site_fract_x
_atom_site_fract_y
_atom_site_fract_z
_atom_site_occupancy
_atom_site_attached_hydrogens
K1 K1+ 2 b 0 0.0962(4) 0.5 1. 0 
Cr1 Cr3+ 2 a 0.5 0 0 1. 0 
P1 P5+ 4 c 0.7016(1) 0.3468(1) 0.0796(1) 1. 0 
S1 S2- 4 c 0.3402(1) 0.9726(1) 0.2836(1) 1. 0 
S2 S2- 4 c 0.6840(1) 0.8284(1) 0.1781(1) 1. 0 
S3 S2- 4 c 0.6458(1) 0.1733(1) 0.2310(1) 1. 0 
S4 S2- 2 a 0 0.9772(2) 0 1. 0 

loop_
_atom_site_aniso_label
_atom_site_aniso_type_symbol
_atom_site_aniso_U_11
_atom_site_aniso_U_22
_atom_site_aniso_U_33
_atom_site_aniso_U_12
_atom_site_aniso_U_13
_atom_site_aniso_U_23
K1 K1+ 0.0325(8) 0.098(2) 0.0316(9) 0 0.0023(7) 0
Cr1 Cr3+ 0.0086(4) 0.0076(4) 0.0158(4) 0 0.0043(3) 0
P1 P5+ 0.0081(4) 0.0092(4) 0.0144(4) -.0021(4) 0.0014(3) 0.0003(3)
S1 S2- 0.0131(4) 0.0177(5) 0.0161(4) -.0064(4) 0.0038(3) -.0058(4)
S2 S2- 0.0228(5) 0.0159(5) 0.0206(4) 0.0074(4) 0.0114(4) 0.0073(4)
S3 S2- 0.0212(5) 0.0142(4) 0.0189(5) -.0081(4) -.0026(4) 0.0045(4)
S4 S2- 0.0114(6) 0.0142(7) 0.0328(7) 0 -.0022(5) 0
#End of data_91754-ICSD


