data_200254-ICSD
#?2014 by Fachinformationszentrum Karlsruhe, and the U.S. Secretary of 
#Commerce on behalf of the United States.  All rights reserved.
_database_code_ICSD                200254
_audit_creation_date               1980/01/01
_chemical_name_systematic          'Potassium Iron(III) Oxide'
_chemical_formula_structural       'K Fe O2'
_chemical_formula_sum              'Fe1 K1 O2'
_publ_section_title
;
Crystal and magnetic structure of K Fe O2
;
loop_
_citation_id
_citation_journal_abbrev
_citation_year
_citation_journal_volume
_citation_page_first
_citation_page_last
_citation_journal_id_ASTM
primary 'Journal of Physics and Chemistry of Solids' 1977 38 1117 1123 JPCSAW
_publ_author_name                  'Tomkowicz, Z.;Szytula, A.'
_cell_length_a                     5.577(1)
_cell_length_b                     11.227(1)
_cell_length_c                     15.890(2)
_cell_angle_alpha                  90.
_cell_angle_beta                   90.
_cell_angle_gamma                  90.
_cell_volume                       994.92
_cell_formula_units_Z              16
_symmetry_space_group_name_H-M     'P b c a'
_symmetry_Int_Tables_number        61
loop_
_symmetry_equiv_pos_site_id
_symmetry_equiv_pos_as_xyz
  1	'x+.5, y, -z+.5'
  2	'x, -y+.5, z+.5'
  3	'-x+.5, y+.5, z'
  4	'-x, -y, -z'
  5	'-x+.5, -y, z+.5'
  6	'-x, y+.5, -z+.5'
  7	'x+.5, -y+.5, -z'
  8	'x, y, z'
loop_
_atom_type_symbol
_atom_type_oxidation_number
Fe3+	3
K1+	1
O2-	-2
loop_
_atom_site_label
_atom_site_type_symbol
_atom_site_symmetry_multiplicity
_atom_site_Wyckoff_symbol
_atom_site_fract_x
_atom_site_fract_y
_atom_site_fract_z
_atom_site_occupancy
_atom_site_attached_hydrogens
K1 K1+ 8 c 0.758(7) 0.008(3) 0.072(3) 1. 0 
K2 K1+ 8 c 0.816(3) 0.262(3) 0.180(2) 1. 0 
Fe1 Fe3+ 8 c 0.243(2) 0.006(2) 0.183(1) 1. 0 
Fe2 Fe3+ 8 c 0.285(1) 0.263(1) 0.065(1) 1. 0 
O1 O2- 8 c 0.591(1) 0.289(2) 0.017(1) 1. 0 
O2 O2- 8 c 0.157(4) 0.416(2) 0.096(1) 1. 0 
O3 O2- 8 c 0.282(3) 0.169(2) 0.161(1) 1. 0 
O4 O2- 8 c 0.068(4) 0.481(1) 0.284(1) 1. 0 

#End of data_200254-ICSD


