data_416427-ICSD
#?2014 by Fachinformationszentrum Karlsruhe, and the U.S. Secretary of 
#Commerce on behalf of the United States.  All rights reserved.
_database_code_ICSD                416427
_audit_creation_date               2007/08/01
_chemical_name_systematic
;
Dipotassium Bismuth Orthophosphate Tetraoxomolybdate(VI)
;
_chemical_formula_structural       'K2 Bi (P O4) (Mo O4)'
_chemical_formula_sum              'Bi1 K2 Mo1 O8 P1'
_publ_section_title
;
Synthesis, characterization and crystal structure of K2 Bi (P O4) (Mo 
O4)
;
loop_
_citation_id
_citation_journal_abbrev
_citation_year
_citation_journal_volume
_citation_journal_issue
_citation_page_first
_citation_page_last
_citation_journal_id_ASTM
primary 'Journal of Solid State Chemistry' 2006 179 11 3550 3555 JSSCBI
_publ_author_name
;
Zatovsky, I.V.;Terebilenko, K.V.;Slobodyanik, N.S.;Baumer, 
V.N.;Shishkin, O.V.
;
_cell_length_a                     19.7037(10)
_cell_length_b                     12.4752(10)
_cell_length_c                     7.0261(10)
_cell_angle_alpha                  90
_cell_angle_beta                   90
_cell_angle_gamma                  90
_cell_volume                       1727.07
_cell_formula_units_Z              8
_symmetry_space_group_name_H-M     'I b c a'
_symmetry_Int_Tables_number        73
_refine_ls_R_factor_all            .035
loop_
_symmetry_equiv_pos_site_id
_symmetry_equiv_pos_as_xyz
  1	'x, y+.5, -z'
  2	'x+.5, -y, z'
  3	'-x, y, z+.5'
  4	'-x, -y, -z'
  5	'-x, -y+.5, z'
  6	'-x+.5, y, -z'
  7	'x, -y, -z+.5'
  8	'x, y, z'
  9	'x+.5, y, -z+.5'
 10	'x, -y+.5, z+.5'
 11	'-x+.5, y+.5, z'
 12	'-x+.5, -y+.5, -z+.5'
 13	'-x+.5, -y, z+.5'
 14	'-x, y+.5, -z+.5'
 15	'x+.5, -y+.5, -z'
 16	'x+.5, y+.5, z+.5'
loop_
_atom_type_symbol
_atom_type_oxidation_number
Bi3+	3
K1+	1
Mo6+	6
O2-	-2
P5+	5
loop_
_atom_site_label
_atom_site_type_symbol
_atom_site_symmetry_multiplicity
_atom_site_Wyckoff_symbol
_atom_site_fract_x
_atom_site_fract_y
_atom_site_fract_z
_atom_site_occupancy
_atom_site_attached_hydrogens
_atom_site_U_iso_or_equiv
Bi1 Bi3+ 8 d 0.25 0.58076(2) 0 1 0 0.01127(18) 
K1 K1+ 16 f 0.09441(9) 0.83076(14) 0.2163(3) 1 0 0.0303(4) 
Mo1 Mo6+ 8 c 0.08133(4) 0.5 0.25 1 0 0.0185(2) 
P1 P5+ 8 d 0.25 0.82328(18) 0 1 0 0.0105(5) 
O1 O2- 16 f 0.2385(3) 0.9005(4) 0.1689(8) 1 0 0.0193(10) 
O2 O2- 16 f 0.3118(3) 0.7499(4) 0.0277(7) 1 0 0.0177(10) 
O3 O2- 16 f 0.1319(3) 0.5332(4) 0.0468(9) 1 0 0.0268(11) 
O4 O2- 16 f 0.0310(3) 0.3901(5) 0.1907(10) 1 0 0.0397(15) 

loop_
_atom_site_aniso_label
_atom_site_aniso_type_symbol
_atom_site_aniso_U_11
_atom_site_aniso_U_22
_atom_site_aniso_U_33
_atom_site_aniso_U_12
_atom_site_aniso_U_13
_atom_site_aniso_U_23
Bi1 Bi3+ 0.0168(2) 0.0074(2) 0.0096(2) 0 -0.00033(11) 0
K1 K1+ 0.0222(7) 0.0393(9) 0.0294(9) 0.0053(7) 0.0014(7) -0.0017(7)
Mo1 Mo6+ 0.0143(4) 0.0200(4) 0.0213(4) 0 0 0.0009(3)
P1 P5+ 0.0188(12) 0.0044(9) 0.0084(12) 0 -0.0005(8) 0
O1 O2- 0.040(3) 0.0086(18) 0.009(2) -0.002(2) 0.002(2) -0.0007(18)
O2 O2- 0.018(2) 0.0116(19) 0.024(3) 0.0013(19) -0.001(2) 0.0043(18)
O3 O2- 0.026(3) 0.026(3) 0.028(3) -0.004(2) 0.002(3) 0.004(2)
O4 O2- 0.030(3) 0.047(3) 0.042(4) -0.025(3) 0.003(3) -0.004(3)
#End of data_416427-ICSD


