data_402642-ICSD
#?2014 by Fachinformationszentrum Karlsruhe, and the U.S. Secretary of 
#Commerce on behalf of the United States.  All rights reserved.
_database_code_ICSD                402642
_audit_creation_date               1997/11/10
_chemical_name_systematic
;
Tripotassium Tetrathioantimonate - Beta
;
_chemical_formula_structural       'K3 (Sb S4)'
_chemical_formula_sum              'K3 S4 Sb1'
_publ_section_title
;
Crystal structure of a new modification of potassium 
tetrathioantimonate, beta-K3SbS4
;
loop_
_citation_id
_citation_journal_abbrev
_citation_year
_citation_journal_volume
_citation_page_first
_citation_page_last
_citation_journal_id_ASTM
primary 'Zeitschrift fuer Kristallographie - New Crystal Structures'
 1997 212 95 96 ZKNSFT
_publ_author_name                  'Bensch, W.;Duerichen, P.'
_cell_length_a                     10.712(2)
_cell_length_b                     11.289(2)
_cell_length_c                     7.7052(15)
_cell_angle_alpha                  90.
_cell_angle_beta                   90.
_cell_angle_gamma                  90.
_cell_volume                       931.77
_cell_formula_units_Z              4
_symmetry_space_group_name_H-M     'C m c 21'
_symmetry_Int_Tables_number        36
_refine_ls_R_factor_all            .0659
loop_
_symmetry_equiv_pos_site_id
_symmetry_equiv_pos_as_xyz
  1	'x, -y, z+.5'
  2	'-x, -y, z+.5'
  3	'-x, y, z'
  4	'x, y, z'
  5	'x+.5, -y+.5, z+.5'
  6	'-x+.5, -y+.5, z+.5'
  7	'-x+.5, y+.5, z'
  8	'x+.5, y+.5, z'
loop_
_atom_type_symbol
_atom_type_oxidation_number
K1+	1
S2-	-2
Sb5+	5
loop_
_atom_site_label
_atom_site_type_symbol
_atom_site_symmetry_multiplicity
_atom_site_Wyckoff_symbol
_atom_site_fract_x
_atom_site_fract_y
_atom_site_fract_z
_atom_site_occupancy
_atom_site_attached_hydrogens
Sb1 Sb5+ 4 a 1 0.75467(8) 0.9804 1. 0 
S1 S2- 4 a 1 0.9091(4) 0.7765(9) 1. 0 
S2 S2- 8 b 0.1778(4) 0.7692(3) 1.1556(6) 1. 0 
S3 S2- 4 a 1 0.5710(4) 0.8361(9) 1. 0 
K1 K1+ 8 b 0.2232(3) 0.9699(3) 0.4886(10) 1. 0 
K2 K1+ 4 a 1 0.7007(4) 0.4808(12) 1. 0 

loop_
_atom_site_aniso_label
_atom_site_aniso_type_symbol
_atom_site_aniso_U_11
_atom_site_aniso_U_22
_atom_site_aniso_U_33
_atom_site_aniso_U_12
_atom_site_aniso_U_13
_atom_site_aniso_U_23
Sb1 Sb5+ 0.0206(6) 0.0146(6) 0.0182(6) 0 0 -.0012(6)
S1 S2- 0.029(2) 0.022(2) 0.025(2) 0 0 0.003(2)
S2 S2- 0.027(2) 0.0278(14) 0.028(2) 0.0033(13) -.007(2) -.004(2)
S3 S2- 0.038(3) 0.018(2) 0.023(2) 0 0 0.004(2)
K1 K1+ 0.0391(14) 0.0336(14) 0.047(2) 0.0136(11) 0.005(3) 0.005(2)
K2 K1+ 0.081(3) 0.026(2) 0.024(2) 0 0 0.001(3)
#End of data_402642-ICSD


