data_249512-ICSD
#?2014 by Fachinformationszentrum Karlsruhe, and the U.S. Secretary of 
#Commerce on behalf of the United States.  All rights reserved.
_database_code_ICSD                249512
_audit_creation_date               2008/08/01
_chemical_name_systematic
;
Potassium Tritechnetium Nonaoxide Tetrafluoride Sesqui(technetium 
Trioxide Fluoride)
;
_chemical_formula_structural       'K (Tc3 O9 F4) (Tc O3 F)1.5'
_chemical_formula_sum              'F5.5 K1 O13.5 Tc4.5'
_publ_section_title
;
Technetium fluoride trioxide, Tc O3 F, preparation and properties
;
loop_
_citation_id
_citation_journal_abbrev
_citation_year
_citation_journal_volume
_citation_journal_issue
_citation_page_first
_citation_page_last
_citation_journal_id_ASTM
primary 'Inorganic Chemistry' 2007 46 14 5591 5595 INOCAJ
_publ_author_name
;
Supel, J.;Abram, U.;Hagenbach, A.;Seppelt, K.
;
_cell_length_a                     8.2721(10)
_cell_length_b                     14.1477(11)
_cell_length_c                     24.749(3)
_cell_angle_alpha                  90.00
_cell_angle_beta                   92.719(10)
_cell_angle_gamma                  90.00
_cell_volume                       2893.14
_cell_formula_units_Z              8
_symmetry_space_group_name_H-M     'P 1 21/c 1'
_symmetry_Int_Tables_number        14
_refine_ls_R_factor_all            .0628
loop_
_symmetry_equiv_pos_site_id
_symmetry_equiv_pos_as_xyz
  1	'x, -y+.5, z+.5'
  2	'-x, -y, -z'
  3	'-x, y+.5, -z+.5'
  4	'x, y, z'
loop_
_atom_type_symbol
_atom_type_oxidation_number
F1-	-1
K1+	1
O2-	-2
Tc7+	7
loop_
_atom_site_label
_atom_site_type_symbol
_atom_site_symmetry_multiplicity
_atom_site_Wyckoff_symbol
_atom_site_fract_x
_atom_site_fract_y
_atom_site_fract_z
_atom_site_occupancy
_atom_site_attached_hydrogens
_atom_site_U_iso_or_equiv
Tc1 Tc7+ 4 e 0.03385(5) 0.83491(3) 0.190567(18) 1 0 0.01327(9) 
Tc2 Tc7+ 4 e 0.45185(5) 0.82307(3) 0.168588(17) 1 0 0.01298(9) 
Tc3 Tc7+ 4 e 0.18334(5) 0.90621(4) 0.064303(18) 1 0 0.01775(10) 
O1 O2- 4 e 0.0888(4) 0.7358(3) 0.22450(16) 1 0 0.0191(8) 
O2 O2- 4 e -0.0528(4) 0.9042(3) 0.23594(15) 1 0 0.0191(8) 
O3 O2- 4 e -0.1177(4) 0.7995(3) 0.14759(16) 1 0 0.0212(9) 
O4 O2- 4 e 0.5985(5) 0.8867(3) 0.20066(16) 1 0 0.0218(9) 
O5 O2- 4 e 0.4260(4) 0.7275(3) 0.20775(15) 1 0 0.0180(8) 
O6 O2- 4 e 0.5346(4) 0.7783(3) 0.11307(15) 1 0 0.0195(9) 
O7 O2- 4 e 0.3221(5) 0.8477(3) 0.02904(16) 1 0 0.0276(10) 
O8 O2- 4 e 0.0065(5) 0.8573(3) 0.04236(16) 1 0 0.0250(10) 
O9 O2- 4 e 0.1807(5) 1.0161(3) 0.03890(17) 1 0 0.0285(10) 
F1 F1- 4 e 0.0670(3) 0.9472(2) 0.13473(12) 1 0 0.0160(6) 
F2 F1- 4 e 0.2665(3) 0.8884(2) 0.20992(12) 1 0 0.0149(6) 
F3 F1- 4 e 0.3747(3) 0.9395(2) 0.12050(12) 1 0 0.0157(6) 
F4 F1- 4 e 0.2096(3) 0.7941(2) 0.12706(12) 1 0 0.0153(6) 
Tc4 Tc7+ 4 e 0.42352(5) 0.85648(3) 0.361131(18) 1 0 0.01432(10) 
Tc5 Tc7+ 4 e 0.00656(5) 0.84162(3) 0.385242(18) 1 0 0.01362(10) 
Tc6 Tc7+ 4 e 0.19453(5) 1.06572(3) 0.377336(18) 1 0 0.01425(10) 
O10 O2- 4 e 0.3731(5) 0.7599(3) 0.32471(16) 1 0 0.0216(9) 
O11 O2- 4 e 0.5116(4) 0.9279(3) 0.31669(16) 1 0 0.0207(9) 
O12 O2- 4 e 0.5745(4) 0.8209(3) 0.40480(16) 1 0 0.0203(9) 
O13 O2- 4 e -0.0750(4) 0.7931(3) 0.43974(15) 1 0 0.0183(8) 
O14 O2- 4 e 0.0301(4) 0.7511(3) 0.34204(16) 1 0 0.0197(9) 
O15 O2- 4 e -0.1434(4) 0.9061(3) 0.35475(15) 1 0 0.0195(8) 
O16 O2- 4 e 0.0082(4) 1.0866(3) 0.34916(16) 1 0 0.0197(8) 
O17 O2- 4 e 0.2189(5) 1.1433(3) 0.42805(16) 1 0 0.0206(9) 
O18 O2- 4 e 0.3181(5) 1.1026(3) 0.32950(16) 1 0 0.0227(9) 
F5 F1- 4 e 0.3831(3) 0.9794(2) 0.40861(12) 1 0 0.0156(6) 
F6 F1- 4 e 0.2451(3) 0.8149(2) 0.41460(12) 1 0 0.0154(6) 
F7 F1- 4 e 0.0811(3) 0.9654(2) 0.42596(12) 1 0 0.0145(6) 
F8 F1- 4 e 0.1860(3) 0.9230(2) 0.33727(12) 1 0 0.0147(6) 
Tc7 Tc7+ 4 e -0.29496(5) 1.08757(4) 0.452426(18) 1 0 0.01723(10) 
O19 O2- 4 e -0.3321(5) 1.0902(3) 0.38311(15) 1 0 0.0210(9) 
O20 O2- 4 e -0.1225(5) 1.1481(3) 0.46750(17) 1 0 0.0269(10) 
O21 O2- 4 e -0.2722(5) 0.9734(3) 0.47353(17) 1 0 0.0264(10) 
F9 F1- 4 e -0.4550(5) 1.1421(3) 0.48424(16) 1 0 0.0402(10) 
Tc8 Tc7+ 4 e -0.27962(6) 1.06142(4) 0.096183(19) 1 0 0.02038(11) 
O22 O2- 4 e -0.4525(5) 1.1252(3) 0.07781(18) 1 0 0.0304(10) 
O23 O2- 4 e -0.1173(5) 1.1128(3) 0.06962(16) 1 0 0.0254(9) 
O24 O2- 4 e -0.3007(5) 0.9509(3) 0.07027(19) 1 0 0.0334(11) 
F10 F1- 4 e -0.2467(5) 1.0576(3) 0.16695(17) 1 0 0.0451(11) 
Tc9 Tc7+ 4 e -0.73813(5) 1.13429(4) 0.20094(2) 1 0 0.01909(11) 
O25 O2- 4 e -0.7573(5) 1.1392(3) 0.13253(18) 1 0 0.0303(10) 
O26 O2- 4 e -0.7229(4) 1.2456(3) 0.22490(18) 1 0 0.0257(10) 
O27 O2- 4 e -0.9066(4) 1.0801(3) 0.22810(16) 1 0 0.0187(8) 
F11 F1- 4 e -0.5588(5) 1.0724(3) 0.21889(17) 1 0 0.0389(10) 
K1 K1+ 4 e -0.25452(14) 1.05097(9) 0.27570(5) 1 0 0.0187(2) 
K2 K1+ 4 e -0.31598(15) 0.78875(10) 0.00115(5) 1 0 0.0242(3) 

loop_
_atom_site_aniso_label
_atom_site_aniso_type_symbol
_atom_site_aniso_U_11
_atom_site_aniso_U_22
_atom_site_aniso_U_33
_atom_site_aniso_U_12
_atom_site_aniso_U_13
_atom_site_aniso_U_23
Tc1 Tc7+ 0.01005(18) 0.0147(2) 0.0152(2) -0.00087(16) 0.00177(15) 
-0.00061(17)
Tc2 Tc7+ 0.00937(18) 0.0145(2) 0.0151(2) 0.00152(16) 0.00031(15) 
-0.00011(17)
Tc3 Tc7+ 0.0159(2) 0.0250(3) 0.0123(2) 0.00567(19) 0.00079(16) 0.00200(19)
O1 O2- 0.0160(18) 0.018(2) 0.023(2) 0.0006(16) 0.0011(15) 0.0015(17)
O2 O2- 0.0190(18) 0.017(2) 0.022(2) -0.0009(16) 0.0079(15) -0.0040(17)
O3 O2- 0.0150(18) 0.023(2) 0.025(2) -0.0035(16) -0.0044(15) -0.0052(17)
O4 O2- 0.0192(19) 0.019(2) 0.027(2) -0.0039(17) -0.0022(16) -0.0035(18)
O5 O2- 0.0136(17) 0.018(2) 0.023(2) 0.0016(15) 0.0006(15) 0.0005(16)
O6 O2- 0.0197(19) 0.018(2) 0.021(2) 0.0057(16) 0.0046(15) -0.0018(16)
O7 O2- 0.025(2) 0.042(3) 0.017(2) 0.008(2) 0.0055(16) -0.0040(19)
O8 O2- 0.020(2) 0.036(3) 0.019(2) 0.0068(18) -0.0027(16) -0.0020(18)
O9 O2- 0.033(2) 0.028(3) 0.024(2) 0.005(2) 0.0024(18) 0.0089(19)
F1 F1- 0.0159(14) 0.0166(17) 0.0153(15) 0.0032(13) 0.0006(12) 0.0003(13)
F2 F1- 0.0125(14) 0.0160(17) 0.0160(15) -0.0019(12) -0.0005(11) -0.0046(13)
F3 F1- 0.0153(14) 0.0145(17) 0.0172(15) -0.0015(12) 0.0004(12) 0.0019(13)
F4 F1- 0.0108(13) 0.0158(17) 0.0193(16) 0.0018(12) 0.0014(11) -0.0004(13)
Tc4 Tc7+ 0.00997(18) 0.0166(3) 0.0165(2) -0.00050(17) 0.00159(15) 
-0.00047(18)
Tc5 Tc7+ 0.00941(18) 0.0159(2) 0.0155(2) -0.00248(17) -0.00027(15) 
0.00092(17)
Tc6 Tc7+ 0.01108(19) 0.0135(2) 0.0180(2) -0.00144(17) -0.00125(16) 
0.00267(18)
O10 O2- 0.021(2) 0.022(2) 0.022(2) -0.0035(17) 0.0008(16) -0.0039(17)
O11 O2- 0.0161(18) 0.023(2) 0.023(2) 0.0002(16) 0.0046(15) 0.0029(17)
O12 O2- 0.0161(18) 0.021(2) 0.024(2) 0.0015(16) -0.0003(15) 0.0044(17)
O13 O2- 0.0171(18) 0.020(2) 0.018(2) -0.0037(16) 0.0035(15) 0.0029(16)
O14 O2- 0.0166(18) 0.020(2) 0.023(2) -0.0043(16) -0.0016(15) -0.0039(17)
O15 O2- 0.0127(17) 0.022(2) 0.023(2) -0.0017(16) -0.0051(15) 0.0055(17)
O16 O2- 0.0129(17) 0.018(2) 0.028(2) 0.0017(16) -0.0023(15) 0.0066(17)
O17 O2- 0.023(2) 0.012(2) 0.026(2) -0.0004(16) -0.0009(16) -0.0008(17)
O18 O2- 0.0192(19) 0.024(2) 0.025(2) -0.0047(17) -0.0007(16) 0.0062(18)
F5 F1- 0.0146(14) 0.0161(18) 0.0160(15) -0.0002(12) -0.0005(12) -0.0008(12)
F6 F1- 0.0130(14) 0.0180(18) 0.0150(15) -0.0002(12) -0.0003(11) 0.0045(13)
F7 F1- 0.0118(14) 0.0171(18) 0.0146(15) -0.0017(12) 0.0019(11) -0.0010(12)
F8 F1- 0.0111(13) 0.0167(18) 0.0162(15) 0.0001(12) -0.0008(11) 0.0019(13)
Tc7 Tc7+ 0.0158(2) 0.0207(3) 0.0152(2) -0.00081(18) 0.00150(16) 0.00028(19)
O19 O2- 0.0211(19) 0.023(2) 0.019(2) -0.0019(17) 0.0045(16) 0.0007(17)
O20 O2- 0.019(2) 0.037(3) 0.025(2) -0.0056(19) 0.0006(16) -0.0010(19)
O21 O2- 0.030(2) 0.022(2) 0.027(2) 0.0020(19) -0.0029(18) 0.0026(18)
F9 F1- 0.038(2) 0.051(3) 0.032(2) 0.002(2) 0.0043(17) -0.0035(19)
Tc8 Tc7+ 0.0228(2) 0.0205(3) 0.0182(2) 0.0016(2) 0.00608(18) -0.00006(19)
O22 O2- 0.026(2) 0.030(3) 0.036(3) 0.0011(19) 0.0068(19) 0.001(2)
O23 O2- 0.025(2) 0.030(3) 0.021(2) 0.0005(19) -0.0007(17) 0.0002(18)
O24 O2- 0.031(2) 0.027(3) 0.043(3) -0.004(2) 0.015(2) -0.007(2)
F10 F1- 0.057(3) 0.042(3) 0.038(2) 0.007(2) 0.017(2) 0.009(2)
Tc9 Tc7+ 0.0129(2) 0.0158(3) 0.0285(3) 0.00040(18) 0.00041(17) -0.0040(2)
O25 O2- 0.026(2) 0.028(3) 0.037(3) 0.0064(19) 0.0068(19) -0.001(2)
O26 O2- 0.0154(19) 0.019(2) 0.042(3) -0.0002(16) -0.0074(17) -0.0067(19)
O27 O2- 0.0169(18) 0.014(2) 0.025(2) -0.0022(16) 0.0031(15) -0.0032(17)
F11 F1- 0.032(2) 0.035(2) 0.051(3) -0.0012(18) 0.0019(18) -0.006(2)
K1 K1+ 0.0189(5) 0.0205(7) 0.0167(6) 0.0015(5) -0.0004(4) -0.0005(5)
K2 K1+ 0.0234(6) 0.0238(7) 0.0255(7) 0.0014(5) 0.0013(5) -0.0021(5)
#End of data_249512-ICSD


