data_51616-ICSD
#?2014 by Fachinformationszentrum Karlsruhe, and the U.S. Secretary of 
#Commerce on behalf of the United States.  All rights reserved.
_database_code_ICSD                51616
_audit_creation_date               2003/10/01
_chemical_name_systematic          'Dicalcium Manganese Tungstate'
_chemical_formula_structural       'Ca2 Mn W O6'
_chemical_formula_sum              'Ca2 Mn1 O6 W1'
_publ_section_title
;
Nuclear and magnetic structure of Ca2 Mn W O6: a neutron powder 
diffraction study
;
loop_
_citation_id
_citation_journal_abbrev
_citation_year
_citation_journal_volume
_citation_page_first
_citation_page_last
_citation_journal_id_ASTM
primary 'Materials Research Bulletin' 2001 36 2485 2496 MRBUAC
_publ_author_name
;
Azad, A.K.;Ivanov, S.A.;Eriksson, S.G.;Eriksen, J.;Rundloef, 
H.;Mathieu, R.;Svedlindh, P.
;
_cell_length_a                     5.4457(2)
_cell_length_b                     5.6529(2)
_cell_length_c                     7.7828(3)
_cell_angle_alpha                  90
_cell_angle_beta                   90.229(4)
_cell_angle_gamma                  90
_cell_volume                       239.58
_cell_formula_units_Z              2
_symmetry_space_group_name_H-M     'P 1 21/n 1'
_symmetry_Int_Tables_number        14
_refine_ls_R_factor_all            .0267
loop_
_symmetry_equiv_pos_site_id
_symmetry_equiv_pos_as_xyz
  1	'-x+.5, y+.5, -z+.5'
  2	'-x, -y, -z'
  3	'x+.5, -y+.5, z+.5'
  4	'x, y, z'
loop_
_atom_type_symbol
_atom_type_oxidation_number
Ca2+	2
Mn2+	2
O2-	-2
W6+	6
loop_
_atom_site_label
_atom_site_type_symbol
_atom_site_symmetry_multiplicity
_atom_site_Wyckoff_symbol
_atom_site_fract_x
_atom_site_fract_y
_atom_site_fract_z
_atom_site_occupancy
_atom_site_attached_hydrogens
_atom_site_B_iso_or_equiv
Ca1 Ca2+ 4 e 0.0136(5) -.0551(4) 0.2477(4) 1. 0 0.29(4) 
Mn1 Mn2+ 2 c 0.0 0.5 0.0 1. 0 0.014(69) 
W1 W6+ 2 d 0.5 0.0 0.0 1. 0 0.053(56) 
O1 O2- 4 e 0.2143(4) 0.1866(4) 0.0465(3) 1. 0 0.25(5) 
O2 O2- 4 e 0.1813(3) 0.2178(4) 0.4432(3) 1. 0 0.21(3) 
O3 O2- 4 e 0.5985(4) 0.0373(3) 0.2347(3) 1. 0 0.29(4) 

#End of data_51616-ICSD


