data_240660-ICSD
#?2014 by Fachinformationszentrum Karlsruhe, and the U.S. Secretary of 
#Commerce on behalf of the United States.  All rights reserved.
_database_code_ICSD                240660
_audit_creation_date               2007/08/01
_chemical_name_systematic          Aluminophosphate(V)
_chemical_formula_structural       'Al (P O4)'
_chemical_formula_sum              'Al1 O4 P1'
_publ_section_title
;
Crystal structure of an aluminophosphate EMM-8: A multi-technique 
approach
;
loop_
_citation_id
_citation_journal_abbrev
_citation_year
_citation_journal_volume
_citation_journal_issue
_citation_page_first
_citation_page_last
_citation_journal_id_ASTM
primary 'Acta Crystallographica, Section B: Structural Science'
 2007 63 1 56 62 ASBSDK
_publ_author_name
;
Cao, G.;Afeworki, M.;Kennedy, G.J.;Strohmaier, K.G.;Dorset, D.L.
;
_cell_length_a                     22.5541(3)
_cell_length_b                     13.7357(2)
_cell_length_c                     14.0756(2)
_cell_angle_alpha                  90.0
_cell_angle_beta                   98.6174(18)
_cell_angle_gamma                  90.0
_cell_volume                       4311.34
_cell_formula_units_Z              32
_symmetry_space_group_name_H-M     'C 1 2/c 1'
_symmetry_Int_Tables_number        15
loop_
_symmetry_equiv_pos_site_id
_symmetry_equiv_pos_as_xyz
  1	'x, -y, z+.5'
  2	'-x, -y, -z'
  3	'-x, y, -z+.5'
  4	'x, y, z'
  5	'x+.5, -y+.5, z+.5'
  6	'-x+.5, -y+.5, -z'
  7	'-x+.5, y+.5, -z+.5'
  8	'x+.5, y+.5, z'
loop_
_atom_type_symbol
_atom_type_oxidation_number
Al3+	3
O2-	-2
P5+	5
loop_
_atom_site_label
_atom_site_type_symbol
_atom_site_symmetry_multiplicity
_atom_site_Wyckoff_symbol
_atom_site_fract_x
_atom_site_fract_y
_atom_site_fract_z
_atom_site_occupancy
_atom_site_attached_hydrogens
_atom_site_U_iso_or_equiv
Al1 Al3+ 8 f 0.8376(10) 0.1106(18) 0.8027(16) 1.0 0 0.005 
Al2 Al3+ 8 f 0.1675(11) 0.7966(17) 0.9040(16) 1.0 0 0.005 
Al3 Al3+ 8 f 0.0694(12) 0.8894(19) 0.5081(15) 1.0 0 0.005 
Al4 Al3+ 8 f 0.2589(10) 0.8903(19) 0.5644(17) 1.0 0 0.005 
P1 P5+ 8 f 0.8319(9) 0.2038(15) 0.5959(14) 1.0 0 0.005 
P2 P5+ 8 f 0.9308(10) 0.1135(17) 0.9909(14) 1.0 0 0.005 
P3 P5+ 8 f 0.7399(9) 0.1095(17) 0.9384(15) 1.0 0 0.005 
P4 P5+ 8 f 0.1625(9) 0.8858(16) 0.6958(15) 1.0 0 0.005 
O1 O2- 8 f 0.8387(16) 0.186(2) 0.7076(15) 1.0 0 0.007 
O2 O2- 8 f 0.8953(13) 0.182(2) 0.567(2) 1.0 0 0.007 
O3 O2- 8 f 0.7828(15) 0.122(3) 0.0408(19) 1.0 0 0.007 
O4 O2- 8 f 0.8203(14) 0.3142(18) 0.574(3) 1.0 0 0.007 
O5 O2- 8 f 0.9001(14) 0.129(3) 0.8808(18) 1.0 0 0.007 
O6 O2- 8 f 0.7780(13) 0.128(2) 0.858(2) 1.0 0 0.007 
O7 O2- 8 f 0.8346(8) -0.0078(17) 0.7612(11) 1.0 0 0.007 
O8 O2- 8 f 0.9252(7) 0.0063(18) 0.0186(12) 1.0 0 0.007 
O9 O2- 8 f 0.7129(7) 0.0032(17) 0.9366(12) 1.0 0 0.007 
O10 O2- 8 f -0.0023(11) 0.8483(11) 0.499(3) 1.0 0 0.007 
O11 O2- 8 f 0.1600(16) 0.814(2) 0.7853(16) 1.0 0 0.007 
O12 O2- 8 f 0.1009(13) 0.814(2) 0.943(2) 1.0 0 0.007 
O13 O2- 8 f 0.2165(16) 0.869(3) 0.452(2) 1.0 0 0.007 
O14 O2- 8 f 0.1825(14) 0.6796(18) 0.930(3) 1.0 0 0.007 
O15 O2- 8 f 0.1056(14) 0.866(2) 0.6228(18) 1.0 0 0.007 
O16 O2- 8 f 0.2181(13) 0.859(2) 0.645(2) 1.0 0 0.007 

#End of data_240660-ICSD


