data_67396-ICSD
#?2014 by Fachinformationszentrum Karlsruhe, and the U.S. Secretary of 
#Commerce on behalf of the United States.  All rights reserved.
_database_code_ICSD                67396
_audit_creation_date               1991/07/10
_audit_update_record               2004/10/01
_chemical_name_systematic          'Hexapotassium Dititanate'
_chemical_formula_structural       'K6 (Ti2 O7)'
_chemical_formula_sum              'K6 O7 Ti2'
_publ_section_title                'Zum Aufbau von K6 Ti2 O7'
loop_
_citation_id
_citation_journal_abbrev
_citation_year
_citation_journal_volume
_citation_page_first
_citation_page_last
_citation_journal_id_ASTM
primary 'Journal of the Less-Common Metals' 1990 158 327 337 JCOMAH
_publ_author_name                  'Kissel, J.;Hoppe, R.'
_cell_length_a                     6.582(1)
_cell_length_b                     9.318(1)
_cell_length_c                     11.299(2)
_cell_angle_alpha                  90.
_cell_angle_beta                   123.46(1)
_cell_angle_gamma                  90.
_cell_volume                       578.13
_cell_formula_units_Z              2
_symmetry_space_group_name_H-M     'P 1 21/c 1'
_symmetry_Int_Tables_number        14
_refine_ls_R_factor_all            .0759
loop_
_symmetry_equiv_pos_site_id
_symmetry_equiv_pos_as_xyz
  1	'x, -y+.5, z+.5'
  2	'-x, -y, -z'
  3	'-x, y+.5, -z+.5'
  4	'x, y, z'
loop_
_atom_type_symbol
_atom_type_oxidation_number
K1+	1
O2-	-2
Ti4+	4
loop_
_atom_site_label
_atom_site_type_symbol
_atom_site_symmetry_multiplicity
_atom_site_Wyckoff_symbol
_atom_site_fract_x
_atom_site_fract_y
_atom_site_fract_z
_atom_site_occupancy
_atom_site_attached_hydrogens
Ti1 Ti4+ 4 e 0.3102(1) 0.6422(1) 0.3661(1) 1. 0 
K1 K1+ 4 e 0.4068(1) 0.2911(1) 0.2812(1) 1. 0 
K2 K1+ 4 e 0.0480(2) 0.3457(1) 0.4300(1) 1. 0 
K3 K1+ 4 e 0.7935(1) 0.0229(1) 0.5470(1) 1. 0 
O1 O2- 4 e 0.7597(4) 0.4068(2) 0.8054(2) 1. 0 
O2 O2- 4 e 0.5038(4) 0.2003(2) 0.5736(2) 1. 0 
O3 O2- 4 e 0.9624(4) 0.3315(3) 0.6382(3) 1. 0 
O4 O2- 2 b 0.5 0.5 0.5 1. 0 

loop_
_atom_site_aniso_label
_atom_site_aniso_type_symbol
_atom_site_aniso_U_11
_atom_site_aniso_U_22
_atom_site_aniso_U_33
_atom_site_aniso_U_12
_atom_site_aniso_U_13
_atom_site_aniso_U_23
Ti1 Ti4+ 0.0124(2) 0.0103(2) 0.0128(2) 0.0001(2) 0.0067(2) 0.0012(2)
K1 K1+ 0.0261(4) 0.0311(4) 0.0244(3) 0.0048(3) 0.0164(3) -.0021(3)
K2 K1+ 0.0259(4) 0.0271(4) 0.0361(4) -.0046(3) 0.0168(3) -.0011(3)
K3 K1+ 0.0180(3) 0.0183(3) 0.0277(3) -.0003(3) 0.0136(3) -.0032(3)
O1 O2- 0.0289(7) 0.0279(7) 0.0215(7) -.0074(7) 0.0158(6) -.0077(7)
O2 O2- 0.0283(7) 0.0155(7) 0.0363(7) -.0078(7) 0.0114(6) -.0091(6)
O3 O2- 0.0280(7) 0.0517(8) 0.0575(8) -.0052(7) 0.0231(6) -.0123(8)
O4 O2- 0.0593(9) 0.0242(8) 0.0294(8) 0.0106(8) 0.0062(8) 0.0134(8)
#End of data_67396-ICSD


