data_2044-ICSD
#?2014 by Fachinformationszentrum Karlsruhe, and the U.S. Secretary of 
#Commerce on behalf of the United States.  All rights reserved.
_database_code_ICSD                2044
_audit_creation_date               1980/01/01
_audit_update_record               2010/02/01
_chemical_name_systematic
;
Lithium Potassium Fluorotrioxophosphate(V) Hydrate
;
_chemical_formula_structural       'Li K (P O3 F) (H2 O)'
_chemical_formula_sum              'H2 F1 K1 Li1 O4 P1'
_publ_section_title
;
Etudes structurales de composes oxyfluores du P(V). I. Structure 
cristalline de Li K P O3 F H2 O
;
loop_
_citation_id
_citation_journal_abbrev
_citation_year
_citation_journal_volume
_citation_page_first
_citation_page_last
_citation_journal_id_ASTM
primary 'Acta Crystallographica B (24,1968-38,1982)' 1974 30 697 701 ACBCAR
_publ_author_name
;
Galigne, J.L.;Durand, J.;le Cot, L.
;
_cell_length_a                     5.426(5)
_cell_length_b                     7.474(7)
_cell_length_c                     12.504(11)
_cell_angle_alpha                  90.
_cell_angle_beta                   109.55(5)
_cell_angle_gamma                  90.
_cell_volume                       477.85
_cell_formula_units_Z              4
_symmetry_space_group_name_H-M     'P 1 21/c 1'
_symmetry_Int_Tables_number        14
_refine_ls_R_factor_all            .056
loop_
_symmetry_equiv_pos_site_id
_symmetry_equiv_pos_as_xyz
  1	'x, -y+.5, z+.5'
  2	'-x, -y, -z'
  3	'-x, y+.5, -z+.5'
  4	'x, y, z'
loop_
_atom_type_symbol
_atom_type_oxidation_number
F1-	-1
H1+	1
K1+	1
Li1+	1
O2-	-2
P5+	5
loop_
_atom_site_label
_atom_site_type_symbol
_atom_site_symmetry_multiplicity
_atom_site_Wyckoff_symbol
_atom_site_fract_x
_atom_site_fract_y
_atom_site_fract_z
_atom_site_occupancy
_atom_site_attached_hydrogens
_atom_site_B_iso_or_equiv
Li1 Li1+ 4 e 0.1863(32) 0.0432(20) 0.8651(12) 1. 0 0 
K1 K1+ 4 e 0.3422(4) 0.2264(2) 0.1546(1) 1. 0 0 
P1 P5+ 4 e 0.7411(4) 0.2753(2) 0.4483(2) 1. 0 0 
O1 O2- 4 e 0.9996(11) 0.2896(8) 0.4253(5) 1. 0 0 
O2 O2- 4 e 0.5157(11) 0.3763(8) 0.3660(5) 1. 0 0 
O3 O2- 4 e 0.7703(12) 0.2992(8) 0.5718(4) 1. 0 0 
F1 F1- 4 e 0.6615(20) 0.0702(6) 0.4239(4) 1. 0 0 
O4 O2- 4 e 0.9464(15) 0.9969(9) 0.7093(5) 1. 0 0 
H1 H1+ 4 e 0.805 0.075 0.67 1. 0 4. 
H2 H1+ 4 e 0.975 0.898 0.656 1. 0 4. 

#End of data_2044-ICSD


