data_409714-ICSD
#?2014 by Fachinformationszentrum Karlsruhe, and the U.S. Secretary of 
#Commerce on behalf of the United States.  All rights reserved.
_database_code_ICSD                409714
_audit_creation_date               2004/04/01
_audit_update_record               2010/08/01
_chemical_name_systematic
;
Dialuminium Difluorotetraoxogermanate
;
_chemical_formula_structural       'Al2 (Ge O4 F2)'
_chemical_formula_sum              'Al2 F2 Ge1 O4'
_publ_section_title
;
Crystal structure of dialuminum difluorotetraoxogermanate, Al2 Ge O4 
F2
;
loop_
_citation_id
_citation_journal_abbrev
_citation_year
_citation_journal_volume
_citation_page_first
_citation_page_last
_citation_journal_id_ASTM
primary 'Zeitschrift fuer Kristallographie - New Crystal Structures'
 2003 218 276 276 ZKNSFT
_publ_author_name
;
Mathews, M.D.;Tyagi, A.K.;Koehler, J.
;
_cell_length_a                     8.985(1)
_cell_length_b                     8.521(1)
_cell_length_c                     4.755(1)
_cell_angle_alpha                  90.
_cell_angle_beta                   90.
_cell_angle_gamma                  90.
_cell_volume                       364.05
_cell_formula_units_Z              4
_symmetry_space_group_name_H-M     'P n m a'
_symmetry_Int_Tables_number        62
_refine_ls_R_factor_all            .061
loop_
_symmetry_equiv_pos_site_id
_symmetry_equiv_pos_as_xyz
  1	'x+.5, y, -z+.5'
  2	'x, -y+.5, z'
  3	'-x+.5, y+.5, z+.5'
  4	'-x, -y, -z'
  5	'-x+.5, -y, z+.5'
  6	'-x, y+.5, -z'
  7	'x+.5, -y+.5, -z+.5'
  8	'x, y, z'
loop_
_atom_type_symbol
_atom_type_oxidation_number
Al3+	3
F1-	-1
Ge4+	4
O2-	-2
loop_
_atom_site_label
_atom_site_type_symbol
_atom_site_symmetry_multiplicity
_atom_site_Wyckoff_symbol
_atom_site_fract_x
_atom_site_fract_y
_atom_site_fract_z
_atom_site_occupancy
_atom_site_attached_hydrogens
_atom_site_B_iso_or_equiv
Al1 Al3+ 8 d 0.1326(2) 0.0817(2) 0.5920(4) 1. 0 0.74(4) 
Ge1 Ge4+ 4 c 0.4389(1) 0.25 0.4009(3) 1. 0 1.68(3) 
F1 F1- 8 d 0.7532(3) 0.0540(3) 0.5981(7) 1. 0 1. 
O1 O2- 4 c 0.2480(5) 0.25 0.4517(9) 1. 0 1. 
O2 O2- 4 c 0.0373(5) 0.25 0.7772(9) 1. 0 1. 
O3 O2- 8 d 0.9918(3) 0.0814(4) 0.2933(7) 1. 0 1. 

#End of data_409714-ICSD


