data_79377-ICSD
#?2014 by Fachinformationszentrum Karlsruhe, and the U.S. Secretary of 
#Commerce on behalf of the United States.  All rights reserved.
_database_code_ICSD                79377
_audit_creation_date               1996/10/14
_chemical_name_systematic
;
Dipotassium Dimolybdenum Tetraoxide Diphosphate - Beta
;
_chemical_formula_structural       'K2 Mo2 O4 (P2 O7)'
_chemical_formula_sum              'K2 Mo2 O11 P2'
_publ_section_title
;
A molybdenum(V) diphosphate with a tunnel structure: beta-K2 Mo2 O4 
P2 O7
;
loop_
_citation_id
_citation_journal_abbrev
_citation_year
_citation_journal_volume
_citation_page_first
_citation_page_last
_citation_journal_id_ASTM
primary 'Journal of Solid State Chemistry' 1995 114 481 485 JSSCBI
_publ_author_name
;
Guesdon, A.;Leclaire, A.;Borel, M.M.;Grandin, A.;Raveau, B.
;
_cell_length_a                     9.314(1)
_cell_length_b                     8.8679(9)
_cell_length_c                     10.954(2)
_cell_angle_alpha                  90.
_cell_angle_beta                   90.
_cell_angle_gamma                  90.
_cell_volume                       904.75
_cell_formula_units_Z              4
_symmetry_space_group_name_H-M     'P b c n'
_symmetry_Int_Tables_number        60
_refine_ls_R_factor_all            .035
loop_
_symmetry_equiv_pos_site_id
_symmetry_equiv_pos_as_xyz
  1	'x, -y, z+.5'
  2	'-x+.5, y+.5, z'
  3	'x+.5, y+.5, -z+.5'
  4	'-x, -y, -z'
  5	'-x, y, -z+.5'
  6	'x+.5, -y+.5, -z'
  7	'-x+.5, -y+.5, z+.5'
  8	'x, y, z'
loop_
_atom_type_symbol
_atom_type_oxidation_number
K1+	1
Mo5+	5
O2-	-2
P5+	5
loop_
_atom_site_label
_atom_site_type_symbol
_atom_site_symmetry_multiplicity
_atom_site_Wyckoff_symbol
_atom_site_fract_x
_atom_site_fract_y
_atom_site_fract_z
_atom_site_occupancy
_atom_site_attached_hydrogens
_atom_site_B_iso_or_equiv
K1 K1+ 8 d 0.2954(2) -.0097(3) 0.4123(2) 1. 0 1.44(3) 
Mo1 Mo5+ 8 d 0.07834(7) 0.23067(7) 0.15380(6) 1. 0 0.450(6) 
P1 P5+ 8 d 0.4302(2) 0.3233(2) 0.1273(2) 1. 0 0.50(3) 
O1 O2- 8 d 0.0804(7) 0.4210(6) 0.1377(5) 1. 0 0.91(9) 
O2 O2- 8 d 0.1262(6) 0.2022(7) 0.3234(5) 1. 0 0.8(1) 
O3 O2- 8 d 0.0494(6) 0.2005(8) -.0345(5) 1. 0 1.1(1) 
O4 O2- 8 d 0.3005(6) 0.2246(8) 0.1027(5) 1. 0 0.84(9) 
O5 O2- 8 d 0.1080(6) -.0144(7) 0.1443(7) 1. 0 1.3(1) 
O6 O2- 4 c 0.5 0.259(1) 0.25 1. 0 1.1(1) 

#End of data_79377-ICSD


