data_10289-ICSD
#?2014 by Fachinformationszentrum Karlsruhe, and the U.S. Secretary of 
#Commerce on behalf of the United States.  All rights reserved.
_database_code_ICSD                10289
_audit_creation_date               1980/01/01
_audit_update_record               2006/04/01
_chemical_name_systematic          'Potassium Nitrate(V) - Alpha'
_chemical_formula_structural       'K (N O3)'
_chemical_formula_sum              'K1 N1 O3'
_chemical_name_mineral             Niter
_publ_section_title
;
A neutron diffraction determination of the crystal structure of alpha-
phase potassium nitrate at 298 K and 373 K
;
loop_
_citation_id
_citation_journal_abbrev
_citation_year
_citation_journal_volume
_citation_page_first
_citation_page_last
_citation_journal_id_ASTM
primary 'Journal of Physics C' 1973 6 201 211 JPSOAW
2 'Phase Transition' 1992 38 127 220 PHTRDP
_publ_author_name                  'Nimmo, J.K.;Lucas, B.W.'
_cell_length_a                     5.4142
_cell_length_b                     9.1659
_cell_length_c                     6.4309
_cell_angle_alpha                  90.
_cell_angle_beta                   90.
_cell_angle_gamma                  90.
_cell_volume                       319.14
_cell_formula_units_Z              4
_symmetry_space_group_name_H-M     'P m c n'
_symmetry_Int_Tables_number        62
_refine_ls_R_factor_all            .058
loop_
_symmetry_equiv_pos_site_id
_symmetry_equiv_pos_as_xyz
  1	'x, -y+.5, z+.5'
  2	'-x+.5, y, z'
  3	'x+.5, y+.5, -z+.5'
  4	'-x, -y, -z'
  5	'-x, y+.5, -z+.5'
  6	'x+.5, -y, -z'
  7	'-x+.5, -y+.5, z+.5'
  8	'x, y, z'
loop_
_atom_type_symbol
_atom_type_oxidation_number
K1+	1
N5+	5
O2-	-2
loop_
_atom_site_label
_atom_site_type_symbol
_atom_site_symmetry_multiplicity
_atom_site_Wyckoff_symbol
_atom_site_fract_x
_atom_site_fract_y
_atom_site_fract_z
_atom_site_occupancy
_atom_site_attached_hydrogens
K1 K1+ 4 c 0.25 0.4166(1) 0.7568(2) 1. 0 
N1 N5+ 4 c 0.25 0.7548(1) -.0848(1) 1. 0 
O1 O2- 4 c 0.25 0.8902(1) -.0893(2) 1. 0 
O2 O2- 8 d 0.4492(1) 0.6866(1) -.0849(1) 1. 0 

#End of data_10289-ICSD


