data_157186-ICSD
#?2014 by Fachinformationszentrum Karlsruhe, and the U.S. Secretary of 
#Commerce on behalf of the United States.  All rights reserved.
_database_code_ICSD                157186
_audit_creation_date               2008/02/01
_chemical_name_systematic          'Magnesium Dialuminate'
_chemical_formula_structural       'Mg (Al2 O4)'
_chemical_formula_sum              'Al2 Mg1 O4'
_publ_section_title
;
High-pressure phase relations and crystal chemistry of calcium 
ferrite-type solid solutions in the system (Mg Al2 O4)-(Mg2 Si O4)
;
loop_
_citation_id
_citation_journal_abbrev
_citation_year
_citation_journal_volume
_citation_page_first
_citation_page_last
_citation_journal_id_ASTM
primary 'American Mineralogist' 2007 92 1112 1118 AMMIAY
_publ_author_name
;
Kojitani, H.;Hisatomi, R.;Akaogi, M.
;
_cell_length_a                     9.9498(6)
_cell_length_b                     8.6468(6)
_cell_length_c                     2.7901(2)
_cell_angle_alpha                  90.
_cell_angle_beta                   90.
_cell_angle_gamma                  90.
_cell_volume                       240.04
_cell_formula_units_Z              4
_symmetry_space_group_name_H-M     'P b n m'
_symmetry_Int_Tables_number        62
_refine_ls_R_factor_all            .0342
loop_
_symmetry_equiv_pos_site_id
_symmetry_equiv_pos_as_xyz
  1	'-x+.5, y+.5, z'
  2	'x, y, -z+.5'
  3	'x+.5, -y+.5, z+.5'
  4	'-x, -y, -z'
  5	'x+.5, -y+.5, -z'
  6	'-x, -y, z+.5'
  7	'-x+.5, y+.5, -z+.5'
  8	'x, y, z'
loop_
_atom_type_symbol
_atom_type_oxidation_number
Al3+	3
Mg2+	2
O2-	-2
loop_
_atom_site_label
_atom_site_type_symbol
_atom_site_symmetry_multiplicity
_atom_site_Wyckoff_symbol
_atom_site_fract_x
_atom_site_fract_y
_atom_site_fract_z
_atom_site_occupancy
_atom_site_attached_hydrogens
_atom_site_B_iso_or_equiv
Mg1 Mg2+ 4 c 0.3503(4) 0.7576(6) 0.250 1. 0 0.64(13) 
Al1 Al3+ 4 c 0.3854(4) 0.4388(5) 0.250 1. 0 0.39(11) 
Al2 Al3+ 4 c 0.8964(3) 0.4159(4) 0.250 1. 0 0.30(11) 
O1 O2- 4 c 0.8344(7) 0.2005(8) 0.250 1. 0 1.59(19) 
O2 O2- 4 c 0.5279(7) 0.1201(6) 0.250 1. 0 0.84(20) 
O3 O2- 4 c 0.2150(7) 0.5357(8) 0.250 1. 0 0.88(17) 
O4 O2- 4 c 0.5709(6) 0.4089(7) 0.250 1. 0 1.57(21) 

#End of data_157186-ICSD


