data_72282-ICSD
#?2014 by Fachinformationszentrum Karlsruhe, and the U.S. Secretary of 
#Commerce on behalf of the United States.  All rights reserved.
_database_code_ICSD                72282
_audit_creation_date               1994/01/19
_chemical_name_systematic          'Praseodymium Trialuminium Bromide'
_chemical_formula_structural       'Pr Al3 Br12'
_chemical_formula_sum              'Al3 Br12 Pr1'
_publ_section_title
;
Darstellung und Kristallstruktur von LnAl3Br12 (Ln=La,Ce,Pr, 
Nd,Sm,Gd) und thermischer Abbau zu LnBr3
;
loop_
_citation_id
_citation_journal_abbrev
_citation_year
_citation_journal_volume
_citation_page_first
_citation_page_last
_citation_journal_id_ASTM
primary 'Zeitschrift fuer Anorganische und Allgemeine Chemie (1950) (DE)'
 1992 613 45 48 ZAACAB
_publ_author_name                  'Hake, D.;Urland, W.'
_cell_length_a                     10.408(2)
_cell_length_b                     10.408(2)
_cell_length_c                     18.487(64)
_cell_angle_alpha                  90.
_cell_angle_beta                   90.
_cell_angle_gamma                  120.
_cell_volume                       1734.33
_cell_formula_units_Z              3
_symmetry_space_group_name_H-M     'P 31 2 1'
_symmetry_Int_Tables_number        152
_refine_ls_R_factor_all            .056
loop_
_symmetry_equiv_pos_site_id
_symmetry_equiv_pos_as_xyz
  1	'x-y, -y, -z+.6667'
  2	'-x, -x+y, -z+.3333'
  3	'y, x, -z'
  4	'-x+y, -x, z+.6667'
  5	'-y, x-y, z+.3333'
  6	'x, y, z'
loop_
_atom_type_symbol
_atom_type_oxidation_number
Al3+	3
Br1-	-1
Pr3+	3
loop_
_atom_site_label
_atom_site_type_symbol
_atom_site_symmetry_multiplicity
_atom_site_Wyckoff_symbol
_atom_site_fract_x
_atom_site_fract_y
_atom_site_fract_z
_atom_site_occupancy
_atom_site_attached_hydrogens
_atom_site_U_iso_or_equiv
Pr1 Pr3+ 3 a 0.2696(2) 0.2696(2) 0 1. 0 0.0362(11) 
Al1 Al3+ 3 b 0.8964(12) 0.8964(12) 0.5 1. 0 0.0505(66) 
Al2 Al3+ 6 c 0.6950(13) 0.3250(11) 0.6120(5) 1. 0 0.0886(72) 
Br1 Br1- 6 c 0.7061(3) 0.4710(3) 0.7106(2) 1. 0 0.0534(16) 
Br2 Br1- 6 c 0.9163(4) 0.5034(4) 0.5537(2) 1. 0 0.0720(21) 
Br3 Br1- 6 c 0.1271(3) 0.9290(4) 0.5304(2) 1. 0 0.0588(18) 
Br4 Br1- 6 c 0.2357(4) 0.0315(4) 0.7313(2) 1. 0 0.0652(19) 
Br5 Br1- 6 c 0.1349(5) 0.7147(7) 0.3520(3) 1. 0 0.2014(47) 
Br6 Br1- 6 c 0.5027(5) 0.2787(6) 0.5423(2) 1. 0 0.1803(42) 

#End of data_72282-ICSD


