data_415494-ICSD
#?2014 by Fachinformationszentrum Karlsruhe, and the U.S. Secretary of 
#Commerce on behalf of the United States.  All rights reserved.
_database_code_ICSD                415494
_audit_creation_date               2006/10/01
_chemical_name_systematic
;
Dipotassium Aquapentachlorochromate(III)
;
_chemical_formula_structural       'K2 (Cr Cl5 (H2 O))'
_chemical_formula_sum              'H2 Cl5 Cr1 K2 O1'
_publ_section_title
;
New aquapentachlorochromate(III) compounds: K2 [Cr Cl5 (H2 O)] and (N 
H4)2 [Cr Cl5 (H2 O)]
;
loop_
_citation_id
_citation_journal_abbrev
_citation_year
_citation_journal_volume
_citation_journal_issue
_citation_page_first
_citation_page_last
_citation_journal_id_ASTM
primary 'Zeitschrift fuer Anorganische und Allgemeine Chemie (1950) (DE)'
 2006 632 1 101 106 ZAACAB
_publ_author_name
;
Casari, B.M.;Eriksson, A.K.;Langer, V.
;
_cell_length_a                     13.4951(2)
_cell_length_b                     9.47860(10)
_cell_length_c                     7.05370(10)
_cell_angle_alpha                  90.00
_cell_angle_beta                   90.00
_cell_angle_gamma                  90.00
_cell_volume                       902.27
_cell_formula_units_Z              4
_symmetry_space_group_name_H-M     'P n m a'
_symmetry_Int_Tables_number        62
_refine_ls_R_factor_all            .0552
loop_
_symmetry_equiv_pos_site_id
_symmetry_equiv_pos_as_xyz
  1	'x+.5, y, -z+.5'
  2	'x, -y+.5, z'
  3	'-x+.5, y+.5, z+.5'
  4	'-x, -y, -z'
  5	'-x+.5, -y, z+.5'
  6	'-x, y+.5, -z'
  7	'x+.5, -y+.5, -z+.5'
  8	'x, y, z'
loop_
_atom_type_symbol
_atom_type_oxidation_number
Cl1-	-1
Cr3+	3
H1+	1
K1+	1
O2-	-2
loop_
_atom_site_label
_atom_site_type_symbol
_atom_site_symmetry_multiplicity
_atom_site_Wyckoff_symbol
_atom_site_fract_x
_atom_site_fract_y
_atom_site_fract_z
_atom_site_occupancy
_atom_site_attached_hydrogens
_atom_site_U_iso_or_equiv
K1 K1+ 8 d 0.35236(5) -0.00142(7) 1.35709(10) 1 0 0.02837(15) 
Cr1 Cr3+ 4 c 0.39035(4) 0.2500 0.80921(8) 1 0 0.01250(12) 
Cl1 Cl1- 8 d 0.39560(5) 0.00335(6) 0.81262(10) 1 0 0.02407(15) 
Cl2 Cl1- 4 c 0.28849(8) 0.2500 1.07559(13) 1 0 0.0289(2) 
Cl3 Cl1- 4 c 0.25257(6) 0.2500 0.61344(12) 1 0 0.01809(17) 
Cl4 Cl1- 4 c 0.49387(7) 0.2500 0.54037(15) 1 0 0.0255(2) 
O1 O2- 4 c 0.5109(2) 0.2500 0.9757(5) 1 0 0.0290(7) 
H1 H1+ 8 d 0.530(3) 0.188(4) 1.032(5) 1 0 0.040(11) 

loop_
_atom_site_aniso_label
_atom_site_aniso_type_symbol
_atom_site_aniso_U_11
_atom_site_aniso_U_22
_atom_site_aniso_U_33
_atom_site_aniso_U_12
_atom_site_aniso_U_13
_atom_site_aniso_U_23
K1 K1+ 0.0280(3) 0.0262(3) 0.0309(3) -0.0006(2) -0.0039(2) -0.0042(2)
Cr1 Cr3+ 0.0113(2) 0.0115(2) 0.0146(2) 0.000 -0.00279(19) 0.000
Cl1 Cl1- 0.0278(3) 0.0133(3) 0.0311(3) -0.0009(2) -0.0116(3) 0.0022(2)
Cl2 Cl1- 0.0344(5) 0.0355(5) 0.0169(4) 0.000 0.0043(4) 0.000
Cl3 Cl1- 0.0155(3) 0.0206(4) 0.0181(3) 0.000 -0.0045(3) 0.000
Cl4 Cl1- 0.0198(4) 0.0259(5) 0.0308(5) 0.000 0.0075(4) 0.000
O1 O2- 0.0294(16) 0.0153(13) 0.0424(18) 0.000 -0.0240(14) 0.000
#End of data_415494-ICSD


