data_68823-ICSD
#?2014 by Fachinformationszentrum Karlsruhe, and the U.S. Secretary of 
#Commerce on behalf of the United States.  All rights reserved.
_database_code_ICSD                68823
_audit_creation_date               1992/01/20
_chemical_name_systematic          'Potassium Tetrachlorozincate'
_chemical_formula_structural       'K2 (Zn Cl4)'
_chemical_formula_sum              'Cl4 K2 Zn1'
_publ_section_title
;
Neutron study of the normal-incommensurate phase transition in 
K2ZnCl4
;
loop_
_citation_id
_citation_journal_abbrev
_citation_year
_citation_journal_volume
_citation_page_first
_citation_page_last
_citation_journal_id_ASTM
primary 'Journal of Physics: Condensed Matter' 1990 2 4543 4558 JCOMEL
_publ_author_name
;
Quilichini, M.;Bernede, P.;Lefebvre, J.;Schweiss, P.
;
_cell_length_a                     8.96(3)
_cell_length_b                     7.30(1)
_cell_length_c                     12.54(3)
_cell_angle_alpha                  90.
_cell_angle_beta                   90.
_cell_angle_gamma                  90.
_cell_volume                       820.22
_cell_formula_units_Z              4
_symmetry_space_group_name_H-M     'P n 21 a'
_symmetry_Int_Tables_number        33
_refine_ls_R_factor_all            .08
loop_
_symmetry_equiv_pos_site_id
_symmetry_equiv_pos_as_xyz
  1	'x+.5, y, -z+.5'
  2	'-x+.5, y+.5, z+.5'
  3	'-x, y+.5, -z'
  4	'x, y, z'
loop_
_atom_type_symbol
_atom_type_oxidation_number
Cl1-	-1
K1+	1
Zn2+	2
loop_
_atom_site_label
_atom_site_type_symbol
_atom_site_symmetry_multiplicity
_atom_site_Wyckoff_symbol
_atom_site_fract_x
_atom_site_fract_y
_atom_site_fract_z
_atom_site_occupancy
_atom_site_attached_hydrogens
K1 K1+ 4 a 0.6354(15) 0.2874(26) 0.4161(17) 1. 0 
K2 K1+ 4 a 0.4951(13) 0.2462(52) 0.8125(9) 1. 0 
Zn1 Zn2+ 4 a 0.2191(6) 0.25 0.4191(5) 1. 0 
Cl1 Cl1- 4 a 0.9749(5) 0.2606(60) 0.4348(5) 1. 0 
Cl2 Cl1- 4 a 0.3310(6) 0.2535(63) 0.5782(4) 1. 0 
Cl3 Cl1- 4 a 0.3052(16) 0.0070(25) 0.3421(15) 1. 0 
Cl4 Cl1- 4 a 0.3014(19) 0.4840(25) 0.3238(16) 1. 0 

loop_
_atom_site_aniso_label
_atom_site_aniso_type_symbol
_atom_site_aniso_U_11
_atom_site_aniso_U_22
_atom_site_aniso_U_33
_atom_site_aniso_U_12
_atom_site_aniso_U_13
_atom_site_aniso_U_23
K1 K1+ 0.0562(64) 0.0530(94) 0.140(14) 0 0 0
K2 K1+ 0.0589(66) 0.129(13) 0.0634(72) 0 0 0
Zn1 Zn2+ 0.0364(26) 0.0567(41) 0.0472(32) 0 0 0
Cl1 Cl1- 0.0363(22) 0.363(17) 0.0929(40) 0 0 0
Cl2 Cl1- 0.0649(31) 0.390(17) 0.0534(29) 0 0 0
Cl3 Cl1- 0.1514(95) 0.0776(59) 0.240(12) 0 0 0
Cl4 Cl1- 0.176(14) 0.0622(49) 0.205(19) 0 0 0
#End of data_68823-ICSD


