data_82638-ICSD
#?2014 by Fachinformationszentrum Karlsruhe, and the U.S. Secretary of 
#Commerce on behalf of the United States.  All rights reserved.
_database_code_ICSD                82638
_audit_creation_date               1997/11/10
_audit_update_record               2007/04/01
_chemical_name_systematic
;
Potassium Pentathiotriargentodiarsenate(III)
;
_chemical_formula_structural       'K (Ag3 As2 S5)'
_chemical_formula_sum              'Ag3 As2 K1 S5'
_publ_section_title
;
Isolation of beta-Ag3 As Se3, (Me3 N H) (Ag3 As2 Se5), K5 Ag2 As3 
Se9, and K Ag3 As2 S5 : novel solid state silver thio- and 
selenoarsenates from solvento-thermal synthesis
;
loop_
_citation_id
_citation_journal_abbrev
_citation_year
_citation_journal_volume
_citation_page_first
_citation_page_last
_citation_journal_id_ASTM
primary 'Journal of Solid State Chemistry' 1996 127 186 201 JSSCBI
_publ_author_name                  'Kanatzidis, M.G.;Chou Junhong'
_cell_length_a                     19.2100(20)
_cell_length_b                     16.8670(20)
_cell_length_c                     6.3491(7)
_cell_angle_alpha                  90.
_cell_angle_beta                   90.
_cell_angle_gamma                  90.
_cell_volume                       2057.2
_cell_formula_units_Z              8
_symmetry_space_group_name_H-M     'P n m a'
_symmetry_Int_Tables_number        62
_refine_ls_R_factor_all            .04
loop_
_symmetry_equiv_pos_site_id
_symmetry_equiv_pos_as_xyz
  1	'x+.5, y, -z+.5'
  2	'x, -y+.5, z'
  3	'-x+.5, y+.5, z+.5'
  4	'-x, -y, -z'
  5	'-x+.5, -y, z+.5'
  6	'-x, y+.5, -z'
  7	'x+.5, -y+.5, -z+.5'
  8	'x, y, z'
loop_
_atom_type_symbol
_atom_type_oxidation_number
Ag1+	1
As3+	3
K1+	1
S2-	-2
loop_
_atom_site_label
_atom_site_type_symbol
_atom_site_symmetry_multiplicity
_atom_site_Wyckoff_symbol
_atom_site_fract_x
_atom_site_fract_y
_atom_site_fract_z
_atom_site_occupancy
_atom_site_attached_hydrogens
_atom_site_B_iso_or_equiv
Ag1 Ag1+ 8 d 0.6851(1) 0.3690(1) 0.0892(4) 1. 0 3.1(1) 
Ag2 Ag1+ 8 d 0.7332(1) 0.5239(1) -.0909(4) 1. 0 4.2(1) 
Ag3 Ag1+ 8 d 0.8572(1) 0.3669(1) 0.8395(3) 1. 0 3.3(1) 
As1 As3+ 4 c 0.7870(2) 0.25 0.4088(6) 1. 0 1.0(1) 
As2 As3+ 8 d 0.5884(1) 0.4603(1) 0.5950(4) 1. 0 1.2(1) 
As3 As3+ 4 c 0.6069(2) 0.25 0.5118(6) 1. 0 1.0(1) 
K1 K1+ 8 d 0.4786(3) 0.3776(3) 0.0894(9) 1. 0 1.8(2) 
S1 S2- 4 c 0.3806(4) 0.25 0.881(1) 1. 0 1.4(4) 
S2 S2- 8 d 0.8151(3) 0.3558(4) 0.209(1) 1. 0 1.4(3) 
S3 S2- 8 d 0.6071(3) 0.4913(3) 0.256(1) 1. 0 1.2(2) 
S4 S2- 8 d 0.5232(3) 0.3456(3) 0.579(1) 1. 0 1.1(2) 
S5 S2- 8 d 0.6914(3) 0.4075(3) 0.689(1) 1. 0 1.2(3) 
S6 S2- 4 c 0.6068(5) 0.25 0.161(1) 1. 0 1.6(4) 

#End of data_82638-ICSD


