data_15115-ICSD
#?2014 by Fachinformationszentrum Karlsruhe, and the U.S. Secretary of 
#Commerce on behalf of the United States.  All rights reserved.
_database_code_ICSD                15115
_audit_creation_date               1980/01/01
_chemical_name_systematic          'Potassium Dioxoaurate'
_chemical_formula_structural       'K Au O2'
_chemical_formula_sum              'Au1 K1 O2'
_publ_section_title
;
Zur Kristallstruktur von Li3 Au O3, Li5 Au O4, K Au O2 und Rb Au O2
;
loop_
_citation_id
_citation_journal_abbrev
_citation_year
_citation_journal_volume
_citation_page_first
_citation_page_last
_citation_journal_id_ASTM
primary 'Zeitschrift fuer Anorganische und Allgemeine Chemie (1950) (DE)'
 1970 375 43 51 ZAACAB
_publ_author_name                  'Wasel-Nielen, H.D.;Hoppe, R.'
_cell_length_a                     3.585
_cell_length_b                     5.849
_cell_length_c                     3.005
_cell_angle_alpha                  90.
_cell_angle_beta                   90.
_cell_angle_gamma                  90.
_cell_volume                       63.01
_cell_formula_units_Z              1
_symmetry_space_group_name_H-M     'P m m m'
_symmetry_Int_Tables_number        47
_refine_ls_R_factor_all            .089
loop_
_symmetry_equiv_pos_site_id
_symmetry_equiv_pos_as_xyz
  1	'x, -y, z'
  2	'-x, y, z'
  3	'x, y, -z'
  4	'-x, -y, -z'
  5	'-x, y, -z'
  6	'x, -y, -z'
  7	'-x, -y, z'
  8	'x, y, z'
loop_
_atom_type_symbol
_atom_type_oxidation_number
Au3+	3
K1+	1
O2-	-2
loop_
_atom_site_label
_atom_site_type_symbol
_atom_site_symmetry_multiplicity
_atom_site_Wyckoff_symbol
_atom_site_fract_x
_atom_site_fract_y
_atom_site_fract_z
_atom_site_occupancy
_atom_site_attached_hydrogens
K1 K1+ 1 f 0.5 0.5 0 1. 0 
Au1 Au3+ 1 a 0 0 0 1. 0 
O1 O2- 2 n 0 0.247 0.5 1. 0 

#End of data_15115-ICSD


