data_88601-ICSD
#?2014 by Fachinformationszentrum Karlsruhe, and the U.S. Secretary of 
#Commerce on behalf of the United States.  All rights reserved.
_database_code_ICSD                88601
_audit_creation_date               2001/07/16
_chemical_name_systematic          'Barium Dieuropium Zinc Oxide'
_chemical_formula_structural       'Ba Eu2 Zn O5'
_chemical_formula_sum              'Ba1 Eu2 O5 Zn1'
_publ_section_title
;
Crystal structures and reference powder patterns of Ba R2 Zn O5 (R = 
La, Nd, Sm, Eu, Gd, Dy, Ho, Y, Er and Tm)
;
loop_
_citation_id
_citation_journal_abbrev
_citation_year
_citation_journal_volume
_citation_journal_issue
_citation_page_first
_citation_page_last
_citation_journal_id_ASTM
primary
;
Journal of Research of the National Institute of standards and 
Technology
;
 1999 104 2 147 171 JRITEF
_publ_author_name
;
Kaduk, J.A.;Wong-Ng, W.;Greenwood, W.;Dillingham, J.;Toby, B.H.
;
_cell_length_a                     7.1789(1)
_cell_length_b                     12.53575(17)
_cell_length_c                     5.79103(8)
_cell_angle_alpha                  90.
_cell_angle_beta                   90.
_cell_angle_gamma                  90.
_cell_volume                       521.15
_cell_formula_units_Z              4
_symmetry_space_group_name_H-M     'P b n m'
_symmetry_Int_Tables_number        62
_refine_ls_R_factor_all            .054
loop_
_symmetry_equiv_pos_site_id
_symmetry_equiv_pos_as_xyz
  1	'-x+.5, y+.5, z'
  2	'x, y, -z+.5'
  3	'x+.5, -y+.5, z+.5'
  4	'-x, -y, -z'
  5	'x+.5, -y+.5, -z'
  6	'-x, -y, z+.5'
  7	'-x+.5, y+.5, -z+.5'
  8	'x, y, z'
loop_
_atom_type_symbol
_atom_type_oxidation_number
Ba2+	2
Eu3+	3
O2-	-2
Zn2+	2
loop_
_atom_site_label
_atom_site_type_symbol
_atom_site_symmetry_multiplicity
_atom_site_Wyckoff_symbol
_atom_site_fract_x
_atom_site_fract_y
_atom_site_fract_z
_atom_site_occupancy
_atom_site_attached_hydrogens
_atom_site_U_iso_or_equiv
Ba1 Ba2+ 4 c 0.9238(3) 0.9009(2) 0.25 1. 0 0.0059(6) 
Eu1 Eu3+ 4 c 0.1182(3) 0.2925(2) 0.25 1. 0 0.0030(3) 
Eu2 Eu3+ 4 c 0.3977(3) 0.0747(2) 0.25 1. 0 0.0030(3) 
Zn1 Zn2+ 4 c 0.6908(6) 0.6497(4) 0.25 1. 0 0.0076(14) 
O1 O2- 8 d 0.1662(18) 0.4368(14) -.0052(23) 1. 0 0.006(2) 
O2 O2- 8 d 0.3530(21) 0.2216(12) 0.5025(25) 1. 0 0.006(2) 
O3 O2- 4 c 0.0833(29) 0.0978(17) 0.25 1. 0 0.006(2) 

#End of data_88601-ICSD


