data_28098-ICSD
#?2014 by Fachinformationszentrum Karlsruhe, and the U.S. Secretary of 
#Commerce on behalf of the United States.  All rights reserved.
_database_code_ICSD                28098
_audit_creation_date               1980/01/01
_audit_update_record               1999/11/30
_chemical_name_systematic          'Sodium Indium Tungstate'
_chemical_formula_structural       'Na In (W O4)2'
_chemical_formula_sum              'In1 Na1 O8 W2'
_publ_section_title
;
Structure of the Double Wolframate Na In (W O4)2
;
loop_
_citation_id
_citation_journal_abbrev
_citation_year
_citation_journal_volume
_citation_page_first
_citation_page_last
_citation_journal_id_ASTM
primary 'Zhurnal Strukturnoi Khimii (Issue-No. from 1981)'
 1971 12 334 334 ZSTKAI
_publ_author_name                  'Velikodnyi, Yu.A.;Trunov, V.K.'
_cell_length_a                     10.077
_cell_length_b                     5.808
_cell_length_c                     5.037
_cell_angle_alpha                  90.
_cell_angle_beta                   91.16
_cell_angle_gamma                  90.
_cell_volume                       294.74
_cell_formula_units_Z              2
_symmetry_space_group_name_H-M     'P 1 2/c 1'
_symmetry_Int_Tables_number        13
_refine_ls_R_factor_all            .143
loop_
_symmetry_equiv_pos_site_id
_symmetry_equiv_pos_as_xyz
  1	'x, -y, z+.5'
  2	'-x, -y, -z'
  3	'-x, y, -z+.5'
  4	'x, y, z'
loop_
_atom_type_symbol
_atom_type_oxidation_number
In3+	3
Na1+	1
O2-	-2
W6+	6
loop_
_atom_site_label
_atom_site_type_symbol
_atom_site_symmetry_multiplicity
_atom_site_Wyckoff_symbol
_atom_site_fract_x
_atom_site_fract_y
_atom_site_fract_z
_atom_site_occupancy
_atom_site_attached_hydrogens
_atom_site_B_iso_or_equiv
Na1 Na1+ 2 f 0.5 0.685 0.25 1. 0 0.57 
In1 In3+ 2 e 0 0.683 0.25 1. 0 0.57 
W1 W6+ 4 g 0.245 0.179 0.247 1. 0 0.57 
O1 O2- 4 g 0.133 0.087 0.555 1. 0 0.57 
O2 O2- 4 g 0.338 0.062 0.941 1. 0 0.57 
O3 O2- 4 g 0.355 0.372 0.377 1. 0 0.57 
O4 O2- 4 g 0.116 0.391 0.111 1. 0 0.57 

#End of data_28098-ICSD


