data_10211-ICSD
#?2014 by Fachinformationszentrum Karlsruhe, and the U.S. Secretary of 
#Commerce on behalf of the United States.  All rights reserved.
_database_code_ICSD                10211
_audit_creation_date               1980/01/01
_audit_update_record               2012/02/01
_chemical_name_systematic          'Zinc Fluoride Tetrahydrate'
_chemical_formula_structural       'Zn F2 (H2 O)4'
_chemical_formula_sum              'H8 F2 O4 Zn1'
_publ_section_title
;
Crystal structure of zinc fluoride tetrahydrate, Zn F2 (H2 O)4
;
loop_
_citation_id
_citation_journal_abbrev
_citation_year
_citation_journal_volume
_citation_page_first
_citation_page_last
_citation_journal_id_ASTM
primary Kristallografiya 1973 18 956 960 KRISAJ
2 'Soviet Physics, Crystallography (= Kristallografiya)'
 1973 18 600 602 SPHCA6
_publ_author_name
;
Bukvetskii, B.V.;Polishchuk, S.A.;Simonov, V.I.
;
_cell_length_a                     12.630(2)
_cell_length_b                     5.288(1)
_cell_length_c                     7.540(1)
_cell_angle_alpha                  90.
_cell_angle_beta                   90.
_cell_angle_gamma                  90.
_cell_volume                       503.58
_cell_formula_units_Z              4
_symmetry_space_group_name_H-M     'P c a 21'
_symmetry_Int_Tables_number        29
_refine_ls_R_factor_all            .054
loop_
_symmetry_equiv_pos_site_id
_symmetry_equiv_pos_as_xyz
  1	'x+.5, -y, z'
  2	'-x+.5, y, z+.5'
  3	'-x, -y, z+.5'
  4	'x, y, z'
loop_
_atom_type_symbol
_atom_type_oxidation_number
F1-	-1
H1+	1
O2-	-2
Zn2+	2
loop_
_atom_site_label
_atom_site_type_symbol
_atom_site_symmetry_multiplicity
_atom_site_Wyckoff_symbol
_atom_site_fract_x
_atom_site_fract_y
_atom_site_fract_z
_atom_site_occupancy
_atom_site_attached_hydrogens
_atom_site_B_iso_or_equiv
Zn1 Zn2+ 4 a 0.1242 0.2031 0.25 1. 0 0.81 
F1 F1- 4 a 0.1017 0.4508 0.0414 1. 0 0.85 
F2 F1- 4 a 0.1474 0.9468 0.4469 1. 0 0.44 
O1 O2- 4 a 0.1624 0.9302 0.06 1. 0 1.22 
O2 O2- 4 a 0.2837 0.3371 0.2577 1. 0 1.38 
O3 O2- 4 a 0.466 0.9179 0.2439 1. 0 1.63 
O4 O2- 4 a 0.0923 0.4739 0.4389 1. 0 0.76 
H1 H1+ 4 a 0.24 0.92 0.01 1. 0 0 
H2 H1+ 4 a 0.12 0.7 0.42 1. 0 0 
H3 H1+ 4 a 0.42 0.9 0.07 1. 0 0 
H4 H1+ 4 a 0 0.55 0.5 1. 0 0 
H5 H1+ 4 a 0.33 0.35 0.38 1. 0 0 
H6 H1+ 4 a 0.12 0.7 0.05 1. 0 0 
H7 H1+ 4 a 0.42 0.85 0.44 1. 0 0 
H8 H1+ 4 a 0.33 0.32 0.13 1. 0 0 

#End of data_10211-ICSD


