data_424696-ICSD
#?2014 by Fachinformationszentrum Karlsruhe, and the U.S. Secretary of 
#Commerce on behalf of the United States.  All rights reserved.
_database_code_ICSD                424696
_audit_creation_date               2013/08/01
_chemical_name_systematic
;
Dipotassium Hydrogenarsenate(V) Hexahydrate
;
_chemical_formula_structural       'K2 H As O4 (H2 O)6'
_chemical_formula_sum              'H13 As1 K2 O10'
_publ_section_title
;
The 2.5- and 6-hydrates of dipotassium hydrogen arsenate, K2 H As O4: 
Complex hydrogen bonding networks, one with an ''ambiguous'' order-
disorder structure
;
loop_
_citation_id
_citation_journal_abbrev
_citation_year
_citation_journal_volume
_citation_journal_issue
_citation_page_first
_citation_page_last
_citation_journal_id_ASTM
primary 'Zeitschrift fuer Kristallographie - Crystalline Materials'
 2012 227 12 859 868 ZKCMAJ
_publ_author_name                  'Stoeger, B.;Weil, M.;Zobetz, E.'
_cell_length_a                     9.1788(2)
_cell_length_b                     9.4179(3)
_cell_length_c                     12.5935(3)
_cell_angle_alpha                  90
_cell_angle_beta                   93.7840(10)
_cell_angle_gamma                  90
_cell_volume                       1086.27
_cell_formula_units_Z              4
_symmetry_space_group_name_H-M     'C 1 c 1'
_symmetry_Int_Tables_number        9
_refine_ls_R_factor_all            .0133
loop_
_symmetry_equiv_pos_site_id
_symmetry_equiv_pos_as_xyz
  1	'x, -y, z+.5'
  2	'x, y, z'
  3	'x+.5, -y+.5, z+.5'
  4	'x+.5, y+.5, z'
loop_
_atom_type_symbol
_atom_type_oxidation_number
As5+	5
H1+	1
K1+	1
O2-	-2
loop_
_atom_site_label
_atom_site_type_symbol
_atom_site_symmetry_multiplicity
_atom_site_Wyckoff_symbol
_atom_site_fract_x
_atom_site_fract_y
_atom_site_fract_z
_atom_site_occupancy
_atom_site_attached_hydrogens
_atom_site_U_iso_or_equiv
As1 As5+ 4 a 0.811335 0.162818(7) 0.156134 1 0 0.006621(15) 
K1 K1+ 4 a 0.73180(2) 0.36592(2) -0.094711(16 1 0 0.01144(4) 
K2 K1+ 4 a 0.85438(3) -0.244051(17 0.119372(16) 1 0 0.01249(3) 
O1 O2- 4 a 0.75550(7) 0.13914(6) 0.27931(5) 1 0 0.01003(12) 
O2 O2- 4 a 0.91760(7) 0.03178(6) 0.11842(5) 1 0 0.01047(12) 
O3 O2- 4 a 0.65419(7) 0.16442(7) 0.06938(6) 1 0 0.01174(14) 
O4 O2- 4 a 0.88074(7) 0.32520(6) 0.14162(6) 1 0 0.01161(13) 
O5 O2- 4 a 0.59999(7) -0.10954(8) 0.02342(6) 1 0 0.01369(14) 
O6 O2- 4 a 0.70221(7) -0.45665(7) 0.19999(6) 1 0 0.01439(14) 
O7 O2- 4 a 0.99133(7) 0.26415(7) -0.17284(6) 1 0 0.01331(14) 
O8 O2- 4 a 0.46900(7) 0.49756(7) -0.08841(6) 1 0 0.01343(14) 
O9 O2- 4 a 0.85776(9) -0.36276(8) -0.07989(6) 1 0 0.01403(15) 
O10 O2- 4 a 0.61541(8) 0.12739(8) -0.20307(6) 1 0 0.01648(16) 
H1 H1+ 4 a 0.634(3) 0.094(3) 0.056(2) 1 0 0.045(6) 
H2 H1+ 4 a 0.524(2) -0.1394(19) 0.0583(16) 1 0 0.017(4) 
H3 H1+ 4 a 0.577(3) -0.145(2) -0.031(2) 1 0 0.030(5) 
H4 H1+ 4 a 0.621(3) -0.468(2) 0.179(2) 1 0 0.036(5) 
H5 H1+ 4 a 0.749(2) -0.523(2) 0.1792(15) 1 0 0.021(4) 
H6 H1+ 4 a 1.0678(19) 0.286(2) -0.1951(15) 1 0 0.017(4) 
H7 H1+ 4 a 0.990(3) 0.194(3) -0.151(2) 1 0 0.039(6) 
H8 H1+ 4 a 0.444(2) 0.517(2) -0.0166(17) 1 0 0.027(5) 
H9 H1+ 4 a 0.405(3) 0.445(3) -0.120(2) 1 0 0.058(8) 
H10 H1+ 4 a 0.826(2) -0.306(2) -0.1275(18) 1 0 0.027(4) 
H11 H1+ 4 a 0.937(3) -0.369(2) -0.0999(18) 1 0 0.031(5) 
H12 H1+ 4 a 0.658(2) 0.055(2) -0.2112(18) 1 0 0.028(4) 
H13 H1+ 4 a 0.556(2) 0.134(2) -0.2480(19) 1 0 0.030(5) 

loop_
_atom_site_aniso_label
_atom_site_aniso_type_symbol
_atom_site_aniso_U_11
_atom_site_aniso_U_22
_atom_site_aniso_U_33
_atom_site_aniso_U_12
_atom_site_aniso_U_13
_atom_site_aniso_U_23
As1 As5+ 0.00650(2) 0.00639(3) 0.00695(3) -0.00009(2) 0.000186(17) 
-0.00020(2)
K1 K1+ 0.01104(6) 0.01095(6) 0.01240(7) 0.00040(5) 0.00126(5) 0.00117(5)
K2 K1+ 0.01484(6) 0.00986(6) 0.01241(6) -0.00078(4) -0.00182(5) 0.00028(5)
O1 O2- 0.0107(2) 0.0116(2) 0.0079(2) -0.00005(16) 0.00164(16) 0.00044(17)
O2 O2- 0.00975(19) 0.0093(2) 0.0123(2) 0.00204(15) 0.00070(17) -0.00214(17)
O3 O2- 0.0104(2) 0.0122(2) 0.0121(2) 0.00062(16) -0.00375(18) -0.00044(18)
O4 O2- 0.0111(2) 0.0078(2) 0.0162(3) -0.00195(15) 0.00308(18) 0.00012(17)
O5 O2- 0.0129(2) 0.0162(3) 0.0121(2) -0.00386(18) 0.00127(18) -0.0021(2)
O6 O2- 0.0120(2) 0.0125(2) 0.0183(3) 0.00074(18) -0.00137(19) -0.0041(2)
O7 O2- 0.0110(2) 0.0142(2) 0.0150(3) -0.00015(17) 0.00229(18) 0.0011(2)
O8 O2- 0.0121(2) 0.0160(2) 0.0122(2) -0.00126(18) 0.00106(17) -0.00192(20)
O9 O2- 0.0147(3) 0.0145(2) 0.0126(3) 0.0011(2) -0.0005(2) 0.0015(2)
O10 O2- 0.0175(3) 0.0131(3) 0.0180(3) 0.0039(2) -0.0043(2) -0.0028(2)
#End of data_424696-ICSD


