data_260592-ICSD
#?2014 by Fachinformationszentrum Karlsruhe, and the U.S. Secretary of 
#Commerce on behalf of the United States.  All rights reserved.
_database_code_ICSD                260592
_audit_creation_date               2010/02/01
_chemical_name_systematic
;
Calcium Hexahydroxodizincate Dihydrate
;
_chemical_formula_structural       'Ca Zn2 (O H)6 (H2 O)2'
_chemical_formula_sum              'H10 Ca1 O8 Zn2'
_publ_section_title
;
A new processing method of Ca Zn2 (O H)6 * 2 H2 O powders: 
Photoluminescence and growth mechanism
;
loop_
_citation_id
_citation_journal_abbrev
_citation_year
_citation_journal_volume
_citation_journal_issue
_citation_page_first
_citation_page_last
_citation_journal_id_ASTM
primary 'Solid State Sciences' 2009 11 12 2173 2179 SSSCFJ
_publ_author_name
;
Xavier, C.S.;Sczancoski, J.C.;Cavalcante, L.S.;Paiva-Santos, 
C.O.;Varela, J.A.;Longo, E.;Siu Li, M.
;
_cell_length_a                     6.372
_cell_length_b                     10.940
_cell_length_c                     5.740
_cell_angle_alpha                  90
_cell_angle_beta                   101.9151
_cell_angle_gamma                  90
_cell_volume                       391.51
_cell_formula_units_Z              2
_symmetry_space_group_name_H-M     'P 1 21/c 1'
_symmetry_Int_Tables_number        14
_refine_ls_R_factor_all            .0846
loop_
_symmetry_equiv_pos_site_id
_symmetry_equiv_pos_as_xyz
  1	'x, -y+.5, z+.5'
  2	'-x, -y, -z'
  3	'-x, y+.5, -z+.5'
  4	'x, y, z'
loop_
_atom_type_symbol
_atom_type_oxidation_number
Ca2+	2
H1+	1
O2-	-2
Zn2+	2
loop_
_atom_site_label
_atom_site_type_symbol
_atom_site_symmetry_multiplicity
_atom_site_Wyckoff_symbol
_atom_site_fract_x
_atom_site_fract_y
_atom_site_fract_z
_atom_site_occupancy
_atom_site_attached_hydrogens
Zn1 Zn2+ 4 e 0.53380 0.16486 0.16379 1. 0 
Ca1 Ca2+ 2 a 0 0 0 1. 0 
O1 O2- 4 e 0.47004 0.18029 0.81468 1. 0 
O2 O2- 4 e 0.34035 0.04236 0.24587 1. 0 
O3 O2- 4 e 0.828989 0.12382 0.23683 1. 0 
O4 O2- 4 e 0.03811 0.15888 0.73868 1. 0 
H1 H1+ 4 e 0.524 0.116 0.77 1. 0 
H2 H1+ 4 e 0.325 0.054 0.358 1. 0 
H3 H1+ 4 e 0.868 0.111 0.357 1. 0 
H4 H1+ 4 e 0.172 0.169 0.751 1. 0 
H5 H1+ 4 e 0.981 0.229 0.742 1. 0 

#End of data_260592-ICSD


