data_415526-ICSD
#?2014 by Fachinformationszentrum Karlsruhe, and the U.S. Secretary of 
#Commerce on behalf of the United States.  All rights reserved.
_database_code_ICSD                415526
_audit_creation_date               2007/08/01
_chemical_name_systematic          'Lithium Niobate'
_chemical_formula_structural       'Li (Nb O3)'
_chemical_formula_sum              'Li1 Nb1 O3'
_publ_section_title
;
Evolution structurale en fonction de la temperature du compose Li Nb 
O3
;
loop_
_citation_id
_citation_journal_abbrev
_citation_year
_citation_journal_volume
_citation_page_first
_citation_page_last
_citation_journal_id_ASTM
primary 'Annales de Chimie (Paris) (Vol=Year)' 2006 31 431 438 ANCPAC
_publ_author_name
;
Hamzaoui, F.;Tabti, C.;Chouaih, A.;Vergoten, G.
;
_cell_length_a                     5.140(10)
_cell_length_b                     5.140(10)
_cell_length_c                     13.840(10)
_cell_angle_alpha                  90.
_cell_angle_beta                   90.
_cell_angle_gamma                  120.
_cell_volume                       316.66
_cell_formula_units_Z              6
_symmetry_space_group_name_H-M     'R 3 c H'
_symmetry_Int_Tables_number        161
_refine_ls_R_factor_all            .0583
loop_
_symmetry_equiv_pos_site_id
_symmetry_equiv_pos_as_xyz
  1	'-x+y, y, z+.5'
  2	'x, x-y, z+.5'
  3	'-y, -x, z+.5'
  4	'-x+y, -x, z'
  5	'-y, x-y, z'
  6	'x, y, z'
  7	'-x+y+.6666, y+.3333, z+.8333'
  8	'-x+y+.3333, y+.6666, z+.1666'
  9	'x+.6666, x-y+.3333, z+.8333'
 10	'x+.3333, x-y+.6666, z+.1666'
 11	'-y+.6666, -x+.3333, z+.8333'
 12	'-y+.3333, -x+.6666, z+.1666'
 13	'-x+y+.6666, -x+.3333, z+.3333'
 14	'-x+y+.3333, -x+.6666, z+.6666'
 15	'-y+.6666, x-y+.3333, z+.3333'
 16	'-y+.3333, x-y+.6666, z+.6666'
 17	'x+.6666, y+.3333, z+.3333'
 18	'x+.3333, y+.6666, z+.6666'
loop_
_atom_type_symbol
_atom_type_oxidation_number
Li1+	1
Nb5+	5
O2-	-2
loop_
_atom_site_label
_atom_site_type_symbol
_atom_site_symmetry_multiplicity
_atom_site_Wyckoff_symbol
_atom_site_fract_x
_atom_site_fract_y
_atom_site_fract_z
_atom_site_occupancy
_atom_site_attached_hydrogens
_atom_site_U_iso_or_equiv
Li1 Li1+ 6 a 0.0000 0.0000 0.281(2) 1.00(4) 0 0.009(5) 
O1 O2- 18 b 0.0482(2) 0.34271(17) 0.0642(4) 1.00(9) 0 0.00688(17) 
Nb1 Nb5+ 6 a 0.0000 0.0000 0.0000 1.00(10) 0 0.0047(2) 

loop_
_atom_site_aniso_label
_atom_site_aniso_type_symbol
_atom_site_aniso_U_11
_atom_site_aniso_U_22
_atom_site_aniso_U_33
_atom_site_aniso_U_12
_atom_site_aniso_U_13
_atom_site_aniso_U_23
Li1 Li1+ 0.008(6) 0.008(6) 0.010(8) 0.004(3) 0.000 0.000
O1 O2- 0.0076(3) 0.0055(2) 0.0073(2) 0.0031(2) -0.0016(2) -0.00223(18)
Nb1 Nb5+ 0.0050(2) 0.0050(2) 0.0041(2) 0.00251(11) 0.000 0.000
#End of data_415526-ICSD


