data_422530-ICSD
#?2014 by Fachinformationszentrum Karlsruhe, and the U.S. Secretary of 
#Commerce on behalf of the United States.  All rights reserved.
_database_code_ICSD                422530
_audit_creation_date               2011/08/01
_chemical_name_systematic
;
Dirubidium Zinc Tetrabromide - Phase Iii
;
_chemical_formula_structural       'Rb2 Zn Br4'
_chemical_formula_sum              'Br4 Rb2 Zn1'
_publ_section_title
;
Symmetry mode analysis of the phases transitions in Rb2 Zn Br4
;
loop_
_citation_id
_citation_journal_abbrev
_citation_year
_citation_journal_volume
_citation_journal_issue
_citation_page_first
_citation_page_last
_citation_journal_id_ASTM
primary 'Zeitschrift fuer Kristallographie - Crystalline Materials'
 2011 226 5 454 466 ZKCMAJ
_publ_author_name
;
Zuniga, F.J.;Perez-Mato, J.M.;Orobengoa, D.;Petricek, V.;Breczewski, 
T.
;
_cell_length_a                     28.0400(10)
_cell_length_b                     13.2387(7)
_cell_length_c                     7.6139(3)
_cell_angle_alpha                  90
_cell_angle_beta                   90
_cell_angle_gamma                  90
_cell_volume                       2826.38
_cell_formula_units_Z              12
_symmetry_space_group_name_H-M     'P n a 21'
_symmetry_Int_Tables_number        33
_refine_ls_R_factor_all            .0419
loop_
_symmetry_equiv_pos_site_id
_symmetry_equiv_pos_as_xyz
  1	'x+.5, -y+.5, z'
  2	'-x+.5, y+.5, z+.5'
  3	'-x, -y, z+.5'
  4	'x, y, z'
loop_
_atom_type_symbol
_atom_type_oxidation_number
Br1-	-1
Rb1+	1
Zn2+	2
loop_
_atom_site_label
_atom_site_type_symbol
_atom_site_symmetry_multiplicity
_atom_site_Wyckoff_symbol
_atom_site_fract_x
_atom_site_fract_y
_atom_site_fract_z
_atom_site_occupancy
_atom_site_attached_hydrogens
_atom_site_U_iso_or_equiv
Br1 Br1- 4 a 0.17486(8) 0.5822(2) 0.2896(5) 1 0 0.0389(7) 
Br2 Br1- 4 a 0.05909(7) 0.4144(2) 0.3042(5) 1 0 0.0397(7) 
Br3 Br1- 4 a 0.06116(8) 0.6849(2) 0.4959(4) 1 0 0.0422(7) 
Br4 Br1- 4 a 0.06499(8) 0.6440(2) -0.0043(4) 1 0 0.0403(7) 
Br5 Br1- 4 a 0.15961(8) 0.4193(3) 0.7736(5) 1 0 0.0424(8) 
Br6 Br1- 4 a 0.27576(9) 0.5849(2) 0.6941(5) 1 0 0.0320(7) 
Br7 Br1- 4 a 0.27533(8) 0.3667(2) 1.0263(4) 1 0 0.0313(6) 
Br8 Br1- 4 a 0.26611(9) 0.3075(2) 0.5267(5) 1 0 0.0369(7) 
Br9 Br1- 4 a -0.00767(8) 0.0766(2) 0.7039(5) 1 0 0.0305(6) 
Br10 Br1- 4 a 0.10864(7) 0.91576(19) 0.8036(5) 1 0 0.0328(6) 
Br11 Br1- 4 a 0.09502(8) 0.1896(2) 0.9808(4) 1 0 0.0367(6) 
Br12 Br1- 4 a 0.11042(7) 0.1369(2) 0.4798(4) 1 0 0.0324(6) 
Rb1 Rb1+ 4 a 0.17103(8) 0.3231(2) 0.25 1 0 0.0284(7) 
Rb2 Rb1+ 4 a 0.29274(9) 0.5993(3) 0.2412(5) 1 0 0.0400(10) 
Rb3 Rb1+ 4 a 0.33686(8) 0.1779(2) 0.2403(3) 1 0 0.0285(7) 
Rb4 Rb1+ 4 a 0.45895(9) 0.9086(3) 0.2786(5) 1 0 0.0395(7) 
Rb5 Rb1+ 4 a -0.00425(7) 0.82245(19) 0.7792(3) 1 0 0.0249(5) 
Rb6 Rb1+ 4 a 0.37548(9) 0.3995(3) 0.7629(5) 1 0 0.0457(10) 
Zn1 Zn2+ 4 a 0.09279(8) 0.5793(2) 0.2683(5) 1 0 0.0203(7) 
Zn2 Zn2+ 4 a 0.24182(9) 0.4217(3) 0.7516(5) 1 0 0.0215(7) 
Zn3 Zn2+ 4 a 0.07405(10) 0.0782(2) 0.7466(5) 1 0 0.0205(7) 

loop_
_atom_site_aniso_label
_atom_site_aniso_type_symbol
_atom_site_aniso_U_11
_atom_site_aniso_U_22
_atom_site_aniso_U_33
_atom_site_aniso_U_12
_atom_site_aniso_U_13
_atom_site_aniso_U_23
Br1 Br1- 0.0155(8) 0.0342(12) 0.0670(15) -0.0036(8) 0.0038(10) -0.0115(14)
Br2 Br1- 0.0205(8) 0.0254(10) 0.0730(16) -0.0042(8) 0.0034(10) 0.0027(13)
Br3 Br1- 0.0249(8) 0.0656(16) 0.0361(12) 0.0153(9) -0.0057(8) -0.0261(12)
Br4 Br1- 0.0356(9) 0.0589(15) 0.0265(10) 0.0185(9) 0.0036(8) 0.0122(10)
Br5 Br1- 0.0159(8) 0.0370(13) 0.0743(17) -0.0032(8) 0.0004(10) 0.0140(14)
Br6 Br1- 0.0209(10) 0.0245(11) 0.0507(14) -0.0049(9) -0.0023(10) 0.0067(12)
Br7 Br1- 0.0243(8) 0.0446(13) 0.0251(10) 0.0053(9) 0.0001(8) 0.0063(10)
Br8 Br1- 0.0350(10) 0.0462(14) 0.0295(11) 0.0061(10) -0.0006(9) -0.0123(11)
Br9 Br1- 0.0151(8) 0.0363(12) 0.0402(11) 0.0024(8) 0.0019(8) 0.0121(11)
Br10 Br1- 0.0202(8) 0.0269(11) 0.0512(13) 0.0045(7) 0.0020(9) 0.0051(12)
Br11 Br1- 0.0380(10) 0.0433(13) 0.0288(10) -0.0111(10) 0.0016(9) 
-0.0095(10)
Br12 Br1- 0.0192(7) 0.0522(14) 0.0258(10) -0.0052(8) 0.0003(8) 0.0106(10)
Rb1 Rb1+ 0.0205(8) 0.0246(13) 0.0401(13) 0.0008(8) 0.0009(8) 0.0007(9)
Rb2 Rb1+ 0.0187(10) 0.058(2) 0.0438(16) -0.0003(11) 0.0020(9) -0.0033(12)
Rb3 Rb1+ 0.0192(9) 0.0257(13) 0.0406(13) -0.0011(8) 0.0022(8) -0.0026(9)
Rb4 Rb1+ 0.0185(8) 0.0520(15) 0.0480(13) 0.0003(9) -0.0021(9) 0.0024(13)
Rb5 Rb1+ 0.0198(8) 0.0226(11) 0.0322(10) -0.0006(7) 0.0034(8) -0.0053(9)
Rb6 Rb1+ 0.0181(9) 0.075(2) 0.0439(14) -0.0019(11) 0.0059(9) -0.0022(14)
Zn1 Zn2+ 0.0164(10) 0.0203(14) 0.0240(12) -0.0001(9) 0.0003(9) -0.0001(11)
Zn2 Zn2+ 0.0152(10) 0.0243(15) 0.0249(11) -0.0007(9) 0.0002(8) 0.0010(11)
Zn3 Zn2+ 0.0165(10) 0.0222(14) 0.0230(11) -0.0003(10) 0.0010(8) 0.0015(11)
#End of data_422530-ICSD


