data_280885-ICSD
#?2014 by Fachinformationszentrum Karlsruhe, and the U.S. Secretary of 
#Commerce on behalf of the United States.  All rights reserved.
_database_code_ICSD                280885
_audit_creation_date               2003/04/01
_audit_update_record               2007/04/01
_chemical_name_systematic          'Potassium Vanado(V)tellurate(IV)'
_chemical_formula_structural       'K (V Te O5)'
_chemical_formula_sum              'K1 O5 Te1 V1'
_publ_section_title
;
K V Te O5 and a redetermination of the Na homologue
;
loop_
_citation_id
_citation_journal_abbrev
_citation_year
_citation_journal_volume
_citation_page_first
_citation_page_last
_citation_journal_id_ASTM
primary 'Acta Crystallographica, Section C: Crystal Structure Communications'
 2002 58 i111 i113 ACSCEE
2
;
Comptes Rendus Hebdomadaires des Seances de l`Academie des Sciences, 
Serie C, Sciences Chimiques (1966-)
;
 1969 269 23 25 CHDCAQ
_publ_author_name                  'Rozier, P.;Vendier, L.;Galy, J.'
_cell_length_a                     6.3870(3)
_cell_length_b                     11.6150(8)
_cell_length_c                     6.8840(3)
_cell_angle_alpha                  90.
_cell_angle_beta                   105.100(3)
_cell_angle_gamma                  90.
_cell_volume                       493.06
_cell_formula_units_Z              4
_symmetry_space_group_name_H-M     'P 1 21/c 1'
_symmetry_Int_Tables_number        14
_refine_ls_R_factor_all            .033
loop_
_symmetry_equiv_pos_site_id
_symmetry_equiv_pos_as_xyz
  1	'x, -y+.5, z+.5'
  2	'-x, -y, -z'
  3	'-x, y+.5, -z+.5'
  4	'x, y, z'
loop_
_atom_type_symbol
_atom_type_oxidation_number
K1+	1
O2-	-2
Te4+	4
V5+	5
loop_
_atom_site_label
_atom_site_type_symbol
_atom_site_symmetry_multiplicity
_atom_site_Wyckoff_symbol
_atom_site_fract_x
_atom_site_fract_y
_atom_site_fract_z
_atom_site_occupancy
_atom_site_attached_hydrogens
_atom_site_U_iso_or_equiv
Te1 Te4+ 4 e 0.75746(3) 0.551830(19) 0.39923(3) 1. 0 0.01096(8) 
V1 V5+ 4 e 0.33917(8) 0.37967(5) 0.09575(7) 1. 0 0.01085(12) 
K1 K1+ 4 e 0.82118(12) 0.18937(7) 0.33511(11) 1. 0 0.01857(17) 
O1 O2- 4 e 0.1900(4) 0.4532(2) -.1372(3) 1. 0 0.0142(5) 
O2 O2- 4 e 0.5186(4) 0.2930(2) 0.0463(4) 1. 0 0.0211(6) 
O3 O2- 4 e 0.1618(4) 0.3042(2) 0.1764(3) 1. 0 0.0183(5) 
O4 O2- 4 e 0.4607(4) 0.4850(2) 0.2839(3) 1. 0 0.0154(5) 
O5 O2- 4 e 0.8792(3) 0.4093(2) 0.4900(3) 1. 0 0.0141(5) 

loop_
_atom_site_aniso_label
_atom_site_aniso_type_symbol
_atom_site_aniso_U_11
_atom_site_aniso_U_22
_atom_site_aniso_U_33
_atom_site_aniso_U_12
_atom_site_aniso_U_13
_atom_site_aniso_U_23
Te1 Te4+ 0.01030(12) 0.01243(13) 0.00965(12) 0.00054(7) 0.00169(8) 
0.00056(7)
V1 V5+ 0.0099(2) 0.0130(3) 0.0095(2) -0.00094(19) 0.00219(19) 0.0002(2)
K1 K1+ 0.0145(3) 0.0225(4) 0.0173(3) 0.0026(3) 0.0019(3) -0.0039(3)
O1 O2- 0.0144(11) 0.0185(13) 0.0097(9) 0.0023(9) 0.0032(8) 0.0029(9)
O2 O2- 0.0190(11) 0.0249(16) 0.0189(12) 0.0071(11) 0.0043(9) -0.0005(10)
O3 O2- 0.0157(10) 0.0243(15) 0.0142(11) -0.0041(10) 0.0023(9) 0.0032(10)
O4 O2- 0.0132(11) 0.0170(13) 0.0146(10) -0.0012(10) 0.0009(9) -0.0039(9)
O5 O2- 0.0114(10) 0.0133(12) 0.0163(10) 0.0020(9) 0.0013(8) 0.0033(9)
#End of data_280885-ICSD


