data_189972-ICSD
#?2014 by Fachinformationszentrum Karlsruhe, and the U.S. Secretary of 
#Commerce on behalf of the United States.  All rights reserved.
_database_code_ICSD                189972
_audit_creation_date               2014/08/01
_chemical_name_systematic          'Dimagnesium Silicate'
_chemical_formula_structural       'Mg2 (Si O4)'
_chemical_formula_sum              'Mg2 O4 Si1'
_chemical_name_mineral             Forsterite
_publ_section_title
;
Phase transitions and equation of state of forsterite to 90 GPa from 
single-crystal X-ray diffraction and molecular modeling
;
loop_
_citation_id
_citation_journal_abbrev
_citation_year
_citation_journal_volume
_citation_journal_issue
_citation_page_first
_citation_page_last
_citation_journal_id_ASTM
primary 'American Mineralogist' 2014 99 1 35 43 AMMIAY
_publ_author_name
;
Gregory J. Finkelstein;Przemyslaw K. Dera;Sandro Jahn;Artem R. 
Oganov;Christopher M. Holl;Yue Meng;Thomas S. Duffy
;
_cell_length_a                     4.695
_cell_length_b                     9.201
_cell_length_c                     5.311
_cell_angle_alpha                  93.100
_cell_angle_beta                   107.264
_cell_angle_gamma                  98.133
_cell_volume                       215.77
_cell_formula_units_Z              4
_symmetry_space_group_name_H-M     'P 1'
_symmetry_Int_Tables_number        1
loop_
_symmetry_equiv_pos_site_id
_symmetry_equiv_pos_as_xyz
  1	'x, y, z'
loop_
_atom_type_symbol
_atom_type_oxidation_number
Mg2+	2
O2-	-2
Si4+	4
loop_
_atom_site_label
_atom_site_type_symbol
_atom_site_symmetry_multiplicity
_atom_site_Wyckoff_symbol
_atom_site_fract_x
_atom_site_fract_y
_atom_site_fract_z
_atom_site_occupancy
_atom_site_attached_hydrogens
Mg1 Mg2+ 1 a 0.9714 0.0966 0.6415 1. 0 
Mg2 Mg2+ 1 a 0.0419 0.9354 0.0567 1. 0 
Mg3 Mg2+ 1 a 0.0026 0.6656 0.7362 1. 0 
Mg4 Mg2+ 1 a 0.5065 0.5160 0.8488 1. 0 
Mg5 Mg2+ 1 a 0.5386 0.7905 0.1388 1. 0 
Mg6 Mg2+ 1 a 0.0105 0.3666 0.9614 1. 0 
Mg7 Mg2+ 1 a 0.4746 0.2414 0.5588 1. 0 
Mg8 Mg2+ 1 a 0.5065 0.5161 0.3489 1. 0 
Si1 Si4+ 1 a 0.0048 0.3875 0.4564 1. 0 
Si2 Si4+ 1 a 0.0083 0.6445 0.2412 1. 0 
Si3 Si4+ 1 a 0.6136 0.1239 0.0951 1. 0 
Si4 Si4+ 1 a 0.3995 0.9081 0.6027 1. 0 
O1 O2- 1 a 0.2702 0.8430 0.8193 1. 0 
O2 O2- 1 a 0.7865 0.6995 0.9680 1. 0 
O3 O2- 1 a 0.7628 0.2287 0.3717 1. 0 
O4 O2- 1 a 0.2756 0.0474 0.4928 1. 0 
O5 O2- 1 a 0.7429 0.1891 0.8786 1. 0 
O6 O2- 1 a 0.2266 0.3325 0.7297 1. 0 
O7 O2- 1 a 0.2506 0.8032 0.3262 1. 0 
O8 O2- 1 a 0.7833 0.6947 0.4029 1. 0 
O9 O2- 1 a 0.7924 0.4622 0.1735 1. 0 
O10 O2- 1 a 0.7372 0.9845 0.2048 1. 0 
O11 O2- 1 a 0.2204 0.5698 0.5243 1. 0 
O12 O2- 1 a 0.7760 0.4475 0.6450 1. 0 
O13 O2- 1 a 0.2685 0.1109 0.0031 1. 0 
O14 O2- 1 a 0.2370 0.5847 0.0528 1. 0 
O15 O2- 1 a 0.2300 0.3374 0.2947 1. 0 
O16 O2- 1 a 0.7446 0.9211 0.6950 1. 0 

#End of data_189972-ICSD


