data_71778-ICSD
#?2014 by Fachinformationszentrum Karlsruhe, and the U.S. Secretary of 
#Commerce on behalf of the United States.  All rights reserved.
_database_code_ICSD                71778
_audit_creation_date               1993/08/22
_audit_update_record               2012/02/01
_chemical_name_systematic          'Rubidium Zinc Phosphate(V)'
_chemical_formula_structural       'Rb Zn (P O4)'
_chemical_formula_sum              'O4 P1 Rb1 Zn1'
_publ_section_title                'Structure cristalline de Rb Zn PO4'
loop_
_citation_id
_citation_journal_abbrev
_citation_year
_citation_journal_volume
_citation_page_first
_citation_page_last
_citation_journal_id_ASTM
primary 'Journal de Chimie Physique et de Physico-Chimie Biologique'
 1991 88 1969 1974 JCPBAN
2 'Golden Book of Phase Transitions, Wroclaw' 2002 1 1 123 GBOPT5
_publ_author_name                  'Elammari, L.;Elouadi, B.'
_cell_length_a                     8.855(3)
_cell_length_b                     5.408(1)
_cell_length_c                     8.956(4)
_cell_angle_alpha                  90.
_cell_angle_beta                   90.90(3)
_cell_angle_gamma                  90.
_cell_volume                       428.83
_cell_formula_units_Z              4
_symmetry_space_group_name_H-M     'P 1 21 1'
_symmetry_Int_Tables_number        4
_refine_ls_R_factor_all            .045
loop_
_symmetry_equiv_pos_site_id
_symmetry_equiv_pos_as_xyz
  1	'-x, y+.5, -z'
  2	'x, y, z'
loop_
_atom_type_symbol
_atom_type_oxidation_number
O2-	-2
P5+	5
Rb1+	1
Zn2+	2
loop_
_atom_site_label
_atom_site_type_symbol
_atom_site_symmetry_multiplicity
_atom_site_Wyckoff_symbol
_atom_site_fract_x
_atom_site_fract_y
_atom_site_fract_z
_atom_site_occupancy
_atom_site_attached_hydrogens
Rb1 Rb1+ 2 a 0.0069(1) 0.2476(3) 0.1996(1) 1. 0 
Rb2 Rb1+ 2 a 0.4982(1) 0.7135(3) 0.6896(1) 1. 0 
Zn1 Zn2+ 2 a 0.8256(1) 0.75 0.4225(1) 1. 0 
Zn2 Zn2+ 2 a 0.3278(1) 0.7087(3) 0.0923(1) 1. 0 
P1 P5+ 2 a 0.8044(2) 0.2403(5) 0.5772(2) 1. 0 
P2 P5+ 2 a 0.6930(2) 0.7102(5) 0.0965(2) 1. 0 
O1 O2- 2 a 0.5342(7) 0.7440(18) 0.1620(8) 1. 0 
O2 O2- 2 a 0.8080(9) 0.8098(14) 0.2125(9) 1. 0 
O3 O2- 2 a 0.7299(9) 0.4385(13) 0.0667(8) 1. 0 
O4 O2- 2 a 0.7077(10) 0.8647(15) -.0480(8) 1. 0 
O5 O2- 2 a 0.9654(7) 0.2178(17) 0.5205(8) 1. 0 
O6 O2- 2 a 0.7186(8) 0.9966(9) 0.5429(9) 1. 0 
O7 O2- 2 a 0.7284(10) 0.4499(14) 0.4911(10) 1. 0 
O8 O2- 2 a 0.8039(10) 0.2955(17) 0.7471(8) 1. 0 

loop_
_atom_site_aniso_label
_atom_site_aniso_type_symbol
_atom_site_aniso_U_11
_atom_site_aniso_U_22
_atom_site_aniso_U_33
_atom_site_aniso_U_12
_atom_site_aniso_U_13
_atom_site_aniso_U_23
Rb1 Rb1+ 0.019(1) 0.027(1) 0.027(1) 0.000(1) 0.001(1) 0.004(1)
Rb2 Rb1+ 0.018(1) 0.018(1) 0.021(1) 0.000(1) -0.001(1) 0.001(1)
Zn1 Zn2+ 0.010(1) 0.011(1) 0.014(1) 0.001(1) 0.001(1) 0.000(1)
Zn2 Zn2+ 0.011(1) 0.012(1) 0.016(1) 0.000(1) 0.002(1) -0.001(1)
P1 P5+ 0.011(1) 0.009(1) 0.012(1) -0.002(1) 0.001(1) 0.000(1)
P2 P5+ 0.011(1) 0.010(1) 0.013(1) 0.001(1) -0.004(1) 0.002(1)
O1 O2- 0.013(3) 0.035(4) 0.029(4) 0.003(4) 0.002(3) -0.006(4)
O2 O2- 0.022(4) 0.026(4) 0.030(4) -0.005(3) -0.006(3) -0.008(3)
O3 O2- 0.029(4) 0.020(4) 0.015(4) 0.007(3) -0.002(3) 0.002(3)
O4 O2- 0.037(5) 0.025(4) 0.016(4) 0.006(3) 0.005(3) 0.005(3)
O5 O2- 0.019(3) 0.032(4) 0.026(3) -0.002(4) 0.008(3) -0.009(4)
O6 O2- 0.012(3) 0.020(3) 0.027(4) -0.004(3) 0.016(3) -0.002(3)
O7 O2- 0.021(4) 0.015(3) 0.041(5) -0.002(3) 0.002(4) 0.008(3)
O8 O2- 0.032(4) 0.043(5) 0.017(4) -0.019(4) 0.012(3) -0.006(3)
#End of data_71778-ICSD


