data_23181-ICSD
#?2014 by Fachinformationszentrum Karlsruhe, and the U.S. Secretary of 
#Commerce on behalf of the United States.  All rights reserved.
_database_code_ICSD                23181
_audit_creation_date               1986/08/12
_audit_update_record               2008/02/01
_chemical_name_systematic
;
Disodium Tetrabarium Calcium Trititanium Bis(disilicate) 
Bis(sulfate(VI)) Tetraoxide
;
_chemical_formula_structural
;
Na2 Ba4 Ca Ti3 (Si2 O7)2 (S O4)2 O4
;
_chemical_formula_sum              'Ba4 Ca1 Na2 O26 S2 Si4 Ti3'
_chemical_name_mineral             Innelite
_publ_section_title
;
Crystal structure of innelite - Na2 Ba3 (Ba K Mn) (Ca Na) Ti (Ti O2)2 
(Si2 O7)2 (S O4)2
;
loop_
_citation_id
_citation_journal_abbrev
_citation_year
_citation_journal_volume
_citation_journal_issue
_citation_page_first
_citation_page_last
_citation_journal_id_ASTM
primary Kristallografiya 1971 16 1 87 92 KRISAJ
2 'Soviet Physics, Crystallography (= Kristallografiya)'
 1971 16 1 65 69 SPHCA6
_publ_author_name
;
Chernov, A.N.;Ilyukhin, V.V.;Maksimov, B.A.;Belov, N.V.
;
_cell_length_a                     14.76
_cell_length_b                     7.14
_cell_length_c                     5.38
_cell_angle_alpha                  90.
_cell_angle_beta                   95.
_cell_angle_gamma                  99.
_cell_volume                       557.81
_cell_formula_units_Z              1
_symmetry_space_group_name_H-M     'P 1'
_symmetry_Int_Tables_number        1
_refine_ls_R_factor_all            .119
loop_
_symmetry_equiv_pos_site_id
_symmetry_equiv_pos_as_xyz
  1	'x, y, z'
loop_
_atom_type_symbol
_atom_type_oxidation_number
Ba2+	2
Ca2+	2
Na1+	1
O2-	-2
S6+	6
Si4+	4
Ti4+	4
loop_
_atom_site_label
_atom_site_type_symbol
_atom_site_symmetry_multiplicity
_atom_site_Wyckoff_symbol
_atom_site_fract_x
_atom_site_fract_y
_atom_site_fract_z
_atom_site_occupancy
_atom_site_attached_hydrogens
Na1 Na1+ 1 a 0.681 0.423 0.27 1. 0 
Na2 Na1+ 1 a 0.677 0.662 0.761 1. 0 
Ba1 Ba2+ 1 a 0 0 0 1. 0 
Ba2 Ba2+ 1 a 0.299 0.293 0.0624 1. 0 
Ba3 Ba2+ 1 a 0.0784 0.537 0.513 1. 0 
Ba4 Ba2+ 1 a 0.302 0.842 0.575 1. 0 
Ca1 Ca2+ 1 a 0.678 0.149 0.784 1. 0 
Ti1 Ti4+ 1 a 0.488 0.368 0.602 1. 0 
Ti2 Ti4+ 1 a 0.677 0.916 0.319 1. 0 
Ti3 Ti4+ 1 a 0.889 0.48 0.976 1. 0 
Si1 Si4+ 1 a 0.495 0.652 0.108 1. 0 
Si2 Si4+ 1 a 0.5 0.0791 0.0982 1. 0 
Si3 Si4+ 1 a 0.877 0.195 0.473 1. 0 
Si4 Si4+ 1 a 0.875 0.76 0.474 1. 0 
S1 S6+ 1 a 0.204 0.705 0.045 1. 0 
S2 S6+ 1 a 0.164 0.122 0.528 1. 0 
O1 O2- 1 a 0.452 0.858 0.106 1. 0 
O2 O2- 1 a 0.61 0.895 0.606 1. 0 
O3 O2- 1 a 0.919 0.295 0.233 1. 0 
O4 O2- 1 a 0.447 0.542 0.845 1. 0 
O5 O2- 1 a 0.0957 0.689 0.0458 1. 0 
O6 O2- 1 a 0.918 0.288 0.733 1. 0 
O7 O2- 1 a 0.771 0.445 0.952 1. 0 
O8 O2- 1 a 0.763 0.742 0.452 1. 0 
O9 O2- 1 a 0.125 0.212 0.767 1. 0 
O10 O2- 1 a 0.129 0.217 0.295 1. 0 
O11 O2- 1 a 0.13 0.919 0.558 1. 0 
O12 O2- 1 a 0.264 0.15 0.561 1. 0 
O13 O2- 1 a 0.234 0.615 0.284 1. 0 
O14 O2- 1 a 0.238 0.619 0.833 1. 0 
O15 O2- 1 a 0.244 0.919 0.0721 1. 0 
O16 O2- 1 a 0.917 0.675 0.233 1. 0 
O17 O2- 1 a 0.919 0.686 0.741 1. 0 
O18 O2- 1 a 0.599 0.407 0.605 1. 0 
O19 O2- 1 a 0.451 0.172 0.867 1. 0 
O20 O2- 1 a 0.453 0.148 0.348 1. 0 
O21 O2- 1 a 0.45 0.538 0.333 1. 0 
O22 O2- 1 a 0.915 0.994 0.495 1. 0 
O23 O2- 1 a 0.767 0.127 0.444 1. 0 
O24 O2- 1 a 0.6 0.114 0.127 1. 0 
O25 O2- 1 a 0.607 0.683 0.108 1. 0 
O26 O2- 1 a 0.752 0.919 0.0167 1. 0 

#End of data_23181-ICSD


