data_16413-ICSD
#?2014 by Fachinformationszentrum Karlsruhe, and the U.S. Secretary of 
#Commerce on behalf of the United States.  All rights reserved.
_database_code_ICSD                16413
_audit_creation_date               1981/12/31
_audit_update_record               2012/08/01
_chemical_name_systematic          'Potassium Tetrafluoroaluminate'
_chemical_formula_structural       'K (Al F4)'
_chemical_formula_sum              'Al1 F4 K1'
_publ_section_title
;
The room-temperature structure of potassium tetrafluoroaluminate
;
loop_
_citation_id
_citation_journal_abbrev
_citation_year
_citation_journal_volume
_citation_page_first
_citation_page_last
_citation_journal_id_ASTM
primary 'Acta Crystallographica B (24,1968-38,1982)' 1981 37 32 34 ACBCAR
2 'Phase Transition' 1992 38 127 220 PHTRDP
_publ_author_name
;
Mouet, J.;Pannetier, J.;Fourquet, J.L.
;
_cell_length_a                     5.043(2)
_cell_length_b                     5.043(2)
_cell_length_c                     6.164(6)
_cell_angle_alpha                  90.
_cell_angle_beta                   90.
_cell_angle_gamma                  90.
_cell_volume                       156.76
_cell_formula_units_Z              2
_symmetry_space_group_name_H-M     'P 4/m b m'
_symmetry_Int_Tables_number        127
_refine_ls_R_factor_all            .03
loop_
_symmetry_equiv_pos_site_id
_symmetry_equiv_pos_as_xyz
  1	'y+.5, x+.5, -z'
  2	'-y+.5, -x+.5, -z'
  3	'-y, x, -z'
  4	'y, -x, -z'
  5	'x+.5, -y+.5, -z'
  6	'-x+.5, y+.5, -z'
  7	'x, y, -z'
  8	'-x, -y, -z'
  9	'-y+.5, -x+.5, z'
 10	'y+.5, x+.5, z'
 11	'y, -x, z'
 12	'-y, x, z'
 13	'-x+.5, y+.5, z'
 14	'x+.5, -y+.5, z'
 15	'-x, -y, z'
 16	'x, y, z'
loop_
_atom_type_symbol
_atom_type_oxidation_number
Al3+	3
F1-	-1
K1+	1
loop_
_atom_site_label
_atom_site_type_symbol
_atom_site_symmetry_multiplicity
_atom_site_Wyckoff_symbol
_atom_site_fract_x
_atom_site_fract_y
_atom_site_fract_z
_atom_site_occupancy
_atom_site_attached_hydrogens
K1 K1+ 2 c 0 0.5 0.5 1. 0 
Al1 Al3+ 2 a 0 0 0 1. 0 
F1 F1- 4 g 0.2989(2) -.2011(2) 0 1. 0 
F2 F1- 4 e 0 0 0.2842(2) 1. 0 

loop_
_atom_site_aniso_label
_atom_site_aniso_type_symbol
_atom_site_aniso_U_11
_atom_site_aniso_U_22
_atom_site_aniso_U_33
_atom_site_aniso_U_12
_atom_site_aniso_U_13
_atom_site_aniso_U_23
K1 K1+ 0.0192(7) 0.0192(7) 0.0407(13) 0.0004(9) 0 0
Al1 Al3+ 0.0059(5) 0.0059(5) 0.0137(7) 0 0 0
F1 F1- 0.0076(3) 0.0076(3) 0.0550(7) 0.0018(3) 0 0
F2 F1- 0.0347(4) 0.0347(4) 0.0123(3) 0 0 0
#End of data_16413-ICSD


