data_200610-ICSD
#?2014 by Fachinformationszentrum Karlsruhe, and the U.S. Secretary of 
#Commerce on behalf of the United States.  All rights reserved.
_database_code_ICSD                200610
_audit_creation_date               1980/01/01
_audit_update_record               2013/02/01
_chemical_name_systematic
;
Dipotassium Digallium Cyclo-octaphosphate
;
_chemical_formula_structural       'K2 Ga2 P8 O24'
_chemical_formula_sum              'Ga2 K2 O24 P8'
_publ_section_title
;
Crystal structure of the double octametaphosphate K2 Ga2 P8 O24
;
loop_
_citation_id
_citation_journal_abbrev
_citation_year
_citation_journal_volume
_citation_page_first
_citation_page_last
_citation_journal_id_ASTM
primary 'Doklady Akademii Nauk SSSR' 1979 245 1386 1389 DANKAS
_publ_author_name
;
Palkina, K.K.;Maksimova, S.I.;Kuznetsov, V.G.;Chudinova, N.N.
;
_cell_length_a                     5.138(3)
_cell_length_b                     12.290(5)
_cell_length_c                     16.802(13)
_cell_angle_alpha                  90.
_cell_angle_beta                   101.04(5)
_cell_angle_gamma                  90.
_cell_volume                       1041.34
_cell_formula_units_Z              2
_symmetry_space_group_name_H-M     'A 1 2/m 1'
_symmetry_Int_Tables_number        12
_refine_ls_R_factor_all            .041
loop_
_symmetry_equiv_pos_site_id
_symmetry_equiv_pos_as_xyz
  1	'x, -y, z'
  2	'-x, -y, -z'
  3	'-x, y, -z'
  4	'x, y, z'
  5	'x, -y+.5, z+.5'
  6	'-x, -y+.5, -z+.5'
  7	'-x, y+.5, -z+.5'
  8	'x, y+.5, z+.5'
loop_
_atom_type_symbol
_atom_type_oxidation_number
Ga3+	3
K1+	1
O2-	-2
P5+	5
loop_
_atom_site_label
_atom_site_type_symbol
_atom_site_symmetry_multiplicity
_atom_site_Wyckoff_symbol
_atom_site_fract_x
_atom_site_fract_y
_atom_site_fract_z
_atom_site_occupancy
_atom_site_attached_hydrogens
Ga1 Ga3+ 4 e 0 0.25 0.25 1. 0 
K1 K1+ 4 i 0.2573(4) 0 0.40645(11) 1. 0 
P1 P5+ 8 j 0.1649(3) 0.27781(10) 0.07733(7) 1. 0 
P2 P5+ 8 j 0.4679(2) 0.11988(10) 0.18920(7) 1. 0 
O1 O2- 4 g 0 0.2157(4) 0 1. 0 
O2 O2- 8 j 0.3812(6) 0.1852(3) 0.1076(2) 1. 0 
O3 O2- 8 j 0.0139(7) 0.2120(3) 0.3618(2) 1. 0 
O4 O2- 8 j 0.2880(7) 0.3772(3) 0.0539(2) 1. 0 
O5 O2- 8 j 0.2386(6) 0.6374(3) 0.2837(2) 1. 0 
O6 O2- 8 j 0.3041(6) 0.1512(3) 0.2502(2) 1. 0 
O7 O2- 4 i 0.3929(10) 0 0.1575(3) 1. 0 

loop_
_atom_site_aniso_label
_atom_site_aniso_type_symbol
_atom_site_aniso_B_11
_atom_site_aniso_B_22
_atom_site_aniso_B_33
_atom_site_aniso_B_12
_atom_site_aniso_B_13
_atom_site_aniso_B_23
Ga1 Ga3+ 0.54(3) 0.83(3) 0.58(3) 0.05(3) 0.12(2) -.01(2)
K1 K1+ 1.81(8) 1.11(6) 2.21(8) 0 0.23(6) 0.01
P1 P5+ 0.86(5) 0.62(4) 0.58(4) 0 0.09(4) 0.09(3)
P2 P5+ 0.55(5) 0.55(5) 0.67(4) 0.04(4) 0.07(4) 0.02(3)
O1 O2- 1.64(22) 0.87(18) 0.10(18) 0 -.06(16) 0
O2 O2- 1.14(14) 1.09(15) 0.83(12) 0.54(12) 0.42(11) 0.30(11)
O3 O2- 1.17(14) 1.60(14) 0.62(12) 0.46(12) 0.16(11) 0.27(11)
O4 O2- 1.55(16) 1.03(14) 2.07(16) -.31(12) 0.32(13) 0.33(12)
O5 O2- 0.62(13) 0.71(13) 1.62(15) -.05(11) 0.05(11) -.15(11)
O6 O2- 0.89(13) 1.39(14) 0.52(12) 0.44(12) 0.24(11) 0.25(11)
O7 O2- 0.98(20) 0.41(17) 1.33(20) 0 -.16(16) 0
#End of data_200610-ICSD


