data_414152-ICSD
#?2014 by Fachinformationszentrum Karlsruhe, and the U.S. Secretary of 
#Commerce on behalf of the United States.  All rights reserved.
_database_code_ICSD                414152
_audit_creation_date               2005/10/01
_chemical_name_systematic          'Europium Lithium Iridate'
_chemical_formula_structural       'Eu2 Ir Li O6'
_chemical_formula_sum              'Eu2 Ir1 Li1 O6'
_publ_section_title
;
Crystal growth and magnetic properties of Ln2 Li Ir O6 (Ln = Pr, Nd, 
Sm, Eu)
;
loop_
_citation_id
_citation_journal_abbrev
_citation_year
_citation_journal_volume
_citation_page_first
_citation_page_last
_citation_journal_id_ASTM
primary 'Journal of Solid State Chemistry' 2005 178 200 206 JSSCBI
_publ_author_name
;
Mugavero, S.J.;Smith, M.D.;zur Loye, H.C.
;
_cell_length_a                     5.3549(5)
_cell_length_b                     5.7538(5)
_cell_length_c                     7.6129(7)
_cell_angle_alpha                  90.00
_cell_angle_beta                   90.782(3)
_cell_angle_gamma                  90.00
_cell_volume                       234.54
_cell_formula_units_Z              2
_symmetry_space_group_name_H-M     'P 1 21/n 1'
_symmetry_Int_Tables_number        14
_refine_ls_R_factor_all            .045
loop_
_symmetry_equiv_pos_site_id
_symmetry_equiv_pos_as_xyz
  1	'-x+.5, y+.5, -z+.5'
  2	'-x, -y, -z'
  3	'x+.5, -y+.5, z+.5'
  4	'x, y, z'
loop_
_atom_type_symbol
_atom_type_oxidation_number
Eu3+	3
Ir5+	5
Li1+	1
O2-	-2
loop_
_atom_site_label
_atom_site_type_symbol
_atom_site_symmetry_multiplicity
_atom_site_Wyckoff_symbol
_atom_site_fract_x
_atom_site_fract_y
_atom_site_fract_z
_atom_site_occupancy
_atom_site_attached_hydrogens
_atom_site_U_iso_or_equiv
Eu1 Eu3+ 4 e 0.48089(13) 0.07476(12) 0.25147(9) 1 0 0.0062(2) 
Li1 Li1+ 2 a 0.0000 0.0000 0.0000 1 0 0.019(8) 
Ir1 Ir5+ 2 b 0.5000 0.5000 0.0000 1 0 0.0040(2) 
O1 O2- 4 e 0.1973(18) 0.3169(17) 0.0503(13) 1 0 0.008(2) 
O2 O2- 4 e 0.607(2) 0.4644(17) 0.2445(13) 1 0 0.011(2) 
O3 O2- 4 e 0.3258(19) 0.7924(18) 0.0556(14) 1 0 0.011(2) 

loop_
_atom_site_aniso_label
_atom_site_aniso_type_symbol
_atom_site_aniso_U_11
_atom_site_aniso_U_22
_atom_site_aniso_U_33
_atom_site_aniso_U_12
_atom_site_aniso_U_13
_atom_site_aniso_U_23
Eu1 Eu3+ 0.0067(4) 0.0057(4) 0.0063(3) -0.0006(2) 0.0001(3) 0.0004(2)
Ir1 Ir5+ 0.0040(4) 0.0041(4) 0.0039(4) -0.0002(3) 0.0002(3) -0.0002(3)
#End of data_414152-ICSD


