data_182034-ICSD
#?2014 by Fachinformationszentrum Karlsruhe, and the U.S. Secretary of 
#Commerce on behalf of the United States.  All rights reserved.
_database_code_ICSD                182034
_audit_creation_date               2012/02/01
_chemical_name_systematic
;
Heptalithium Trilanthanum Ditin Dodecaoxide
;
_chemical_formula_structural       'Li7 La3 Sn2 O12'
_chemical_formula_sum              'La3 Li7 O12 Sn2'
_publ_section_title
;
Instability of the lithium garnet Li7 La3 Sn2 O12: Li(+)/H(+) 
exchange and structural study
;
loop_
_citation_id
_citation_journal_abbrev
_citation_year
_citation_journal_volume
_citation_page_first
_citation_page_last
_citation_journal_id_ASTM
primary 'Chemistry of Materials' 2011 23 1892 1900 CMATEX
_publ_author_name
;
Galven, C.;Fourquet, J.L.;Crosnier-Lopez, M.P.;le Berre, F.
;
_cell_length_a                     13.182(1)
_cell_length_b                     13.182(1)
_cell_length_c                     12.608(2)
_cell_angle_alpha                  90.
_cell_angle_beta                   90.
_cell_angle_gamma                  90.
_cell_volume                       2190.83
_cell_formula_units_Z              8
_symmetry_space_group_name_H-M     'I 41/a c d Z'
_symmetry_Int_Tables_number        142
_refine_ls_R_factor_all            .054
loop_
_symmetry_equiv_pos_site_id
_symmetry_equiv_pos_as_xyz
  1	'y+.25, x+.75, -z+.75'
  2	'-y+.75, x+.75, -z+.25'
  3	'x, y+.5, -z'
  4	'-x, y+.5, -z+.5'
  5	'-y+.75, -x+.25, z+.25'
  6	'y+.25, -x+.25, z+.75'
  7	'-x, -y+.5, z'
  8	'x, -y+.5, z+.5'
  9	'y+.25, -x+.75, -z+.25'
 10	'-y+.75, -x+.75, -z+.75'
 11	'x, -y, -z+.5'
 12	'-x, -y, -z'
 13	'-y+.75, x+.25, z+.75'
 14	'y+.25, x+.25, z+.25'
 15	'-x, y, z+.5'
 16	'x, y, z'
 17	'y+.75, x+.25, -z+.25'
 18	'-y+.25, x+.25, -z+.75'
 19	'x+.5, y, -z+.5'
 20	'-x+.5, y, -z'
 21	'-y+.25, -x+.75, z+.75'
 22	'y+.75, -x+.75, z+.25'
 23	'-x+.5, -y, z+.5'
 24	'x+.5, -y, z'
 25	'y+.75, -x+.25, -z+.75'
 26	'-y+.25, -x+.25, -z+.25'
 27	'x+.5, -y+.5, -z'
 28	'-x+.5, -y+.5, -z+.5'
 29	'-y+.25, x+.75, z+.25'
 30	'y+.75, x+.75, z+.75'
 31	'-x+.5, y+.5, z'
 32	'x+.5, y+.5, z+.5'
loop_
_atom_type_symbol
_atom_type_oxidation_number
La3+	3
Li1+	1
O2-	-2
Sn4+	4
loop_
_atom_site_label
_atom_site_type_symbol
_atom_site_symmetry_multiplicity
_atom_site_Wyckoff_symbol
_atom_site_fract_x
_atom_site_fract_y
_atom_site_fract_z
_atom_site_occupancy
_atom_site_attached_hydrogens
_atom_site_B_iso_or_equiv
La1 La3+ 16 e 0.12669(5) 0 0.250 1. 0 0.48(1) 
La2 La3+ 8 b 0 0.250 0.125 1. 0 0.49(1) 
Sn1 Sn4+ 16 c 0 0 0 1. 0 0.41(1) 
Li1 Li1+ 8 a 0 0.250 0.375 1. 0 1.7(2) 
Li2 Li1+ 32 g 0.163(2) 0.832(2) 0.058(2) 1. 0 1.7(2) 
Li3 Li1+ 16 f 0.178(2) 0.428(2) 0.125 1. 0 1.7(2) 
O1 O2- 32 g 0.2772(4) 0.1016(4) 0.1996(4) 1. 0 0.44(7) 
O2 O2- 32 g 0.1956(4) 0.2835(4) 0.0977(4) 1. 0 0.52(7) 
O3 O2- 32 g 0.1043(4) 0.1984(4) 0.2850(4) 1. 0 0.44(7) 

#End of data_182034-ICSD


