data_171139-ICSD
#?2014 by Fachinformationszentrum Karlsruhe, and the U.S. Secretary of 
#Commerce on behalf of the United States.  All rights reserved.
_database_code_ICSD                171139
_audit_creation_date               2006/10/01
_chemical_name_systematic          'Lead Dizinc Bis(borate)'
_chemical_formula_structural       'Pb Zn2 (B O3)2'
_chemical_formula_sum              'B2 O6 Pb1 Zn2'
_publ_section_title                'Lead zinc borate, Pb Zn2 (B O3)2'
loop_
_citation_id
_citation_journal_abbrev
_citation_year
_citation_journal_volume
_citation_page_first
_citation_page_last
_citation_journal_id_ASTM
primary 'Acta Crystallographica, Section C: Crystal Structure Communications'
 2006 62 i11 i12 ACSCEE
_publ_author_name
;
Chen, X.-A.;Zhao, Y.-H.;Chang, X.-A.;Zhang, L.;Xue, H.-P.
;
_cell_length_a                     11.1709(8)
_cell_length_b                     4.9674(7)
_cell_length_c                     10.5987(8)
_cell_angle_alpha                  90.00
_cell_angle_beta                   90.00
_cell_angle_gamma                  90.00
_cell_volume                       588.13
_cell_formula_units_Z              4
_symmetry_space_group_name_H-M     'P c c n'
_symmetry_Int_Tables_number        56
_refine_ls_R_factor_all            .0605
loop_
_symmetry_equiv_pos_site_id
_symmetry_equiv_pos_as_xyz
  1	'x, -y+.5, z+.5'
  2	'-x+.5, y, z+.5'
  3	'x+.5, y+.5, -z'
  4	'-x, -y, -z'
  5	'-x, y+.5, -z+.5'
  6	'x+.5, -y, -z+.5'
  7	'-x+.5, -y+.5, z'
  8	'x, y, z'
loop_
_atom_type_symbol
_atom_type_oxidation_number
B3+	3
O2-	-2
Pb2+	2
Zn2+	2
loop_
_atom_site_label
_atom_site_type_symbol
_atom_site_symmetry_multiplicity
_atom_site_Wyckoff_symbol
_atom_site_fract_x
_atom_site_fract_y
_atom_site_fract_z
_atom_site_occupancy
_atom_site_attached_hydrogens
_atom_site_U_iso_or_equiv
Pb1 Pb2+ 4 c 0.7500 0.7500 0.56467(3) 1 0 0.01330(16) 
Zn1 Zn2+ 8 e 0.50171(8) 0.67690(16) 0.35005(6) 1 0 0.01124(19) 
B1 B3+ 8 e 0.6023(8) 0.1894(18) 0.4163(7) 1 0 0.0128(13) 
O1 O2- 8 e 0.6227(5) 0.3426(11) 0.5216(4) 1 0 0.0127(9) 
O2 O2- 8 e 0.6277(5) -0.0832(11) 0.4122(5) 1 0 0.0137(8) 
O3 O2- 8 e 0.5539(7) 0.3107(13) 0.3117(4) 1 0 0.0163(11) 

loop_
_atom_site_aniso_label
_atom_site_aniso_type_symbol
_atom_site_aniso_U_11
_atom_site_aniso_U_22
_atom_site_aniso_U_33
_atom_site_aniso_U_12
_atom_site_aniso_U_13
_atom_site_aniso_U_23
Pb1 Pb2+ 0.0090(2) 0.0182(2) 0.0127(2) -0.00054(12) 0.000 0.000
Zn1 Zn2+ 0.0117(3) 0.0104(4) 0.0116(3) -0.0012(3) -0.0002(3) -0.0004(2)
B1 B3+ 0.012(3) 0.016(3) 0.010(2) -0.001(3) -0.004(3) 0.000(3)
O1 O2- 0.008(2) 0.016(2) 0.0150(19) -0.0024(19) 0.0005(16) -0.0028(15)
O2 O2- 0.011(2) 0.011(2) 0.0190(17) -0.0012(19) -0.0030(18) 0.0001(17)
O3 O2- 0.023(3) 0.012(2) 0.014(2) 0.007(3) -0.0084(18) -0.0012(15)
#End of data_171139-ICSD


