data_39432-ICSD
#?2014 by Fachinformationszentrum Karlsruhe, and the U.S. Secretary of 
#Commerce on behalf of the United States.  All rights reserved.
_database_code_ICSD                39432
_audit_creation_date               1992/01/20
_audit_update_record               2011/02/01
_chemical_name_systematic
;
Aluminium Dihydrogentriphosphate(V) - Ii
;
_chemical_formula_structural       'Al (H2 P3 O10)'
_chemical_formula_sum              'H2 Al1 O10 P3'
_publ_section_title
;
Investigation of crystal structure of aluminium dihydridophosphate Al 
H2 P3 O10 - II
;
loop_
_citation_id
_citation_journal_abbrev
_citation_year
_citation_journal_volume
_citation_page_first
_citation_page_last
_citation_journal_id_ASTM
primary 'Zhurnal Neorganicheskoi Khimii' 1991 36 1165 1169 ZNOKAQ
2 'Russian Journal of Inorganic Chemistry' 1991 36 662 664 RJICAQ
_publ_author_name
;
Lyutsko, V.A.;Lyakhov, A.S.;Tuchkovskii, G.K.;Palkina, K.K.
;
_cell_length_a                     7.248(4)
_cell_length_b                     8.530(4)
_cell_length_c                     11.654(8)
_cell_angle_alpha                  90.
_cell_angle_beta                   101.97(5)
_cell_angle_gamma                  90.
_cell_volume                       704.85
_cell_formula_units_Z              4
_symmetry_space_group_name_H-M     'P 1 21/n 1'
_symmetry_Int_Tables_number        14
_refine_ls_R_factor_all            .052
loop_
_symmetry_equiv_pos_site_id
_symmetry_equiv_pos_as_xyz
  1	'-x+.5, y+.5, -z+.5'
  2	'-x, -y, -z'
  3	'x+.5, -y+.5, z+.5'
  4	'x, y, z'
loop_
_atom_type_symbol
_atom_type_oxidation_number
Al3+	3
H1+	1
O2-	-2
P5+	5
loop_
_atom_site_label
_atom_site_type_symbol
_atom_site_symmetry_multiplicity
_atom_site_Wyckoff_symbol
_atom_site_fract_x
_atom_site_fract_y
_atom_site_fract_z
_atom_site_occupancy
_atom_site_attached_hydrogens
_atom_site_B_iso_or_equiv
Al1 Al3+ 4 e 0.4628(2) 0.0705(2) 0.2047(1) 1. 0 1.01 
P1 P5+ 4 e 0.2202(2) 0.8948(2) 0.3617(1) 1. 0 0.99 
P2 P5+ 4 e 0.8505(2) 0.8917(1) 0.2068(1) 1. 0 0.97 
P3 P5+ 4 e 0.7309(2) 0.1185(1) 0.0202(1) 1. 0 1. 
O1 O2- 4 e 0.0217(5) 0.9680(4) 0.2947(3) 1. 0 1.3 
O2 O2- 4 e 0.2090(6) 0.9261(5) 0.4915(3) 1. 0 1.8 
O3 O2- 4 e 0.8524(5) 0.9743(4) 0.0858(3) 1. 0 1.4 
O4 O2- 4 e 0.3736(5) 0.9925(4) 0.3309(3) 1. 0 1.4 
O5 O2- 4 e 0.2242(5) 0.7241(4) 0.3320(3) 1. 0 1.2 
O6 O2- 4 e 0.5700(5) 0.1485(4) 0.0810(3) 1. 0 1.3 
O7 O2- 4 e 0.8883(5) 0.7211(4) 0.1901(3) 1. 0 1.2 
O8 O2- 4 e 0.6726(5) 0.9297(4) 0.2466(3) 1. 0 1.3 
O9 O2- 4 e 0.6797(5) 0.0758(4) -.1066(3) 1. 0 1.3 
O10 O2- 4 e 0.8717(6) 0.2560(5) 0.0346(4) 1. 0 1.7 
H1 H1+ 4 e 0.30(1) 0.88(1) 0.550(9) 1. 0 6.(2) 
H2 H1+ 4 e 0.88(1) 0.33(1) 0.082(8) 1. 0 5.(2) 

#End of data_39432-ICSD


