data_67916-ICSD
#?2014 by Fachinformationszentrum Karlsruhe, and the U.S. Secretary of 
#Commerce on behalf of the United States.  All rights reserved.
_database_code_ICSD                67916
_audit_creation_date               1995/01/10
_audit_update_record               2010/02/01
_chemical_name_systematic
;
Potassium Iron(III) Bis(selenate(IV))
;
_chemical_formula_structural       'K Fe (Se O3)2'
_chemical_formula_sum              'Fe1 K1 O6 Se2'
_publ_section_title                'Crystal structure of K Fe (Se O3)2'
loop_
_citation_id
_citation_journal_abbrev
_citation_year
_citation_journal_volume
_citation_page_first
_citation_page_last
_citation_journal_id_ASTM
primary 'Zeitschrift fuer Kristallographie (1979-2010)' 1993 207 1 7 ZEKRDZ
_publ_author_name                  'Giester, G.'
_cell_length_a                     12.948(2)
_cell_length_b                     5.430(1)
_cell_length_c                     8.069(1)
_cell_angle_alpha                  90.
_cell_angle_beta                   90.
_cell_angle_gamma                  90.
_cell_volume                       567.31
_cell_formula_units_Z              4
_symmetry_space_group_name_H-M     'P n m a'
_symmetry_Int_Tables_number        62
_refine_ls_R_factor_all            .031
loop_
_symmetry_equiv_pos_site_id
_symmetry_equiv_pos_as_xyz
  1	'x+.5, y, -z+.5'
  2	'x, -y+.5, z'
  3	'-x+.5, y+.5, z+.5'
  4	'-x, -y, -z'
  5	'-x+.5, -y, z+.5'
  6	'-x, y+.5, -z'
  7	'x+.5, -y+.5, -z+.5'
  8	'x, y, z'
loop_
_atom_type_symbol
_atom_type_oxidation_number
Fe3+	3
K1+	1
O2-	-2
Se4+	4
loop_
_atom_site_label
_atom_site_type_symbol
_atom_site_symmetry_multiplicity
_atom_site_Wyckoff_symbol
_atom_site_fract_x
_atom_site_fract_y
_atom_site_fract_z
_atom_site_occupancy
_atom_site_attached_hydrogens
K1 K1+ 4 c 0.87307(8) 0.25 0.50679(13) 1. 0 
Fe1 Fe3+ 4 c 0.60211(5) 0.25 0.69777(8) 1. 0 
Se1 Se4+ 4 c 0.56178(3) 0.25 0.29217(5) 1. 0 
Se2 Se4+ 4 c 0.29677(4) 0.25 0.51201(6) 1. 0 
O1 O2- 8 d 0.4956(2) 0.0079(5) 0.2117(3) 1. 0 
O2 O2- 4 c 0.5225(3) 0.25 0.4911(4) 1. 0 
O3 O2- 8 d 0.2949(2) 0.0070(5) 0.3788(5) 1. 0 
O4 O2- 4 c 0.1702(3) 0.25 0.5735(4) 1. 0 

loop_
_atom_site_aniso_label
_atom_site_aniso_type_symbol
_atom_site_aniso_U_11
_atom_site_aniso_U_22
_atom_site_aniso_U_33
_atom_site_aniso_U_12
_atom_site_aniso_U_13
_atom_site_aniso_U_23
K1 K1+ 0.0198(5) 0.0149(4) 0.0240(5) 0 0.0028(4) 0
Fe1 Fe3+ 0.0156(3) 0.0101(3) 0.0146(3) 0 -.0003(2) 0
Se1 Se4+ 0.0140(2) 0.0106(2) 0.0167(2) 0 -.0006(2) 0
Se2 Se4+ 0.0141(2) 0.0124(2) 0.0179(2) 0 0.0004(2) 0
O1 O2- 0.0213(10) 0.0107(9) 0.0173(9) -.0029(9) -.0002(8) -.0012(9)
O2 O2- 0.0247(18) 0.0170(16) 0.0121(13) 0 -.0036(13) 0
O3 O2- 0.0189(10) 0.0137(11) 0.0309(12) 0.0009(9) 0.0031(10) -.0054(9)
O4 O2- 0.0165(14) 0.0189(16) 0.0177(14) 0 0.0005(12) 0
#End of data_67916-ICSD


