data_8001-ICSD
#?2014 by Fachinformationszentrum Karlsruhe, and the U.S. Secretary of 
#Commerce on behalf of the United States.  All rights reserved.
_database_code_ICSD                8001
_audit_creation_date               1980/01/01
_chemical_name_systematic
;
Tripotassium Imidobis(sulfonate) Hydrate
;
_chemical_formula_structural       'K3 N (S O3)2 H2 O'
_chemical_formula_sum              'H2 K3 N1 O7 S2'
_publ_section_title
;
Crystal structure of K3 N (S O3)2 H2 O (I) and refinement of the 
crystal structure of K2 N H (S O3)2 (II)
;
loop_
_citation_id
_citation_journal_abbrev
_citation_year
_citation_journal_volume
_citation_page_first
_citation_page_last
_citation_journal_id_ASTM
primary 'Acta Crystallographica B (24,1968-38,1982)' 1979 35 1308 1312 ACBCAR
_publ_author_name
;
Barbier, P.;Parent, Y.;Mairesse, G.
;
_cell_length_a                     8.126(4)
_cell_length_b                     7.978(3)
_cell_length_c                     6.762(4)
_cell_angle_alpha                  103.36(3)
_cell_angle_beta                   90.98(3)
_cell_angle_gamma                  97.86(3)
_cell_volume                       421.96
_cell_formula_units_Z              2
_symmetry_space_group_name_H-M     'P -1'
_symmetry_Int_Tables_number        2
_refine_ls_R_factor_all            .029
loop_
_symmetry_equiv_pos_site_id
_symmetry_equiv_pos_as_xyz
  1	'-x, -y, -z'
  2	'x, y, z'
loop_
_atom_type_symbol
_atom_type_oxidation_number
H1+	1
K1+	1
N3-	-3
O2-	-2
S6+	6
loop_
_atom_site_label
_atom_site_type_symbol
_atom_site_symmetry_multiplicity
_atom_site_Wyckoff_symbol
_atom_site_fract_x
_atom_site_fract_y
_atom_site_fract_z
_atom_site_occupancy
_atom_site_attached_hydrogens
K1 K1+ 2 i 0.24092(6) -.05563(6) 0.3129 1. 0 
K2 K1+ 2 i 0.93601(6) 0.65553(6) 0.80156 1. 0 
K3 K1+ 2 i 0.57643(6) 0.32638(6) 0.33233(8) 1. 0 
N1 N3- 2 i 0.8774(2) 0.8734(2) 0.2492(3) 1. 0 
S1 S6+ 2 i 0.72283(6) 0.93780(6) 0.15114(7) 1. 0 
S2 S6+ 2 i 0.85435(6) 0.69344(6) 0.31988(7) 1. 0 
O1 O2- 2 i 0.6625(2) 0.8143(2) -.0404(3) 1. 0 
O2 O2- 2 i 0.7903(2) 1.1064(2) 0.1139(3) 1. 0 
O3 O2- 2 i 0.5896(2) 0.9582(2) 0.2952(3) 1. 0 
O4 O2- 2 i 0.8024(2) 0.5430(2) 0.1462(2) 1. 0 
O5 O2- 2 i 0.7322(2) 0.6938(2) 0.4784(2) 1. 0 
O6 O2- 2 i 1.0198(2) 0.6825(2) 0.4007(2) 1. 0 
O7 O2- 2 i 0.3906(2) 0.5995(3) 0.2284(3) 1. 0 
H1 H1+ 2 i 0.356(4) 0.562(4) 0.120(5) 1. 0 
H2 H1+ 2 i 0.462(4) 0.665(4) 0.209(5) 1. 0 

#End of data_8001-ICSD


