data_420871-ICSD
#?2014 by Fachinformationszentrum Karlsruhe, and the U.S. Secretary of 
#Commerce on behalf of the United States.  All rights reserved.
_database_code_ICSD                420871
_audit_creation_date               2011/02/01
_chemical_name_systematic
;
Potassium Hexachloroniobate Pentachloroniobate
;
_chemical_formula_structural       'K (Nb Cl6) (Nb Cl5)'
_chemical_formula_sum              'Cl11 K1 Nb2'
_publ_section_title
;
The crystal structures of K [Nb Cl6] * Nb Cl5 and N O [Nb Cl6] * Nb 
Cl5
;
loop_
_citation_id
_citation_journal_abbrev
_citation_year
_citation_journal_volume
_citation_journal_issue
_citation_page_first
_citation_page_last
_citation_journal_id_ASTM
primary 'Zeitschrift fuer Kristallographie - Crystalline Materials'
 2010 225 6 217 224 ZKCMAJ
_publ_author_name                  'Henke, H.;Mayer, P.'
_cell_length_a                     9.8980(10)
_cell_length_b                     9.4430(10)
_cell_length_c                     17.3700(10)
_cell_angle_alpha                  89.570(10)
_cell_angle_beta                   108.490(10)
_cell_angle_gamma                  90.540(10)
_cell_volume                       1539.63
_cell_formula_units_Z              4
_symmetry_space_group_name_H-M     'C -1'
_symmetry_Int_Tables_number        2
_refine_ls_R_factor_all            .0336
loop_
_symmetry_equiv_pos_site_id
_symmetry_equiv_pos_as_xyz
  1	'-x, -y, -z'
  2	'x, y, z'
  3	'-x+.5, -y+.5, -z'
  4	'x+.5, y+.5, z'
loop_
_atom_type_symbol
_atom_type_oxidation_number
Cl1-	-1
K1+	1
Nb5+	5
loop_
_atom_site_label
_atom_site_type_symbol
_atom_site_symmetry_multiplicity
_atom_site_Wyckoff_symbol
_atom_site_fract_x
_atom_site_fract_y
_atom_site_fract_z
_atom_site_occupancy
_atom_site_attached_hydrogens
_atom_site_U_iso_or_equiv
Nb1 Nb5+ 4 i 0.41103(6) 0.25122(7) 0.33683(4) 1 0 0.03049(16) 
Nb2 Nb5+ 4 i 0.66453(6) 0.25092(6) 0.08970(4) 1 0 0.03145(16) 
K1 K1+ 4 i 0.7505(2) 0.49983(19) 0.50333(12) 1 0 0.0534(4) 
Cl1 Cl1- 4 i 0.5004(2) 0.2407(2) 0.48818(10) 1 0 0.0501(5) 
Cl2 Cl1- 4 i 0.65095(18) 0.2741(2) 0.34595(12) 1 0 0.0489(5) 
Cl3 Cl1- 4 i 0.4013(2) 0.4972(2) 0.35210(14) 1 0 0.0554(5) 
Cl4 Cl1- 4 i 0.3244(2) 0.2629(2) 0.20056(11) 1 0 0.0516(5) 
Cl5 Cl1- 4 i 0.18542(19) 0.2294(2) 0.35311(13) 1 0 0.0535(5) 
Cl6 Cl1- 4 i 0.4336(2) 0.0065(2) 0.33968(14) 1 0 0.0566(5) 
Cl7 Cl1- 4 i 0.6097(2) 0.44017(19) 0.15148(12) 1 0 0.0496(5) 
Cl8 Cl1- 4 i 0.5993(2) 0.06836(19) 0.15424(12) 1 0 0.0494(5) 
Cl9 Cl1- 4 i 0.45135(19) 0.2520(2) -0.01336(11) 1 0 0.0476(4) 
Cl10 Cl1- 4 i 0.8975(2) 0.2466(2) 0.17177(11) 1 0 0.0507(5) 
Cl11 Cl1- 4 i 0.75334(18) 0.42081(16) -0.00066(10) 1 0 0.0356(4) 

loop_
_atom_site_aniso_label
_atom_site_aniso_type_symbol
_atom_site_aniso_U_11
_atom_site_aniso_U_22
_atom_site_aniso_U_33
_atom_site_aniso_U_12
_atom_site_aniso_U_13
_atom_site_aniso_U_23
Nb1 Nb5+ 0.0268(3) 0.0348(3) 0.0288(3) 0.0005(2) 0.0071(2) -0.0006(3)
Nb2 Nb5+ 0.0335(3) 0.0336(3) 0.0262(3) 0.0007(2) 0.0079(2) -0.0001(2)
K1 K1+ 0.0516(10) 0.0498(10) 0.0591(11) -0.0005(8) 0.0179(9) -0.0004(9)
Cl1 Cl1- 0.0507(11) 0.0716(13) 0.0251(9) -0.0008(9) 0.0078(8) 0.0004(9)
Cl2 Cl1- 0.0268(8) 0.0737(13) 0.0470(11) 0.0002(8) 0.0129(8) -0.0007(9)
Cl3 Cl1- 0.0655(13) 0.0322(9) 0.0705(14) 0.0021(9) 0.0245(11) -0.0013(9)
Cl4 Cl1- 0.0474(10) 0.0724(13) 0.0292(9) 0.0043(9) 0.0037(8) 0.0019(9)
Cl5 Cl1- 0.0292(9) 0.0750(14) 0.0584(12) -0.0003(9) 0.0168(8) 0.0042(10)
Cl6 Cl1- 0.0622(12) 0.0315(9) 0.0678(14) 0.0041(8) 0.0089(10) -0.0006(9)
Cl7 Cl1- 0.0679(13) 0.0364(10) 0.0500(11) 0.0039(9) 0.0261(10) -0.0050(8)
Cl8 Cl1- 0.0634(12) 0.0376(10) 0.0518(11) 0.0003(8) 0.0251(9) 0.0092(8)
Cl9 Cl1- 0.0362(9) 0.0580(11) 0.0417(10) -0.0002(8) 0.0025(8) 0.0010(9)
Cl10 Cl1- 0.0425(10) 0.0651(12) 0.0348(10) 0.0028(9) -0.0016(8) -0.0018(9)
Cl11 Cl1- 0.0453(9) 0.0262(8) 0.0373(9) -0.0001(7) 0.0161(7) -0.0003(7)
#End of data_420871-ICSD


