data_91475-ICSD
#?2014 by Fachinformationszentrum Karlsruhe, and the U.S. Secretary of 
#Commerce on behalf of the United States.  All rights reserved.
_database_code_ICSD                91475
_audit_creation_date               2002/10/01
_chemical_name_systematic
;
Bismuth Dicalcium Arsenate(V) Dioxide
;
_chemical_formula_structural       'Bi Ca2 (As O4) O2'
_chemical_formula_sum              'As1 Bi1 Ca2 O6'
_publ_section_title
;
Synthesis and structure of two new bismuth cadmium vanadates, Bi CdV 
O5 and Bi Cd2 V O6, and structures of Bi Ca2 As O6 and Bi Mg2 PO6
;
loop_
_citation_id
_citation_journal_abbrev
_citation_year
_citation_journal_volume
_citation_page_first
_citation_page_last
_citation_journal_id_ASTM
primary 'International Journal of Inorganic Materials' 2000 2 543 550 IJIMCR
_publ_author_name
;
Radosavljevic, I.;Howard, J.A.K.;Sleight, A.W.
;
_cell_length_a                     8.88479(8)
_cell_length_b                     11.97231(11)
_cell_length_c                     5.54532(5)
_cell_angle_alpha                  90.
_cell_angle_beta                   90.
_cell_angle_gamma                  90.
_cell_volume                       589.86
_cell_formula_units_Z              4
_symmetry_space_group_name_H-M     'C m c 21'
_symmetry_Int_Tables_number        36
_refine_ls_R_factor_all            .046
loop_
_symmetry_equiv_pos_site_id
_symmetry_equiv_pos_as_xyz
  1	'x, -y, z+.5'
  2	'-x, -y, z+.5'
  3	'-x, y, z'
  4	'x, y, z'
  5	'x+.5, -y+.5, z+.5'
  6	'-x+.5, -y+.5, z+.5'
  7	'-x+.5, y+.5, z'
  8	'x+.5, y+.5, z'
loop_
_atom_type_symbol
_atom_type_oxidation_number
As5+	5
Bi3+	3
Ca2+	2
O2-	-2
loop_
_atom_site_label
_atom_site_type_symbol
_atom_site_symmetry_multiplicity
_atom_site_Wyckoff_symbol
_atom_site_fract_x
_atom_site_fract_y
_atom_site_fract_z
_atom_site_occupancy
_atom_site_attached_hydrogens
_atom_site_U_iso_or_equiv
Bi1 Bi3+ 4 a 0.5 0.0884(3) 0.25 1. 0 0.0082(8) 
As1 As5+ 4 a 0 -.1822(4) 0.695(1) 1. 0 0.0122(10) 
Ca1 Ca2+ 8 b 0.3022(4) 0.3932(4) 0.237(1) 1. 0 0.0132(9) 
O1 O2- 8 b 0.3491(4) 0.9981(4) 0.485(1) 1. 0 0.0099(7) 
O2 O2- 4 a 0 0.8198(4) 0.002(1) 1. 0 0.0098(11) 
O3 O2- 4 a 0 0.9469(4) 0.567(1) 1. 0 0.0117(14) 
O4 O2- 8 b 0.1547(4) 0.2432(3) 0.084(1) 1. 0 0.0160(8) 

#End of data_91475-ICSD


