data_100827-ICSD
#?2014 by Fachinformationszentrum Karlsruhe, and the U.S. Secretary of 
#Commerce on behalf of the United States.  All rights reserved.
_database_code_ICSD                100827
_audit_creation_date               1981/12/31
_audit_update_record               2008/02/01
_chemical_name_systematic
;
Dicalcium Triiron Tetrairon(III) Oxide
;
_chemical_formula_structural       'Ca2 Fe7 O11'
_chemical_formula_sum              'Ca2 Fe7 O11'
_publ_section_title
;
Preparation et caracterisation des ferrites de calcium Ca Fe2+n O4+n 
a valeurs fractionnaires de n (3/2, 5/2) et leur incidence sur le 
diagramme Fe-Ca-O a 1120 C
;
loop_
_citation_id
_citation_journal_abbrev
_citation_year
_citation_journal_volume
_citation_page_first
_citation_page_last
_citation_journal_id_ASTM
primary 'Materials Research Bulletin' 1981 16 1139 1148 MRBUAC
_publ_author_name
;
Malaman, B.;Alebouyeh, H.;Jeannot, F.;Courtois, A.;Gerardin, 
R.;Evrard, O.
;
_cell_length_a                     9.96
_cell_length_b                     3.03
_cell_length_c                     15.77
_cell_angle_alpha                  90.
_cell_angle_beta                   118.
_cell_angle_gamma                  90.
_cell_volume                       420.21
_cell_formula_units_Z              2
_symmetry_space_group_name_H-M     'C 1 2/m 1'
_symmetry_Int_Tables_number        12
loop_
_symmetry_equiv_pos_site_id
_symmetry_equiv_pos_as_xyz
  1	'-x, y, -z'
  2	'-x, -y, -z'
  3	'x, -y, z'
  4	'x, y, z'
  5	'-x+.5, y+.5, -z'
  6	'-x+.5, -y+.5, -z'
  7	'x+.5, -y+.5, z'
  8	'x+.5, y+.5, z'
loop_
_atom_type_symbol
_atom_type_oxidation_number
Ca2+	2
Fe2+	2
Fe3+	3
O2-	-2
loop_
_atom_site_label
_atom_site_type_symbol
_atom_site_symmetry_multiplicity
_atom_site_Wyckoff_symbol
_atom_site_fract_x
_atom_site_fract_y
_atom_site_fract_z
_atom_site_occupancy
_atom_site_attached_hydrogens
Ca1 Ca2+ 4 i 0.858(1) 0 0.2740(1) 1. 0 
Fe1 Fe2+ 2 d 0 0.5 0.5 1. 0 
Fe2 Fe2+ 4 i 0.171(1) 0 0.0481(6) 1. 0 
Fe3 Fe3+ 4 i 0.5170(3) 0 0.1480(2) 1. 0 
Fe4 Fe3+ 4 i 0.692(2) 0 0.4000(2) 1. 0 
O1 O2- 2 b 0 0.5 0 1. 0 
O2 O2- 4 i 0.845(1) 0 0.088(1) 1. 0 
O3 O2- 4 i 0.167(3) 0 0.170(1) 1. 0 
O4 O2- 4 i 0.530(1) 0 0.274(2) 1. 0 
O5 O2- 4 i 0.313(4) 0 0.378(1) 1. 0 
O6 O2- 4 i 0.105(4) 0 0.451(2) 1. 0 

#End of data_100827-ICSD


