data_52358-ICSD
#?2014 by Fachinformationszentrum Karlsruhe, and the U.S. Secretary of 
#Commerce on behalf of the United States.  All rights reserved.
_database_code_ICSD                52358
_audit_creation_date               2003/04/01
_audit_update_record               2010/02/01
_chemical_name_systematic          'Dialuminium Silicate Difluoride'
_chemical_formula_structural       'Al2 (Si O4) F2'
_chemical_formula_sum              'Al2 F2 O4 Si1'
_chemical_name_mineral             Topaz
_publ_section_title
;
The structure of topaz, (Al (F, O H))2 Si O4
;
loop_
_citation_id
_citation_journal_abbrev
_citation_year
_citation_journal_volume
_citation_page_first
_citation_page_last
_citation_journal_id_ASTM
primary
;
Zeitschrift fuer Kristallographie, Kristallgeometrie, Kristallphysik, 
Kristallchemie (-144,1977)
;
 1928 69 149 167 ZEKGAX
2 'Proceedings of the National Academy of Sciences, U.S.A.'
 1928 14 603 606 PNASA6
_publ_author_name                  'Alston, N.A.;West, J.'
_cell_length_a                     4.650
_cell_length_b                     8.801
_cell_length_c                     8.395
_cell_angle_alpha                  90.
_cell_angle_beta                   90.
_cell_angle_gamma                  90.
_cell_volume                       343.56
_cell_formula_units_Z              4
_symmetry_space_group_name_H-M     'P b n m'
_symmetry_Int_Tables_number        62
loop_
_symmetry_equiv_pos_site_id
_symmetry_equiv_pos_as_xyz
  1	'-x+.5, y+.5, z'
  2	'x, y, -z+.5'
  3	'x+.5, -y+.5, z+.5'
  4	'-x, -y, -z'
  5	'x+.5, -y+.5, -z'
  6	'-x, -y, z+.5'
  7	'-x+.5, y+.5, -z+.5'
  8	'x, y, z'
loop_
_atom_type_symbol
_atom_type_oxidation_number
Al3+	3
F1-	-1
O2-	-2
Si4+	4
loop_
_atom_site_label
_atom_site_type_symbol
_atom_site_symmetry_multiplicity
_atom_site_Wyckoff_symbol
_atom_site_fract_x
_atom_site_fract_y
_atom_site_fract_z
_atom_site_occupancy
_atom_site_attached_hydrogens
Al1 Al3+ 8 d 0.895 0.131 0.080 1. 0 
Si1 Si4+ 4 c 0.416 0.944 0.25 1. 0 
O1 O2- 4 c 0.722 0.009 0.25 1. 0 
O2 O2- 4 c 0.084 0.250 0.25 1. 0 
O3 O2- 8 d 0.222 0.991 0.083 1. 0 
F1 F1- 8 d 0.584 0.250 0.061 1. 0 

#End of data_52358-ICSD


