data_423222-ICSD
#?2014 by Fachinformationszentrum Karlsruhe, and the U.S. Secretary of 
#Commerce on behalf of the United States.  All rights reserved.
_database_code_ICSD                423222
_audit_creation_date               2012/02/01
_chemical_name_systematic          'Potassium Technetate(VII)'
_chemical_formula_structural       'K (Tc O4)'
_chemical_formula_sum              'K1 O4 Tc1'
_publ_section_title
;
Nuclear quadrupole moment of the (99)Tc ground state
;
loop_
_citation_id
_citation_journal_abbrev
_citation_year
_citation_journal_volume
_citation_journal_issue
_citation_page_first
_citation_page_last
_citation_journal_id_ASTM
primary 'Physical Review, Serie 3. B - Condensed Matter (18,1978-)'
 2008 77 19 195118-1 195118-5 PRBMDO
2 'Acta Crystallographica B (24,1968-38,1982)' 1976 32- 1334 1337 ACBCAR
_publ_author_name
;
Errico, L.;Darriba, G.;Renteria, M.;Tang Zheng Ning;Emmerich, 
H.;Cottenier, S.
;
_cell_length_a                     5.630
_cell_length_b                     5.630
_cell_length_c                     12.867
_cell_angle_alpha                  90.
_cell_angle_beta                   90.
_cell_angle_gamma                  90.
_cell_volume                       407.84
_cell_formula_units_Z              4
_symmetry_space_group_name_H-M     'I 41/a Z'
_symmetry_Int_Tables_number        88
loop_
_symmetry_equiv_pos_site_id
_symmetry_equiv_pos_as_xyz
  1	'-y+.75, x+.75, -z+.75'
  2	'y+.25, -x+.75, -z+.75'
  3	'x, y+.5, -z'
  4	'-x, -y, -z'
  5	'y+.25, -x+.25, z+.25'
  6	'-y+.75, x+.25, z+.25'
  7	'-x, -y+.5, z'
  8	'x, y, z'
  9	'-y+.25, x+.25, -z+.25'
 10	'y+.75, -x+.25, -z+.25'
 11	'x+.5, y, -z+.5'
 12	'-x+.5, -y+.5, -z+.5'
 13	'y+.75, -x+.75, z+.75'
 14	'-y+.25, x+.75, z+.75'
 15	'-x+.5, -y, z+.5'
 16	'x+.5, y+.5, z+.5'
loop_
_atom_type_symbol
_atom_type_oxidation_number
K1+	1
O2-	-2
Tc7+	7
loop_
_atom_site_label
_atom_site_type_symbol
_atom_site_symmetry_multiplicity
_atom_site_Wyckoff_symbol
_atom_site_fract_x
_atom_site_fract_y
_atom_site_fract_z
_atom_site_occupancy
_atom_site_attached_hydrogens
Tc1 Tc7+ 4 a 0 0.25 0.125 1 0 
K1 K1+ 4 b 0 0.25 0.625 1 0 
O1 O2- 16 f 0.1170 0.0273 0.2015 1 0 

#End of data_423222-ICSD


