data_62301-ICSD
#?2014 by Fachinformationszentrum Karlsruhe, and the U.S. Secretary of 
#Commerce on behalf of the United States.  All rights reserved.
_database_code_ICSD                62301
_audit_creation_date               1988/07/15
_audit_update_record               2006/04/01
_chemical_name_systematic
;
Trilithium Discandium Tris(phosphate(V))
;
_chemical_formula_structural       'Li3 Sc2 (P O4)3'
_chemical_formula_sum              'Li3 O12 P3 Sc2'
_publ_section_title
;
Crystal structure of the monoclinic modification of Li3 Sc2 (P O4)3 
at 293 K
;
loop_
_citation_id
_citation_journal_abbrev
_citation_year
_citation_journal_volume
_citation_page_first
_citation_page_last
_citation_journal_id_ASTM
primary Kristallografiya 1986 31 595 596 KRISAJ
2 'Soviet Physics, Crystallography (= Kristallografiya)'
 1986 31 350 351 SPHCA6
3 'Golden Book of Phase Transitions, Wroclaw' 2002 1 1 123 GBOPT5
_publ_author_name
;
Maksimov, B.A.;Muradyan, L.A.;Genkina, E.A.;Verin, I.A.
;
_cell_length_a                     8.853(2)
_cell_length_b                     12.273(2)
_cell_length_c                     8.802(1)
_cell_angle_alpha                  90.
_cell_angle_beta                   90.
_cell_angle_gamma                  90.01(2)
_cell_volume                       956.36
_cell_formula_units_Z              4
_symmetry_space_group_name_H-M     'P 1 1 21/n'
_symmetry_Int_Tables_number        14
_refine_ls_R_factor_all            .09
loop_
_symmetry_equiv_pos_site_id
_symmetry_equiv_pos_as_xyz
  1	'x+.5, y+.5, -z+.5'
  2	'-x, -y, -z'
  3	'-x+.5, -y+.5, z+.5'
  4	'x, y, z'
loop_
_atom_type_symbol
_atom_type_oxidation_number
Li1+	1
O2-	-2
P5+	5
Sc3+	3
loop_
_atom_site_label
_atom_site_type_symbol
_atom_site_symmetry_multiplicity
_atom_site_Wyckoff_symbol
_atom_site_fract_x
_atom_site_fract_y
_atom_site_fract_z
_atom_site_occupancy
_atom_site_attached_hydrogens
_atom_site_B_iso_or_equiv
Sc1 Sc3+ 4 e 0.2473(2) 0.1075(2) 0.4552(2) 1. 0 0.64(2) 
Sc2 Sc3+ 4 e 0.7500(2) 0.3932(2) 0.4636(2) 1. 0 0.55(2) 
P1 P5+ 4 e 0.1027(3) 0.1523(2) 0.1000(3) 1. 0 0.60(2) 
P2 P5+ 4 e 0.6020(3) 0.3476(2) 0.1098(3) 1. 0 0.50(2) 
P3 P5+ 4 e 0.0379(3) 0.4956(3) 0.2526(3) 1. 0 0.83(2) 
O1 O2- 4 e 0.4294(4) 0.3361(4) 0.0991(4) 1. 0 0.84(2) 
O2 O2- 4 e 0.9302(4) 0.1638(4) 0.0964(4) 1. 0 0.78(2) 
O3 O2- 4 e 0.3350(4) 0.2704(5) 0.4792(4) 1. 0 1.13(2) 
O4 O2- 4 e 0.8239(4) 0.2254(4) 0.4879(4) 1. 0 1.07(2) 
O5 O2- 4 e 0.1518(4) 0.0367(4) 0.0667(4) 1. 0 1.07(2) 
O6 O2- 4 e 0.6512(5) 0.4646(5) 0.0822(5) 1. 0 1.30(2) 
O7 O2- 4 e 0.4516(5) 0.0727(5) 0.3575(5) 1. 0 2.61(2) 
O8 O2- 4 e 0.9367(5) 0.4109(5) 0.3191(5) 1. 0 2.70(2) 
O9 O2- 4 e 0.1509(5) 0.4284(5) 0.1607(5) 1. 0 2.42(2) 
O10 O2- 4 e 0.6211(5) 0.0635(5) 0.1366(5) 1. 0 2.80(2) 
O11 O2- 4 e 0.1555(4) 0.1893(4) 0.2587(4) 1. 0 1.31(2) 
O12 O2- 4 e 0.6486(4) 0.3102(4) 0.2697(4) 1. 0 0.89(2) 
Li1 Li1+ 4 e 0.296(1) 0.325(1) 0.270(1) 1. 0 3.5(2) 
Li2 Li1+ 4 e 0.582(2) 0.191(2) 0.401(2) 1. 0 5.5(2) 
Li3 Li1+ 4 e 0.916(2) 0.249(2) 0.291(2) 1. 0 4.7(2) 

#End of data_62301-ICSD


