data_245840-ICSD
#?2014 by Fachinformationszentrum Karlsruhe, and the U.S. Secretary of 
#Commerce on behalf of the United States.  All rights reserved.
_database_code_ICSD                245840
_audit_creation_date               2008/08/01
_audit_update_record               2013/02/01
_chemical_name_systematic          'Calcium Chromate(IV) (1/1)'
_chemical_formula_structural       'Ca (Cr O3)'
_chemical_formula_sum              'Ca1 Cr1 O3'
_publ_section_title
;
Structure, microstructure and magnetic properties of Sr(1-x) Ca(x) O3 
(0 <= x <= 1)
;
loop_
_citation_id
_citation_journal_abbrev
_citation_year
_citation_journal_volume
_citation_journal_issue
_citation_page_first
_citation_page_last
_citation_journal_id_ASTM
primary 'Journal of Solid State Chemistry' 2008 181 4 895 904 JSSCBI
_publ_author_name
;
Castillo Martinez, E.;Duran, A.;Alario-Franco, M.A.
;
_cell_length_a                     5.2911(1)
_cell_length_b                     5.3192(1)
_cell_length_c                     7.4893(1)
_cell_angle_alpha                  90.
_cell_angle_beta                   90.
_cell_angle_gamma                  90.
_cell_volume                       210.78
_cell_formula_units_Z              4
_symmetry_space_group_name_H-M     'P b n m'
_symmetry_Int_Tables_number        62
_refine_ls_R_factor_all            .0543
loop_
_symmetry_equiv_pos_site_id
_symmetry_equiv_pos_as_xyz
  1	'-x+.5, y+.5, z'
  2	'x, y, -z+.5'
  3	'x+.5, -y+.5, z+.5'
  4	'-x, -y, -z'
  5	'x+.5, -y+.5, -z'
  6	'-x, -y, z+.5'
  7	'-x+.5, y+.5, -z+.5'
  8	'x, y, z'
loop_
_atom_type_symbol
_atom_type_oxidation_number
Ca2+	2
Cr4+	4
O2-	-2
loop_
_atom_site_label
_atom_site_type_symbol
_atom_site_symmetry_multiplicity
_atom_site_Wyckoff_symbol
_atom_site_fract_x
_atom_site_fract_y
_atom_site_fract_z
_atom_site_occupancy
_atom_site_attached_hydrogens
_atom_site_B_iso_or_equiv
Ca1 Ca2+ 4 c 0.0118(7) 0.0324(4) 0.25 1. 0 0.22(22) 
Cr1 Cr4+ 4 b 0.5 0 0 1. 0 0.22(22) 
O1 O2- 8 d 0.720(1) 0.287(1) 0.0319(7) 1. 0 0.22(22) 
O2 O2- 4 c 0.068(2) 0.485(2) 0.25 1. 0 0.22(22) 

#End of data_245840-ICSD


