data_95774-ICSD
#?2014 by Fachinformationszentrum Karlsruhe, and the U.S. Secretary of 
#Commerce on behalf of the United States.  All rights reserved.
_database_code_ICSD                95774
_audit_creation_date               2004/04/01
_chemical_name_systematic          'Potassium Cerium Tetrathiosilicate'
_chemical_formula_structural       'K Ce (Si S4)'
_chemical_formula_sum              'Ce1 K1 S4 Si1'
_publ_section_title
;
Thiosilicate der Selten-Erd-Elemente: I. Die isotypen Verbindungen K 
Ce (Si S4) und Eu2 (Si S4)
;
loop_
_citation_id
_citation_journal_abbrev
_citation_year
_citation_journal_volume
_citation_page_first
_citation_page_last
_citation_journal_id_ASTM
primary 'Zeitschrift fuer Anorganische und Allgemeine Chemie (1950) (DE)'
 2002 628 1327 1331 ZAACAB
_publ_author_name                  'Hartenbach, I.;Schleid, T.'
_cell_length_a                     6.4915(6)
_cell_length_b                     6.5618(6)
_cell_length_c                     8.6396(8)
_cell_angle_alpha                  90
_cell_angle_beta                   107.531(9)
_cell_angle_gamma                  90
_cell_volume                       350.92
_cell_formula_units_Z              2
_symmetry_space_group_name_H-M     'P 1 21/m 1'
_symmetry_Int_Tables_number        11
_refine_ls_R_factor_all            .043
loop_
_symmetry_equiv_pos_site_id
_symmetry_equiv_pos_as_xyz
  1	'x, -y+.5, z'
  2	'-x, -y, -z'
  3	'-x, y+.5, -z'
  4	'x, y, z'
loop_
_atom_type_symbol
_atom_type_oxidation_number
Ce3+	3
K1+	1
S2-	-2
Si4+	4
loop_
_atom_site_label
_atom_site_type_symbol
_atom_site_symmetry_multiplicity
_atom_site_Wyckoff_symbol
_atom_site_fract_x
_atom_site_fract_y
_atom_site_fract_z
_atom_site_occupancy
_atom_site_attached_hydrogens
K1 K1+ 2 e 0.7217(4) 0.250 0.9329(3) 1. 0 
Ce1 Ce3+ 2 e 0.76945(12) 0.250 0.44972(8) 1. 0 
Si1 Si4+ 2 e 0.2120(5) 0.250 0.3124(4) 1. 0 
S1 S2- 2 e 0.4082(4) 0.250 0.1634(3) 1. 0 
S2 S2- 2 e 0.3908(5) 0.250 0.5621(4) 1. 0 
S3 S2- 4 f 0.0005(3) 0.9982(3) 0.2732(2) 1. 0 

loop_
_atom_site_aniso_label
_atom_site_aniso_type_symbol
_atom_site_aniso_U_11
_atom_site_aniso_U_22
_atom_site_aniso_U_33
_atom_site_aniso_U_12
_atom_site_aniso_U_13
_atom_site_aniso_U_23
K1 K1+ 0.0451(19) 0.0460(14) 0.0304(13) 0. 0.0137(12) 0.
Ce1 Ce3+ 0.0221(4) 0.0403(4) 0.0282(3) 0. 0.0084(2) 0.
Si1 Si4+ 0.0222(18) 0.0283(14) 0.0306(14) 0. 0.0115(12) 0.
S1 S2- 0.0210(14) 0.0382(14) 0.0308(14) 0. 0.0117(11) 0.
S2 S2- 0.0253(16) 0.0697(19) 0.0305(14) 0. 0.0096(12) 0.
S3 S2- 0.0328(11) 0.0283(9) 0.0322(10) -0.0048(7) 0.0120(8) -0.0016(7)
#End of data_95774-ICSD


