data_28528-ICSD
#?2014 by Fachinformationszentrum Karlsruhe, and the U.S. Secretary of 
#Commerce on behalf of the United States.  All rights reserved.
_database_code_ICSD                28528
_audit_creation_date               1980/01/01
_audit_update_record               2012/08/01
_chemical_name_systematic          'Lithium Uranium(V) Oxide'
_chemical_formula_structural       'Li U O3'
_chemical_formula_sum              'Li1 O3 U1'
_publ_section_title                'Zur Kristallstruktur von Li U O3'
loop_
_citation_id
_citation_journal_abbrev
_citation_year
_citation_journal_volume
_citation_page_first
_citation_page_last
_citation_journal_id_ASTM
primary 'Zeitschrift fuer Anorganische und Allgemeine Chemie (1950) (DE)'
 1965 338 9 14 ZAACAB
_publ_author_name                  'Kemmler-Sack, S.'
_cell_length_a                     5.901
_cell_length_b                     5.901
_cell_length_c                     5.901
_cell_angle_alpha                  54.6
_cell_angle_beta                   54.6
_cell_angle_gamma                  54.6
_cell_volume                       127.01
_cell_formula_units_Z              2
_symmetry_space_group_name_H-M     'R 3 c R'
_symmetry_Int_Tables_number        161
_refine_ls_R_factor_all            .09
loop_
_symmetry_equiv_pos_site_id
_symmetry_equiv_pos_as_xyz
  1	'z+.5, y+.5, x+.5'
  2	'z, x, y'
  3	'x+.5, z+.5, y+.5'
  4	'y, z, x'
  5	'y+.5, x+.5, z+.5'
  6	'x, y, z'
loop_
_atom_type_symbol
_atom_type_oxidation_number
Li1+	1
O2-	-2
U5+	5
loop_
_atom_site_label
_atom_site_type_symbol
_atom_site_symmetry_multiplicity
_atom_site_Wyckoff_symbol
_atom_site_fract_x
_atom_site_fract_y
_atom_site_fract_z
_atom_site_occupancy
_atom_site_attached_hydrogens
_atom_site_B_iso_or_equiv
Li1 Li1+ 2 a 0.43 0.43 0.43 1. 0 1. 
U1 U5+ 2 a 0.25 0.25 0.25 1. 0 0.1 
O1 O2- 6 b 0.378 -.378 0 1. 0 1. 

#End of data_28528-ICSD


