data_85728-ICSD
#?2014 by Fachinformationszentrum Karlsruhe, and the U.S. Secretary of 
#Commerce on behalf of the United States.  All rights reserved.
_database_code_ICSD                85728
_audit_creation_date               1999/11/30
_chemical_name_systematic
;
Tripotassium Phyllo-hexaselenooctacuprate
;
_chemical_formula_structural       'K3 (Cu8 Se6)'
_chemical_formula_sum              'Cu8 K3 Se6'
_publ_section_title
;
Synthesis, crystal structure and low-temperature X-ray investigations 
of K3 Cu8 Se6
;
loop_
_citation_id
_citation_journal_abbrev
_citation_year
_citation_journal_volume
_citation_page_first
_citation_page_last
_citation_journal_id_ASTM
primary 'European Journal of Solid State Inorganic Chemistry'
 1998 35 565 577 EJSCE5
_publ_author_name
;
Naether, C.;Roehnert, D.;Bensch, W.
;
_cell_length_a                     17.9820(20)
_cell_length_b                     3.9788(4)
_cell_length_c                     10.064(2)
_cell_angle_alpha                  90.
_cell_angle_beta                   103.43(1)
_cell_angle_gamma                  90.
_cell_volume                       700.36
_cell_formula_units_Z              2
_symmetry_space_group_name_H-M     'C 1 2/m 1'
_symmetry_Int_Tables_number        12
_refine_ls_R_factor_all            .028
loop_
_symmetry_equiv_pos_site_id
_symmetry_equiv_pos_as_xyz
  1	'-x, y, -z'
  2	'-x, -y, -z'
  3	'x, -y, z'
  4	'x, y, z'
  5	'-x+.5, y+.5, -z'
  6	'-x+.5, -y+.5, -z'
  7	'x+.5, -y+.5, z'
  8	'x+.5, y+.5, z'
loop_
_atom_type_symbol
_atom_type_oxidation_number
Cu1.125+	1.125
K1+	1
Se2-	-2
loop_
_atom_site_label
_atom_site_type_symbol
_atom_site_symmetry_multiplicity
_atom_site_Wyckoff_symbol
_atom_site_fract_x
_atom_site_fract_y
_atom_site_fract_z
_atom_site_occupancy
_atom_site_attached_hydrogens
_atom_site_U_iso_or_equiv
Cu1 Cu1.125+ 4 i 0.2968(1) 0 0.0745(1) 1. 0 0 
Cu2 Cu1.125+ 4 i 0.3864(1) 0.5 0.2167(1) 1. 0 0 
Cu3 Cu1.125+ 4 i 0.4773(1) 0 0.3535(1) 1. 0 0 
Cu4 Cu1.125+ 4 i 0.4169(1) 0.5 0.4717(1) 1. 0 0 
Se1 Se2- 4 i 0.3445(1) 0.5 -.0233(1) 1. 0 0.016(1) 
Se2 Se2- 4 i 0.5348(1) 0.5 0.2894(1) 1. 0 0.016(1) 
Se3 Se2- 4 i 0.3403(1) 0 0.3574(1) 1. 0 0.016(1) 
K1 K1+ 2 b 0.5 0 0 1. 0 0.022(1) 
K2 K1+ 4 i 0.1870(1) 0.5 0.3032(2) 1. 0 0.024(1) 

loop_
_atom_site_aniso_label
_atom_site_aniso_type_symbol
_atom_site_aniso_U_11
_atom_site_aniso_U_22
_atom_site_aniso_U_33
_atom_site_aniso_U_12
_atom_site_aniso_U_13
_atom_site_aniso_U_23
Cu1 Cu1.125+ 0.02563(42) 0.01666(42) 0.07277(76) 0 0 0
Cu2 Cu1.125+ 0.04074(52) 0.04867(64) 0.01590(38) 0 0 0
Cu3 Cu1.125+ 0.03064(41) 0.01744(39) 0.03514(48) 0 0 0
Cu4 Cu1.125+ 0.04101(47) 0.02368(45) 0.01580(37) 0 0 0
#End of data_85728-ICSD


