data_604981-ICSD
#?2014 by Fachinformationszentrum Karlsruhe, and the U.S. Secretary of 
#Commerce on behalf of the United States.  All rights reserved.
_database_code_ICSD                604981
_audit_creation_date               2012/02/01
_chemical_name_systematic          'Silver Chromium Sulfide (1/1/2)'
_chemical_formula_structural       'Ag Cr S2'
_chemical_formula_sum              'Ag1 Cr1 S2'
_publ_section_title
;
Ionic conductivity and diffusion in Cu Cr S2 - Ag Cr S2 mixed 
conductors and their alloys
;
loop_
_citation_id
_citation_journal_abbrev
_citation_year
_citation_journal_volume
_citation_page_first
_citation_page_last
_citation_journal_id_ASTM
primary 'Physica Status Solidi A - Applications and Materials'
 1991 124 417 426 PSSABA
_publ_author_name
;
Yakshibaev, R.A.;Akmanova, G.R.;Almukhametov, R.F.;Konev, V.N.
;
_cell_length_a                     3.498
_cell_length_b                     3.498
_cell_length_c                     20.544
_cell_angle_alpha                  90.
_cell_angle_beta                   90.
_cell_angle_gamma                  120.
_cell_volume                       217.7
_cell_formula_units_Z              3
_symmetry_space_group_name_H-M     'R 3 m H'
_symmetry_Int_Tables_number        160
loop_
_symmetry_equiv_pos_site_id
_symmetry_equiv_pos_as_xyz
  1	'-x+y, y, z'
  2	'x, x-y, z'
  3	'-y, -x, z'
  4	'-x+y, -x, z'
  5	'-y, x-y, z'
  6	'x, y, z'
  7	'-x+y+.6666, y+.3333, z+.3333'
  8	'-x+y+.3333, y+.6666, z+.6666'
  9	'x+.6666, x-y+.3333, z+.3333'
 10	'x+.3333, x-y+.6666, z+.6666'
 11	'-y+.6666, -x+.3333, z+.3333'
 12	'-y+.3333, -x+.6666, z+.6666'
 13	'-x+y+.6666, -x+.3333, z+.3333'
 14	'-x+y+.3333, -x+.6666, z+.6666'
 15	'-y+.6666, x-y+.3333, z+.3333'
 16	'-y+.3333, x-y+.6666, z+.6666'
 17	'x+.6666, y+.3333, z+.3333'
 18	'x+.3333, y+.6666, z+.6666'
loop_
_atom_type_symbol
_atom_type_oxidation_number
Ag1+	1
Cr3+	3
S2-	-2
loop_
_atom_site_label
_atom_site_type_symbol
_atom_site_symmetry_multiplicity
_atom_site_Wyckoff_symbol
_atom_site_fract_x
_atom_site_fract_y
_atom_site_fract_z
_atom_site_occupancy
_atom_site_attached_hydrogens
Cr1 Cr3+ 3 a 0 0 0 1. 0 
Ag1 Ag1+ 3 a 0 0 0.148 1. 0 
S1 S2- 3 a 0 0 0.264 1. 0 
S2 S2- 3 a 0 0 0.741 1. 0 

#End of data_604981-ICSD


