data_402632-ICSD
#?2014 by Fachinformationszentrum Karlsruhe, and the U.S. Secretary of 
#Commerce on behalf of the United States.  All rights reserved.
_database_code_ICSD                402632
_audit_creation_date               1997/11/10
_chemical_name_systematic          'Rubidium Silver Hafnium Telluride'
_chemical_formula_structural       'Rb Ag Hf Te3'
_chemical_formula_sum              'Ag1 Hf1 Rb1 Te3'
_publ_section_title
;
Crystal structure of rubidium silver hafnium telluride, Rb Ag Hf Te3
;
loop_
_citation_id
_citation_journal_abbrev
_citation_year
_citation_journal_volume
_citation_page_first
_citation_page_last
_citation_journal_id_ASTM
primary 'Zeitschrift fuer Kristallographie - New Crystal Structures'
 1997 212 92 92 ZKNSFT
_publ_author_name                  'Pell, M.A.;Kleyn, A.G.;Ibers, J.A.'
_cell_length_a                     8.953(4)
_cell_length_b                     4.196(2)
_cell_length_c                     10.817(4)
_cell_angle_alpha                  90.
_cell_angle_beta                   111.48(2)
_cell_angle_gamma                  90.
_cell_volume                       378.14
_cell_formula_units_Z              2
_symmetry_space_group_name_H-M     'P 1 21/m 1'
_symmetry_Int_Tables_number        11
_refine_ls_R_factor_all            .0299
loop_
_symmetry_equiv_pos_site_id
_symmetry_equiv_pos_as_xyz
  1	'x, -y+.5, z'
  2	'-x, -y, -z'
  3	'-x, y+.5, -z'
  4	'x, y, z'
loop_
_atom_type_symbol
_atom_type_oxidation_number
Ag1+	1
Hf4+	4
Rb1+	1
Te2-	-2
loop_
_atom_site_label
_atom_site_type_symbol
_atom_site_symmetry_multiplicity
_atom_site_Wyckoff_symbol
_atom_site_fract_x
_atom_site_fract_y
_atom_site_fract_z
_atom_site_occupancy
_atom_site_attached_hydrogens
Rb1 Rb1+ 2 e 0.74309(14) 0.25 0.71155(12) 1. 0 
Ag1 Ag1+ 2 e 1.07244(11) -.25 0.60204(9) 1. 0 
Hf1 Hf4+ 2 e 0.69567(6) -.25 0.16492(5) 1. 0 
Te1 Te2- 2 e 0.73584(9) -.25 0.43490(7) 1. 0 
Te2 Te2- 2 e 0.45401(9) 0.25 0.12740(7) 1. 0 
Te3 Te2- 2 e 1.09686(9) -.25 0.86516(7) 1. 0 

loop_
_atom_site_aniso_label
_atom_site_aniso_type_symbol
_atom_site_aniso_U_11
_atom_site_aniso_U_22
_atom_site_aniso_U_33
_atom_site_aniso_U_12
_atom_site_aniso_U_13
_atom_site_aniso_U_23
Rb1 Rb1+ 0.0105(6) 0.0139(7) 0.0112(6) 0 0.0061(5) 0
Ag1 Ag1+ 0.0087(5) 0.0146(6) 0.0054(4) 0 0.0003(4) 0
Hf1 Hf4+ 0.0065(3) 0.0132(3) 0.0045(3) 0 0.0009(2) 0
Te1 Te2- 0.0061(4) 0.0126(5) 0.0032(4) 0 0.0004(3) 0
Te2 Te2- 0.0042(4) 0.0109(5) 0.0031(4) 0 0.0005(3) 0
Te3 Te2- 0.0049(4) 0.0115(5) 0.0053(4) 0 0.0016(3) 0
#End of data_402632-ICSD


