data_170563-ICSD
#?2014 by Fachinformationszentrum Karlsruhe, and the U.S. Secretary of 
#Commerce on behalf of the United States.  All rights reserved.
_database_code_ICSD                170563
_audit_creation_date               2006/04/01
_audit_update_record               2008/02/01
_chemical_name_systematic
;
Hexapotassium Triytterbium Pentakis(tetrathiophosphate(V))
;
_chemical_formula_structural       'K6 Yb3 (P S4)5'
_chemical_formula_sum              'K6 P5 S20 Yb3'
_publ_section_title
;
Interwoven pair of open frameworks in the thiophosphate K6 Yb3 (P 
S4)5
;
loop_
_citation_id
_citation_journal_abbrev
_citation_year
_citation_journal_volume
_citation_journal_issue
_citation_page_first
_citation_page_last
_citation_journal_id_ASTM
primary 'Journal of the American Chemical Society' 2004 126 38 11780 11780 11781 JACSAT
_publ_author_name                  'Aitken, J.A.;Kanatzidis, M.G.'
_cell_length_a                     27.120(3)
_cell_length_b                     12.5509(12)
_cell_length_c                     25.193(3)
_cell_angle_alpha                  90.00
_cell_angle_beta                   118.9400(10)
_cell_angle_gamma                  90.00
_cell_volume                       7504.39
_cell_formula_units_Z              8
_symmetry_space_group_name_H-M     'C 1 2/c 1'
_symmetry_Int_Tables_number        15
_refine_ls_R_factor_all            .1381
loop_
_symmetry_equiv_pos_site_id
_symmetry_equiv_pos_as_xyz
  1	'x, -y, z+.5'
  2	'-x, -y, -z'
  3	'-x, y, -z+.5'
  4	'x, y, z'
  5	'x+.5, -y+.5, z+.5'
  6	'-x+.5, -y+.5, -z'
  7	'-x+.5, y+.5, -z+.5'
  8	'x+.5, y+.5, z'
loop_
_atom_type_symbol
_atom_type_oxidation_number
K1+	1
P5+	5
S2-	-2
Yb3+	3
loop_
_atom_site_label
_atom_site_type_symbol
_atom_site_symmetry_multiplicity
_atom_site_Wyckoff_symbol
_atom_site_fract_x
_atom_site_fract_y
_atom_site_fract_z
_atom_site_occupancy
_atom_site_attached_hydrogens
_atom_site_U_iso_or_equiv
K1 K1+ 8 f -0.03077(6) -0.17863(11) 0.47832(6) 1 0 0.0296(3) 
K2 K1+ 8 f 0.33184(5) -0.16736(11) 0.42304(6) 1 0 0.0298(3) 
K3 K1+ 8 f 0.71781(5) -0.21005(11) 0.57362(6) 1 0 0.0279(3) 
K4 K1+ 8 f 0.57216(5) -0.29463(12) 0.23201(6) 1 0 0.0278(3) 
K5 K1+ 8 f 0.17786(6) -0.40176(16) 0.36237(7) 1 0 0.0562(5) 
K6 K1+ 8 f 0.06859(10) -0.21075(18) 0.23031(11) 1 0 0.0978(9) 
Yb1 Yb3+ 8 f 0.125029(10) -0.006168(16 0.437424(12) 1 0 0.01146(6) 
Yb2 Yb3+ 8 f 0.514099(10) -0.009722(17 0.377502(12) 1 0 0.01295(6) 
Yb3 Yb3+ 8 f 0.232704(9) -0.03017(2) 0.243439(11) 1 0 0.01542(6) 
P1 P5+ 8 f 0.37333(6) -0.03766(13) 0.31005(7) 1 0 0.0179(3) 
P2 P5+ 8 f 0.17727(6) -0.02783(13) 0.33617(7) 1 0 0.0153(3) 
P3 P5+ 8 f 0.06739(6) -0.26242(11) 0.40779(6) 1 0 0.0124(3) 
P4 P5+ 8 f 0.08312(6) 0.26215(11) 0.40561(6) 1 0 0.0135(3) 
P5 P5+ 8 f 0.16974(6) 0.00064(10) 0.09469(7) 1 0 0.0148(4) 
S1 S2- 8 f 0.09512(6) -0.03021(13) 0.31585(7) 1 0 0.0212(3) 
S2 S2- 8 f 0.21537(6) 0.03247(13) 0.55231(6) 1 0 0.0199(3) 
S3 S2- 8 f 0.03407(6) 0.13375(11) 0.39687(7) 1 0 0.0166(3) 
S4 S2- 8 f 0.15031(5) -0.22478(11) 0.45150(6) 1 0 0.0176(3) 
S5 S2- 8 f 0.19111(6) 0.10025(11) 0.29536(7) 1 0 0.0195(3) 
S6 S2- 8 f 0.15990(6) 0.20243(11) 0.42774(7) 1 0 0.0213(3) 
S7 S2- 8 f 0.20873(6) 0.11661(12) 0.15854(6) 1 0 0.0238(3) 
S8 S2- 8 f 0.22639(6) -0.02486(12) 0.42792(7) 1 0 0.0176(3) 
S9 S2- 8 f 0.54541(6) 0.14402(11) 0.46038(6) 1 0 0.0173(3) 
S10 S2- 8 f 0.19580(6) -0.16278(12) 0.30126(7) 1 0 0.0240(3) 
S11 S2- 8 f 0.58634(6) -0.13421(11) 0.47056(6) 1 0 0.0195(3) 
S12 S2- 8 f 0.55052(6) -0.15174(12) 0.32626(7) 1 0 0.0198(3) 
S13 S2- 8 f 0.32636(6) 0.05044(14) 0.33664(7) 1 0 0.0281(4) 
S14 S2- 8 f 0.41795(6) 0.05554(14) 0.28234(7) 1 0 0.0332(4) 
S15 S2- 8 f 0.31808(6) -0.13049(13) 0.23988(7) 1 0 0.0300(4) 
S16 S2- 8 f 0.43213(6) -0.12669(13) 0.37960(7) 1 0 0.0246(4) 
S17 S2- 8 f 0.55034(6) 0.14913(12) 0.33201(6) 1 0 0.0170(3) 
S18 S2- 8 f 0.16300(6) -0.13111(12) 0.13930(6) 1 0 0.0206(3) 
S19 S2- 8 f 0.02099(5) -0.12667(11) 0.38477(6) 1 0 0.0162(3) 
S20 S2- 8 f 0.09352(6) -0.04792(12) 0.52783(6) 1 0 0.0206(3) 

loop_
_atom_site_aniso_label
_atom_site_aniso_type_symbol
_atom_site_aniso_U_11
_atom_site_aniso_U_22
_atom_site_aniso_U_33
_atom_site_aniso_U_12
_atom_site_aniso_U_13
_atom_site_aniso_U_23
K1 K1+ 0.0334(8) 0.0289(8) 0.0400(9) 0.0063(6) 0.0283(7) 0.0026(6)
K2 K1+ 0.0268(7) 0.0361(9) 0.0226(7) 0.0014(6) 0.0089(6) 0.0026(6)
K3 K1+ 0.0260(7) 0.0253(8) 0.0303(8) -0.0057(6) 0.0120(6) -0.0026(6)
K4 K1+ 0.0226(7) 0.0281(8) 0.0282(8) 0.0074(6) 0.0086(6) 0.0000(6)
K5 K1+ 0.0362(9) 0.0944(16) 0.0437(10) 0.0336(9) 0.0240(8) 0.0207(10)
K6 K1+ 0.0941(17) 0.0502(14) 0.0808(16) -0.0085(12) -0.0116(14) 0.0032(12)
Yb1 Yb3+ 0.01548(12) 0.00792(14) 0.01293(14) -0.00054(8) 0.00841(11) 
-0.00037(8)
Yb2 Yb3+ 0.01305(12) 0.00867(12) 0.01625(14) -0.00059(8) 0.00640(11) 
0.00000(9)
Yb3 Yb3+ 0.01298(12) 0.02161(13) 0.01240(13) 0.00145(10) 0.00673(10) 
-0.00031(11)
P1 P5+ 0.0135(7) 0.0213(8) 0.0183(8) -0.0003(6) 0.0074(6) -0.0014(7)
P2 P5+ 0.0160(7) 0.0185(7) 0.0143(8) 0.0031(6) 0.0097(6) 0.0013(6)
P3 P5+ 0.0147(7) 0.0092(7) 0.0151(7) -0.0016(6) 0.0086(6) -0.0020(6)
P4 P5+ 0.0139(7) 0.0107(7) 0.0150(8) 0.0030(5) 0.0063(6) 0.0013(6)
P5 P5+ 0.0192(8) 0.0155(9) 0.0113(8) -0.0023(5) 0.0086(7) 0.0013(5)
S1 S2- 0.0177(7) 0.0320(8) 0.0160(8) 0.0000(7) 0.0099(6) 0.0002(7)
S2 S2- 0.0170(7) 0.0282(8) 0.0150(7) -0.0030(6) 0.0082(6) -0.0010(7)
S3 S2- 0.0155(7) 0.0119(7) 0.0228(8) 0.0021(5) 0.0096(6) 0.0002(6)
S4 S2- 0.0120(7) 0.0161(7) 0.0213(8) 0.0004(5) 0.0055(6) -0.0015(6)
S5 S2- 0.0230(8) 0.0167(8) 0.0244(8) 0.0047(6) 0.0159(7) 0.0046(6)
S6 S2- 0.0160(7) 0.0138(7) 0.0352(9) 0.0037(5) 0.0132(7) 0.0041(6)
S7 S2- 0.0375(9) 0.0163(8) 0.0174(8) -0.0072(7) 0.0131(7) -0.0021(6)
S8 S2- 0.0162(7) 0.0206(7) 0.0182(8) 0.0029(6) 0.0100(6) 0.0027(6)
S9 S2- 0.0261(8) 0.0138(7) 0.0177(7) -0.0020(6) 0.0151(7) 0.0000(6)
S10 S2- 0.0363(9) 0.0181(8) 0.0273(9) 0.0049(6) 0.0231(8) 0.0014(6)
S11 S2- 0.0237(8) 0.0175(8) 0.0136(7) 0.0050(6) 0.0061(6) -0.0017(6)
S12 S2- 0.0273(8) 0.0169(8) 0.0146(8) 0.0052(6) 0.0096(7) 0.0019(6)
S13 S2- 0.0186(8) 0.0357(10) 0.0249(8) 0.0041(7) 0.0065(7) -0.0122(7)
S14 S2- 0.0174(8) 0.0428(11) 0.0340(10) 0.0021(7) 0.0082(7) 0.0212(8)
S15 S2- 0.0187(8) 0.0343(10) 0.0343(9) 0.0001(7) 0.0107(7) -0.0149(7)
S16 S2- 0.0156(7) 0.0296(9) 0.0271(9) 0.0005(6) 0.0092(7) 0.0115(7)
S17 S2- 0.0249(8) 0.0127(7) 0.0186(8) -0.0049(6) 0.0145(7) -0.0045(6)
S18 S2- 0.0230(8) 0.0193(8) 0.0165(8) -0.0058(6) 0.0071(7) 0.0026(6)
S19 S2- 0.0165(7) 0.0118(7) 0.0218(8) -0.0003(5) 0.0105(6) -0.0002(6)
S20 S2- 0.0199(7) 0.0259(9) 0.0179(8) -0.0040(6) 0.0108(6) -0.0034(6)
#End of data_170563-ICSD


