data_74857-ICSD
#?2014 by Fachinformationszentrum Karlsruhe, and the U.S. Secretary of 
#Commerce on behalf of the United States.  All rights reserved.
_database_code_ICSD                74857
_audit_creation_date               1995/10/17
_chemical_name_systematic          'Dipotassium Pentaiodouranate(III)'
_chemical_formula_structural       'K2 (U I5)'
_chemical_formula_sum              'I5 K2 U1'
_publ_section_title
;
Synthesis, crystal structure, magnetism and absorption spectra of 
A2UX5 type halides (A=K,Rb; X=Cl,Br,I)
;
loop_
_citation_id
_citation_journal_abbrev
_citation_year
_citation_journal_volume
_citation_page_first
_citation_page_last
_citation_journal_id_ASTM
primary 'Zeitschrift fuer Anorganische und Allgemeine Chemie (1950) (DE)'
 1994 620 1339 1345 ZAACAB
_publ_author_name
;
Kraemer, K.;Guedel, H.U.;Meyer, G.;Heuer, T.;Edelstein, N.N.;Jung, 
B.;Keller, L.;Fischer, P.;Zych, E.;Drozdzynski, J.
;
_cell_length_a                     14.313(8)
_cell_length_b                     9.866(6)
_cell_length_c                     9.123(5)
_cell_angle_alpha                  90.
_cell_angle_beta                   90.
_cell_angle_gamma                  90.
_cell_volume                       1288.28
_cell_formula_units_Z              4
_symmetry_space_group_name_H-M     'P n m a'
_symmetry_Int_Tables_number        62
_refine_ls_R_factor_all            .043
loop_
_symmetry_equiv_pos_site_id
_symmetry_equiv_pos_as_xyz
  1	'x+.5, y, -z+.5'
  2	'x, -y+.5, z'
  3	'-x+.5, y+.5, z+.5'
  4	'-x, -y, -z'
  5	'-x+.5, -y, z+.5'
  6	'-x, y+.5, -z'
  7	'x+.5, -y+.5, -z+.5'
  8	'x, y, z'
loop_
_atom_type_symbol
_atom_type_oxidation_number
I1-	-1
K1+	1
U3+	3
loop_
_atom_site_label
_atom_site_type_symbol
_atom_site_symmetry_multiplicity
_atom_site_Wyckoff_symbol
_atom_site_fract_x
_atom_site_fract_y
_atom_site_fract_z
_atom_site_occupancy
_atom_site_attached_hydrogens
_atom_site_U_iso_or_equiv
K1 K1+ 8 d 0.6714(2) 0.4946(2) 0.5633(3) 1. 0 0.0471(14) 
U1 U3+ 4 c 0.50626(3) 0.25 0.08147(5) 1. 0 0.0240(2) 
I1 I1- 4 c 0.99465(6) 0.75 0.93623(9) 1. 0 0.0314(4) 
I2 I1- 4 c 0.78935(6) 0.25 0.3398(1) 1. 0 0.0343(5) 
I3 I1- 4 c 0.68596(7) 0.25 0.8753(1) 1. 0 0.0370(5) 
I4 I1- 8 d 0.57570(5) 0.54695(6) 0.17280(7) 1. 0 0.0329(3) 

#End of data_74857-ICSD


