data_281295-ICSD
#?2014 by Fachinformationszentrum Karlsruhe, and the U.S. Secretary of 
#Commerce on behalf of the United States.  All rights reserved.
_database_code_ICSD                281295
_audit_creation_date               2003/10/01
_audit_update_record               2008/02/01
_chemical_name_systematic
;
Dipotassium Diphosphato(V)dioxomolybdate
;
_chemical_formula_structural       'K2 (Mo O2 (P2 O7))'
_chemical_formula_sum              'K2 Mo1 O9 P2'
_publ_section_title                'K2 Mo O2 P2 O7'
loop_
_citation_id
_citation_journal_abbrev
_citation_year
_citation_journal_volume
_citation_page_first
_citation_page_last
_citation_journal_id_ASTM
primary 'Acta Crystallographica, Section E. Structure Reports Online'
 2003 59 i65 i67 ACSEBH
_publ_author_name                  'Zid, M.F.;Driss, A.;Jouini, T.'
_cell_length_a                     13.778(1)
_cell_length_b                     8.0216(9)
_cell_length_c                     15.595(1)
_cell_angle_alpha                  90.
_cell_angle_beta                   98.44(1)
_cell_angle_gamma                  90.
_cell_volume                       1704.92
_cell_formula_units_Z              8
_symmetry_space_group_name_H-M     'C 1 2/c 1'
_symmetry_Int_Tables_number        15
_refine_ls_R_factor_all            .033
loop_
_symmetry_equiv_pos_site_id
_symmetry_equiv_pos_as_xyz
  1	'x, -y, z+.5'
  2	'-x, -y, -z'
  3	'-x, y, -z+.5'
  4	'x, y, z'
  5	'x+.5, -y+.5, z+.5'
  6	'-x+.5, -y+.5, -z'
  7	'-x+.5, y+.5, -z+.5'
  8	'x+.5, y+.5, z'
loop_
_atom_type_symbol
_atom_type_oxidation_number
K1+	1
Mo6+	6
O2-	-2
P5+	5
loop_
_atom_site_label
_atom_site_type_symbol
_atom_site_symmetry_multiplicity
_atom_site_Wyckoff_symbol
_atom_site_fract_x
_atom_site_fract_y
_atom_site_fract_z
_atom_site_occupancy
_atom_site_attached_hydrogens
_atom_site_U_iso_or_equiv
Mo1 Mo6+ 8 f -.11455(3) 0.64360(6) 0.36439(3) 1. 0 0.01090(10) 
K1 K1+ 8 f 0.14457(9) 0.1634(2) 0.23762(8) 1. 0 0.0213(3) 
K2 K1+ 8 f 0.1416(1) 0.9143(2) 0.47828(9) 1. 0 0.0239(3) 
P1 P5+ 8 f 0.1293(1) 0.5808(2) 0.34432(9) 1. 0 0.0116(3) 
P2 P5+ 8 f 0.0378(1) 0.3007(2) 0.42395(9) 1. 0 0.0112(3) 
O1 O2- 8 f 0.2230(3) 0.6669(5) 0.3785(2) 1. 0 0.0171(8) 
O2 O2- 8 f 0.0373(3) 0.6790(5) 0.3552(2) 1. 0 0.0141(8) 
O3 O2- 8 f 0.0270(3) 0.1476(5) 0.3689(2) 1. 0 0.0200(9) 
O4 O2- 8 f -.0534(3) 0.4096(5) 0.4174(2) 1. 0 0.0158(8) 
O5 O2- 8 f 0.0724(3) 0.2488(5) 0.5193(2) 1. 0 0.0149(8) 
O6 O2- 8 f 0.1279(3) 0.4102(5) 0.3988(2) 1. 0 0.0172(9) 
O7 O2- 8 f 0.1239(3) 0.5159(5) 0.2495(2) 1. 0 0.0178(9) 
O8 O2- 8 f -.2245(3) 0.5729(6) 0.3882(3) 1. 0 0.0216(9) 
O9 O2- 8 f -.1462(3) 0.8279(5) 0.3135(2) 1. 0 0.0196(9) 

loop_
_atom_site_aniso_label
_atom_site_aniso_type_symbol
_atom_site_aniso_U_11
_atom_site_aniso_U_22
_atom_site_aniso_U_33
_atom_site_aniso_U_12
_atom_site_aniso_U_13
_atom_site_aniso_U_23
Mo1 Mo6+ 0.0108(2) 0.0122(2) 0.0096(2) 0.0019(2) 0.0011(2) 0.0014(2)
K1 K1+ 0.0177(6) 0.0265(7) 0.0192(6) 0.0038(6) 0.0012(5) -0.0034(6)
K2 K1+ 0.0246(7) 0.0214(7) 0.0253(7) 0.0026(6) 0.0025(5) 0.0010(6)
P1 P5+ 0.0115(6) 0.0134(7) 0.0101(6) -0.0007(6) 0.0020(5) 0.0011(5)
P2 P5+ 0.0122(6) 0.0117(7) 0.0097(6) 0.0018(5) 0.0015(5) 0.0006(5)
O1 O2- 0.012(2) 0.020(2) 0.019(2) 0.001(2) 0.001(2) -0.002(2)
O2 O2- 0.013(2) 0.013(2) 0.017(2) -0.002(2) 0.004(2) 0.001(2)
O3 O2- 0.023(2) 0.018(2) 0.017(2) 0.003(2) -0.003(2) -0.005(2)
O4 O2- 0.016(2) 0.013(2) 0.019(2) 0.003(2) 0.005(2) 0.003(2)
O5 O2- 0.020(2) 0.012(2) 0.012(2) 0.004(2) 0.000(2) 0.002(2)
O6 O2- 0.013(2) 0.021(2) 0.018(2) 0.004(2) 0.004(2) 0.011(2)
O7 O2- 0.025(2) 0.018(2) 0.011(2) 0.002(2) 0.003(2) -0.001(2)
O8 O2- 0.014(2) 0.029(2) 0.023(2) -0.001(2) 0.005(2) 0.004(2)
O9 O2- 0.028(2) 0.015(2) 0.016(2) 0.006(2) 0.000(2) 0.004(2)
#End of data_281295-ICSD


