data_35091-ICSD
#?2014 by Fachinformationszentrum Karlsruhe, and the U.S. Secretary of 
#Commerce on behalf of the United States.  All rights reserved.
_database_code_ICSD                35091
_audit_creation_date               1982/12/31
_audit_update_record               2011/02/01
_chemical_name_systematic
;
Sodium Cobalt Tris(dihydrogenphosphate(III)) Hydrate
;
_chemical_formula_structural       'Na Co (H2 P O3)3 (H2 O)'
_chemical_formula_sum              'H8 Co1 Na1 O10 P3'
_publ_section_title
;
Cobalt(II) sodium dihydrogenphosphite monohydrate
;
loop_
_citation_id
_citation_journal_abbrev
_citation_year
_citation_journal_volume
_citation_page_first
_citation_page_last
_citation_journal_id_ASTM
primary 'Acta Crystallographica B (24,1968-38,1982)' 1982 38 2436 2438 ACBCAR
_publ_author_name
;
Kratochvil, B.;Podlahova, J.;Habibpur, S.;Petricek, V.;Maly, K.
;
_cell_length_a                     9.054(2)
_cell_length_b                     14.706(3)
_cell_length_c                     14.759(3)
_cell_angle_alpha                  90.
_cell_angle_beta                   90.
_cell_angle_gamma                  90.
_cell_volume                       1965.13
_cell_formula_units_Z              8
_symmetry_space_group_name_H-M     'P b c a'
_symmetry_Int_Tables_number        61
_refine_ls_R_factor_all            .046
loop_
_symmetry_equiv_pos_site_id
_symmetry_equiv_pos_as_xyz
  1	'x+.5, y, -z+.5'
  2	'x, -y+.5, z+.5'
  3	'-x+.5, y+.5, z'
  4	'-x, -y, -z'
  5	'-x+.5, -y, z+.5'
  6	'-x, y+.5, -z+.5'
  7	'x+.5, -y+.5, -z'
  8	'x, y, z'
loop_
_atom_type_symbol
_atom_type_oxidation_number
Co2+	2
H1+	1
Na1+	1
O2-	-2
P3+	3
loop_
_atom_site_label
_atom_site_type_symbol
_atom_site_symmetry_multiplicity
_atom_site_Wyckoff_symbol
_atom_site_fract_x
_atom_site_fract_y
_atom_site_fract_z
_atom_site_occupancy
_atom_site_attached_hydrogens
_atom_site_B_iso_or_equiv
Co1 Co2+ 8 c 0.44674(4) 0.84005(2) 0.54643(3) 1. 0 0 
Na1 Na1+ 8 c 0.5608(2) 0.6573(1) 0.4325(1) 1. 0 0 
P1 P3+ 8 c 0.22912(9) 0.53094(5) 0.50824(5) 1. 0 0 
P2 P3+ 8 c 0.73728(8) 0.72364(5) 0.61973(5) 1. 0 0 
P3 P3+ 8 c 0.46100(8) 0.52981(5) 0.23742(5) 1. 0 0 
O1 O2- 8 c 0.3677(3) 0.5733(2) 0.5556(2) 1. 0 0 
O2 O2- 8 c 0.0942(3) 0.5850(1) 0.5323(1) 1. 0 0 
O3 O2- 8 c 0.2238(2) 0.4313(1) 0.5292(2) 1. 0 0 
O4 O2- 8 c 0.7385(3) 0.7934(2) 0.7005(2) 1. 0 0 
O5 O2- 8 c 0.5999(2) 0.7380(1) 0.5648(1) 1. 0 0 
O6 O2- 8 c 0.8821(2) 0.7304(1) 0.5710(1) 1. 0 0 
O7 O2- 8 c 0.5035(3) 0.4326(2) 0.2034(2) 1. 0 0 
O8 O2- 8 c 0.5154(3) 0.5386(2) 0.3325(2) 1. 0 0 
O9 O2- 8 c 0.5146(3) 0.6019(1) 0.1731(2) 1. 0 0 
O10 O2- 8 c 0.7858(3) 0.7397(2) 0.3816(1) 1. 0 0 
H1 H1+ 8 c 0.249(5) 0.544(3) 0.424(3) 1. 0 0.84 
H2 H1+ 8 c 0.723(5) 0.640(3) 0.659(3) 1. 0 0.75 
H3 H1+ 8 c 0.331(5) 0.527(3) 0.234(3) 1. 0 0.85 
H4 H1+ 8 c 0.415 0.537 0.6 1. 0 2.25 
H5 H1+ 8 c 0.646 0.822 0.69 1. 0 1.58 
H6 H1+ 8 c 0.475 0.42 0.14 1. 0 2.17 
H7 H1+ 8 c 0.806 0.736 0.313 1. 0 1.39 
H8 H1+ 8 c 0.801 0.799 0.399 1. 0 1.39 

#End of data_35091-ICSD


