data_245562-ICSD
#?2014 by Fachinformationszentrum Karlsruhe, and the U.S. Secretary of 
#Commerce on behalf of the United States.  All rights reserved.
_database_code_ICSD                245562
_audit_creation_date               2008/02/01
_chemical_name_systematic          'Cerium Trioxoaluminate'
_chemical_formula_structural       'Ce Al O3'
_chemical_formula_sum              'Al1 Ce1 O3'
_publ_section_title
;
Ce Al O3 and Ce(1-x) R(x) Al O3 (R = La, Nd) solid solutions: Crystal 
structure, thermal expansion and phase transition
;
loop_
_citation_id
_citation_journal_abbrev
_citation_year
_citation_journal_volume
_citation_journal_issue
_citation_page_first
_citation_page_last
_citation_journal_id_ASTM
primary 'Journal of Solid State Chemistry' 2007 180 4 1277 1290 JSSCBI
_publ_author_name
;
Vasylechko, L.;Senyshin, A.;Trots, D.M.;Niewa, R.;Schnelle, W.;Knapp, 
M.
;
_cell_length_a                     5.33725(9)
_cell_length_b                     7.5370(1)
_cell_length_c                     5.35721(8)
_cell_angle_alpha                  90.
_cell_angle_beta                   90.
_cell_angle_gamma                  90.
_cell_volume                       215.5
_cell_formula_units_Z              4
_symmetry_space_group_name_H-M     'I m m a'
_symmetry_Int_Tables_number        74
_refine_ls_R_factor_all            .0491
loop_
_symmetry_equiv_pos_site_id
_symmetry_equiv_pos_as_xyz
  1	'-x, y+.5, -z'
  2	'-x, -y+.5, z'
  3	'-x, y, z'
  4	'-x, -y, -z'
  5	'x, -y+.5, z'
  6	'x, y+.5, -z'
  7	'x, -y, -z'
  8	'x, y, z'
  9	'-x+.5, y, -z+.5'
 10	'-x+.5, -y, z+.5'
 11	'-x+.5, y+.5, z+.5'
 12	'-x+.5, -y+.5, -z+.5'
 13	'x+.5, -y, z+.5'
 14	'x+.5, y, -z+.5'
 15	'x+.5, -y+.5, -z+.5'
 16	'x+.5, y+.5, z+.5'
loop_
_atom_type_symbol
_atom_type_oxidation_number
Al3+	3
Ce3+	3
O2-	-2
loop_
_atom_site_label
_atom_site_type_symbol
_atom_site_symmetry_multiplicity
_atom_site_Wyckoff_symbol
_atom_site_fract_x
_atom_site_fract_y
_atom_site_fract_z
_atom_site_occupancy
_atom_site_attached_hydrogens
_atom_site_B_iso_or_equiv
Ce1 Ce3+ 4 e 0 0.25 0.4968(7) 1. 0 0.69(1) 
Al1 Al3+ 4 a 0 0 0 1. 0 0.7(15) 
O1 O2- 4 e 0 0.25 -0.039(3) 1. 0 1.2(3) 
O2 O2- 8 g 0.25 -0.008(5) 0.25 1. 0 0.8(15) 

#End of data_245562-ICSD


