data_402119-ICSD
#?2014 by Fachinformationszentrum Karlsruhe, and the U.S. Secretary of 
#Commerce on behalf of the United States.  All rights reserved.
_database_code_ICSD                402119
_audit_creation_date               1996/04/22
_chemical_name_systematic          'Silver Chlorate(VII) Hydrate'
_chemical_formula_structural       'Ag (Cl O4) (H2 O)'
_chemical_formula_sum              'H2 Ag1 Cl1 O5'
_publ_section_title
;
Crystal structure of silver perchlorate monohydrate, Ag (Cl O4) (H2 
O)
;
loop_
_citation_id
_citation_journal_abbrev
_citation_year
_citation_journal_volume
_citation_page_first
_citation_page_last
_citation_journal_id_ASTM
primary 'Zeitschrift fuer Kristallographie (1979-2010)' 1995 210 879 879 ZEKRDZ
_publ_author_name                  'Wartchow, R.;Ludwig, W.'
_cell_length_a                     8.122(5)
_cell_length_b                     7.829(6)
_cell_length_c                     13.560(7)
_cell_angle_alpha                  90.
_cell_angle_beta                   90.
_cell_angle_gamma                  90.
_cell_volume                       862.24
_cell_formula_units_Z              8
_symmetry_space_group_name_H-M     'P b c a'
_symmetry_Int_Tables_number        61
_refine_ls_R_factor_all            .058
loop_
_symmetry_equiv_pos_site_id
_symmetry_equiv_pos_as_xyz
  1	'x+.5, y, -z+.5'
  2	'x, -y+.5, z+.5'
  3	'-x+.5, y+.5, z'
  4	'-x, -y, -z'
  5	'-x+.5, -y, z+.5'
  6	'-x, y+.5, -z+.5'
  7	'x+.5, -y+.5, -z'
  8	'x, y, z'
loop_
_atom_type_symbol
_atom_type_oxidation_number
Ag1+	1
Cl7+	7
H1+	1
O2-	-2
loop_
_atom_site_label
_atom_site_type_symbol
_atom_site_symmetry_multiplicity
_atom_site_Wyckoff_symbol
_atom_site_fract_x
_atom_site_fract_y
_atom_site_fract_z
_atom_site_occupancy
_atom_site_attached_hydrogens
_atom_site_U_iso_or_equiv
Ag1 Ag1+ 8 c 0.2605(1) 0.1140(1) 0.3350(1) 1. 0 0 
Cl1 Cl7+ 8 c 0.1330(2) 0.3841(2) 0.1267(1) 1. 0 0 
O1 O2- 8 c 0.1913(6) 0.4596(8) 0.0387(3) 1. 0 0 
O2 O2- 8 c 0.0360(6) 0.2383(6) 0.1025(4) 1. 0 0 
O3 O2- 8 c 0.2720(6) 0.3370(9) 0.1878(4) 1. 0 0 
O4 O2- 8 c 0.0344(6) 0.5022(6) 0.1829(3) 1. 0 0 
O5 O2- 8 c 0.1045(5) 0.3599(5) 0.3939(3) 1. 0 0 
H1 H1+ 8 c -.0138(24) 0.3587(81) 0.3767(45) 1. 0 0.02(2) 
H2 H1+ 8 c 0.1066(75) 0.3574(85) 0.4667(8) 1. 0 0.05(2) 

loop_
_atom_site_aniso_label
_atom_site_aniso_type_symbol
_atom_site_aniso_U_11
_atom_site_aniso_U_22
_atom_site_aniso_U_33
_atom_site_aniso_U_12
_atom_site_aniso_U_13
_atom_site_aniso_U_23
Ag1 Ag1+ 0.0365(3) 0.0287(6) 0.0468(4) -.0026(2) -.0022(2) 0.0052(2)
Cl1 Cl7+ 0.0252(6) 0.0232(11) 0.0220(5) -.0005(5) 0.0020(4) -.0037(4)
O1 O2- 0.0665(28) 0.0766(44) 0.0243(20) 0.0126(23) 0.0055(20) -.0318(31)
O2 O2- 0.0544(28) 0.0373(32) 0.0576(29) -.0120(23) 0.0159(22) -.0228(23)
O3 O2- 0.0364(24) 0.0773(45) 0.0378(22) 0.0154(27) -.0035(17) 0.0161(24)
O4 O2- 0.0442(2) 0.040(4) 0.047(3) 0.013(2) 0.004(2) -.01(2)
O5 O2- 0.0330(18) 0.0268(29) 0.0257(17) 0.0005(15) -.0034(14) 0.0002(16)
#End of data_402119-ICSD


