data_74442-ICSD
#?2014 by Fachinformationszentrum Karlsruhe, and the U.S. Secretary of 
#Commerce on behalf of the United States.  All rights reserved.
_database_code_ICSD                74442
_audit_creation_date               1995/10/17
_audit_update_record               2007/08/01
_chemical_name_systematic          'Silver Tantalum Sulfide'
_chemical_formula_structural       'Ag Ta S3'
_chemical_formula_sum              'Ag1 S3 Ta1'
_publ_section_title
;
Structure and properties of a new compound Ag Ta S3
;
loop_
_citation_id
_citation_journal_abbrev
_citation_year
_citation_journal_volume
_citation_page_first
_citation_page_last
_citation_journal_id_ASTM
primary 'Journal of Solid State Chemistry' 1992 97 29 35 JSSCBI
_publ_author_name                  'Wada, H.;Onoda, M.;Nozaki, H.'
_cell_length_a                     3.3755(2)
_cell_length_b                     14.0608(11)
_cell_length_c                     7.7486(7)
_cell_angle_alpha                  90.
_cell_angle_beta                   90.
_cell_angle_gamma                  90.
_cell_volume                       367.77
_cell_formula_units_Z              4
_symmetry_space_group_name_H-M     'C m c 21'
_symmetry_Int_Tables_number        36
_refine_ls_R_factor_all            .037
loop_
_symmetry_equiv_pos_site_id
_symmetry_equiv_pos_as_xyz
  1	'x, -y, z+.5'
  2	'-x, -y, z+.5'
  3	'-x, y, z'
  4	'x, y, z'
  5	'x+.5, -y+.5, z+.5'
  6	'-x+.5, -y+.5, z+.5'
  7	'-x+.5, y+.5, z'
  8	'x+.5, y+.5, z'
loop_
_atom_type_symbol
_atom_type_oxidation_number
Ag1+	1
S2-	-2
Ta5+	5
loop_
_atom_site_label
_atom_site_type_symbol
_atom_site_symmetry_multiplicity
_atom_site_Wyckoff_symbol
_atom_site_fract_x
_atom_site_fract_y
_atom_site_fract_z
_atom_site_occupancy
_atom_site_attached_hydrogens
_atom_site_U_iso_or_equiv
Ag1 Ag1+ 4 a 0 -.002(7) 0.25 1. 0 0 
Ta1 Ta5+ 4 a 0 0.2621(3) -.012(4) 1. 0 0 
S1 S2- 4 a 0 0.893(1) -.015(12) 1. 0 0.010(5) 
S2 S2- 4 a 0 0.675(6) 0.164(11) 1. 0 0.010(5) 
S3 S2- 4 a 0 0.668(6) 0.814(12) 1. 0 0.010(5) 

loop_
_atom_site_aniso_label
_atom_site_aniso_type_symbol
_atom_site_aniso_U_11
_atom_site_aniso_U_22
_atom_site_aniso_U_33
_atom_site_aniso_U_12
_atom_site_aniso_U_13
_atom_site_aniso_U_23
Ag1 Ag1+ 0.093(8) 0.022(8) -0.004(71) 0 0 -0.020(12)
Ta1 Ta5+ 0.029(4) 0.011(4) -0.008(3) 0 0 0.004(11)
#End of data_74442-ICSD


