data_290271-ICSD
#?2014 by Fachinformationszentrum Karlsruhe, and the U.S. Secretary of 
#Commerce on behalf of the United States.  All rights reserved.
_database_code_ICSD                290271
_audit_creation_date               2013/08/01
_chemical_name_systematic
;
Tetrapotassium Tetrairon Pentakis(phosphate(V))
;
_chemical_formula_structural       'K4 Fe4 (P O4)5'
_chemical_formula_sum              'Fe4 K4 O20 P5'
_publ_section_title
;
Long-range and short-range orderings in K4 Fe4 P5 O20 with a 
natrolite-like framework
;
loop_
_citation_id
_citation_journal_abbrev
_citation_year
_citation_journal_volume
_citation_journal_issue
_citation_page_first
_citation_page_last
_citation_journal_id_ASTM
primary 'Dalton Transactions' 2013 42 16 5860 5865 DTARAF
_publ_author_name
;
Zhanzhen He;Weilong Zhang;Wendan Cheng;Okazawa, A.;Kojima, N.
;
_cell_length_a                     9.7450(7)
_cell_length_b                     9.7450(7)
_cell_length_c                     9.3800(9)
_cell_angle_alpha                  90.00
_cell_angle_beta                   90.00
_cell_angle_gamma                  90.00
_cell_volume                       890.77
_cell_formula_units_Z              2
_symmetry_space_group_name_H-M     'P -4 21 c'
_symmetry_Int_Tables_number        114
_refine_ls_R_factor_all            .0466
loop_
_symmetry_equiv_pos_site_id
_symmetry_equiv_pos_as_xyz
  1	'y+.5, x+.5, z+.5'
  2	'y, -x, -z'
  3	'-y+.5, -x+.5, z+.5'
  4	'-y, x, -z'
  5	'x+.5, -y+.5, -z+.5'
  6	'-x, -y, z'
  7	'-x+.5, y+.5, -z+.5'
  8	'x, y, z'
loop_
_atom_type_symbol
_atom_type_oxidation_number
Fe2.75+	2.75
K1+	1
O2-	-2
P5+	5
loop_
_atom_site_label
_atom_site_type_symbol
_atom_site_symmetry_multiplicity
_atom_site_Wyckoff_symbol
_atom_site_fract_x
_atom_site_fract_y
_atom_site_fract_z
_atom_site_occupancy
_atom_site_attached_hydrogens
_atom_site_U_iso_or_equiv
K1 K1+ 8 e 0.66568(17) 0.92841(19) 0.0312(2) 1 0 0.0324(4) 
Fe1 Fe2.75+ 8 e 0.42082(10) 0.68458(10) 0.20985(11) 1 0 0.0176(3) 
P1 P5+ 8 e 0.73759(19) 0.58671(19) 0.13606(17) 1 0 0.0185(4) 
P2 P5+ 2 a 0.5000 0.5000 0.5000 1 0 0.0137(6) 
O1 O2- 8 e 0.7723(6) 0.5979(6) -0.0199(5) 1 0 0.0268(11) 
O2 O2- 8 e 0.7315(6) 0.4390(5) 0.1785(6) 1 0 0.0317(13) 
O3 O2- 8 e 0.8683(6) 0.6416(6) 0.2155(7) 1 0 0.0340(13) 
O4 O2- 8 e 0.6170(7) 0.6725(7) 0.1793(9) 1 0 0.0479(19) 
O5 O2- 8 e 0.4420(5) 0.6152(5) 0.4074(5) 1 0 0.0214(10) 

loop_
_atom_site_aniso_label
_atom_site_aniso_type_symbol
_atom_site_aniso_U_11
_atom_site_aniso_U_22
_atom_site_aniso_U_33
_atom_site_aniso_U_12
_atom_site_aniso_U_13
_atom_site_aniso_U_23
K1 K1+ 0.0252(8) 0.0329(9) 0.0392(10) -0.0089(7) -0.0066(7) 0.0118(7)
Fe1 Fe2.75+ 0.0169(5) 0.0245(5) 0.0114(5) -0.0007(4) 0.0003(4) 0.0019(4)
P1 P5+ 0.0262(9) 0.0216(8) 0.0078(8) 0.0059(7) 0.0028(6) 0.0038(6)
P2 P5+ 0.0173(9) 0.0173(9) 0.0065(14) 0.000 0.000 0.000
O1 O2- 0.032(3) 0.043(3) 0.006(2) -0.009(2) -0.0017(19) 0.001(2)
O2 O2- 0.051(3) 0.017(2) 0.028(3) -0.007(2) 0.011(3) 0.000(2)
O3 O2- 0.040(3) 0.037(3) 0.025(3) -0.005(2) -0.011(3) -0.002(3)
O4 O2- 0.027(3) 0.043(4) 0.074(5) 0.009(3) 0.013(3) 0.003(4)
O5 O2- 0.021(2) 0.029(3) 0.015(2) 0.0027(19) -0.0001(19) 0.007(2)
#End of data_290271-ICSD


