data_245001-ICSD
#?2014 by Fachinformationszentrum Karlsruhe, and the U.S. Secretary of 
#Commerce on behalf of the United States.  All rights reserved.
_database_code_ICSD                245001
_audit_creation_date               2007/04/01
_chemical_name_systematic
;
Trisilver Indium Bis(orthophosphate)
;
_chemical_formula_structural       'Ag3 In (P O4)2'
_chemical_formula_sum              'Ag3 In1 O8 P2'
_publ_section_title
;
Synthesis and crystal structure of three silver indium double 
phosphates
;
loop_
_citation_id
_citation_journal_abbrev
_citation_year
_citation_journal_volume
_citation_page_first
_citation_page_last
_citation_journal_id_ASTM
primary 'Journal of Solid State Chemistry' 2006 179 3664 3671 JSSCBI
_publ_author_name
;
Strelkov, M.A.;Zhizhin, M.G.;Komissarova, L.N.
;
_cell_length_a                     8.7037(1)
_cell_length_b                     5.4885(1)
_cell_length_c                     7.3404(1)
_cell_angle_alpha                  90
_cell_angle_beta                   93.897(1)
_cell_angle_gamma                  90
_cell_volume                       349.84
_cell_formula_units_Z              2
_symmetry_space_group_name_H-M     'C 1 2/m 1'
_symmetry_Int_Tables_number        12
_refine_ls_R_factor_all            .0647
loop_
_symmetry_equiv_pos_site_id
_symmetry_equiv_pos_as_xyz
  1	'-x, y, -z'
  2	'-x, -y, -z'
  3	'x, -y, z'
  4	'x, y, z'
  5	'-x+.5, y+.5, -z'
  6	'-x+.5, -y+.5, -z'
  7	'x+.5, -y+.5, z'
  8	'x+.5, y+.5, z'
loop_
_atom_type_symbol
_atom_type_oxidation_number
Ag1+	1
In3+	3
O2-	-2
P5+	5
loop_
_atom_site_label
_atom_site_type_symbol
_atom_site_symmetry_multiplicity
_atom_site_Wyckoff_symbol
_atom_site_fract_x
_atom_site_fract_y
_atom_site_fract_z
_atom_site_occupancy
_atom_site_attached_hydrogens
_atom_site_B_iso_or_equiv
In1 In3+ 2 a 0 0 0 1. 0 1.97(1) 
Ag1 Ag1+ 4 i 0.1723(2) 0.5 -0.3188(1) 1. 0 2.61(1) 
Ag2 Ag1+ 2 c 0.5 0.5 0.5 1. 0 3.47(1) 
P1 P5+ 4 i 0.1585(2) 0.5 0.2080(2) 1. 0 3.16(2) 
O1 O2- 4 i 0.2536(4) 0.5 0.3972(3) 1. 0 4.74(2) 
O2 O2- 4 i 0.2633(4) 0.5 0.0507(4) 1. 0 2.61(2) 
O3 O2- 8 j 0.0543(3) 0.2819(4) 0.2073(3) 1. 0 3.95(2) 

#End of data_245001-ICSD


