data_165361-ICSD
#?2014 by Fachinformationszentrum Karlsruhe, and the U.S. Secretary of 
#Commerce on behalf of the United States.  All rights reserved.
_database_code_ICSD                165361
_audit_creation_date               2010/02/01
_chemical_name_systematic
;
Dicesium Disilver Hexaselenodiphosphate(V)
;
_chemical_formula_structural       'Cs2 Ag2 (P2 Se6)'
_chemical_formula_sum              'Ag2 Cs2 P2 Se6'
_publ_section_title
;
Synthesis in molten alkali polyselenophosphate fluxes: a new family 
of transition metal selenophosphate compounds, A2 M P2 Se6 (A= K, Rb, 
Cs;  M= Mn, Fe) and A2 M'2 P2 Se6 (A= K, Cs;  M'= Cu, Ag)
;
loop_
_citation_id
_citation_journal_abbrev
_citation_year
_citation_journal_volume
_citation_journal_issue
_citation_page_first
_citation_page_last
_citation_journal_id_ASTM
primary 'Inorganic Chemistry' 1995 34 5 1257 1267 INOCAJ
_publ_author_name                  'McCarthy, T.J.;Kanatzidis, M.G.'
_cell_length_a                     6.807(3)
_cell_length_b                     12.517(3)
_cell_length_c                     8.462(3)
_cell_angle_alpha                  90
_cell_angle_beta                   95.75(3)
_cell_angle_gamma                  90.
_cell_volume                       717.36
_cell_formula_units_Z              2
_symmetry_space_group_name_H-M     'P 1 21/n 1'
_symmetry_Int_Tables_number        14
_refine_ls_R_factor_all            .034
loop_
_symmetry_equiv_pos_site_id
_symmetry_equiv_pos_as_xyz
  1	'-x+.5, y+.5, -z+.5'
  2	'-x, -y, -z'
  3	'x+.5, -y+.5, z+.5'
  4	'x, y, z'
loop_
_atom_type_symbol
_atom_type_oxidation_number
Ag1+	1
Cs1+	1
P4+	4
Se2-	-2
loop_
_atom_site_label
_atom_site_type_symbol
_atom_site_symmetry_multiplicity
_atom_site_Wyckoff_symbol
_atom_site_fract_x
_atom_site_fract_y
_atom_site_fract_z
_atom_site_occupancy
_atom_site_attached_hydrogens
_atom_site_B_iso_or_equiv
Cs1 Cs1+ 4 e 0.2465(2) 0.33282(9) 0.9891(1) 1. 0 2.94(5) 
Ag1 Ag1+ 4 e 0.0405(2) 0.4404(1) 0.3586(2) 1. 0 3.59(7) 
Se1 Se2- 4 e -0.2213(2) 0.1785(1) 0.0414(2) 1. 0 2.50(7) 
Se2 Se2- 4 e 0.2367(2) 0.0923(1) 0.2465(2) 1. 0 2.56(7) 
Se3 Se2- 4 e -0.1806(2) -0.0830(1) 0.2496(2) 1. 0 2.05(6) 
P1 P4+ 4 e -0.0383(6) 0.0403(3) 0.1141(5) 1. 0 1.6(2) 

#End of data_165361-ICSD


