data_21058-ICSD
#?2014 by Fachinformationszentrum Karlsruhe, and the U.S. Secretary of 
#Commerce on behalf of the United States.  All rights reserved.
_database_code_ICSD                21058
_audit_creation_date               1980/01/01
_audit_update_record               1987/06/02
_chemical_name_systematic          'Disodium Lead Oxide'
_chemical_formula_structural       'Na2 Pb O2'
_chemical_formula_sum              'Na2 O2 Pb1'
_publ_section_title
;
Zur Kenntnis ternaerer Oxide des Bleis: ueber Na2 Pb O2
;
loop_
_citation_id
_citation_journal_abbrev
_citation_year
_citation_journal_volume
_citation_page_first
_citation_page_last
_citation_journal_id_ASTM
primary 'Zeitschrift fuer Anorganische und Allgemeine Chemie (1950) (DE)'
 1973 400 219 228 ZAACAB
_publ_author_name                  'Panek, P.;Hoppe, R.'
_cell_length_a                     16.8
_cell_length_b                     6.94
_cell_length_c                     5.88
_cell_angle_alpha                  90.
_cell_angle_beta                   90.
_cell_angle_gamma                  90.
_cell_volume                       685.56
_cell_formula_units_Z              8
_symmetry_space_group_name_H-M     'P b c n'
_symmetry_Int_Tables_number        60
_refine_ls_R_factor_all            .107
loop_
_symmetry_equiv_pos_site_id
_symmetry_equiv_pos_as_xyz
  1	'x, -y, z+.5'
  2	'-x+.5, y+.5, z'
  3	'x+.5, y+.5, -z+.5'
  4	'-x, -y, -z'
  5	'-x, y, -z+.5'
  6	'x+.5, -y+.5, -z'
  7	'-x+.5, -y+.5, z+.5'
  8	'x, y, z'
loop_
_atom_type_symbol
_atom_type_oxidation_number
Na1+	1
O2-	-2
Pb2+	2
loop_
_atom_site_label
_atom_site_type_symbol
_atom_site_symmetry_multiplicity
_atom_site_Wyckoff_symbol
_atom_site_fract_x
_atom_site_fract_y
_atom_site_fract_z
_atom_site_occupancy
_atom_site_attached_hydrogens
_atom_site_B_iso_or_equiv
Pb1 Pb2+ 8 d 0.1634(1) 0.3649(5) 0.0671(3) 1. 0 0.72 
Na1 Na1+ 4 c 0 0.17(1) 0.25 1. 0 1.3 
Na2 Na1+ 4 c 0 0.67(1) 0.25 1. 0 2.4 
Na3 Na1+ 8 d 0.364(1) 0.360(6) 0.083(3) 1. 0 1.3 
O1 O2- 8 d 0.100(2) 0.384(11) 0.380(5) 1. 0 1.5 
O2 O2- 8 d 0.418(2) 0.341(10) 0.433(6) 1. 0 1.2 

#End of data_21058-ICSD


