data_414553-ICSD
#?2014 by Fachinformationszentrum Karlsruhe, and the U.S. Secretary of 
#Commerce on behalf of the United States.  All rights reserved.
_database_code_ICSD                414553
_audit_creation_date               2005/10/01
_audit_update_record               2009/08/01
_chemical_name_systematic
;
Cesium Trialuminiobis(triphosphate)
;
_chemical_formula_structural       'Cs Al3 (P3 O10)2'
_chemical_formula_sum              'Al3 Cs1 O20 P6'
_publ_section_title
;
Two aluminotriphosphates with closely related intersecting tunnel 
structures involving tetrahedral "AlP" chains and layers : A Al3 (P3 
O10)2, A = Rb, Cs
;
loop_
_citation_id
_citation_journal_abbrev
_citation_year
_citation_journal_volume
_citation_page_first
_citation_page_last
_citation_journal_id_ASTM
primary 'Journal of Solid State Chemistry' 2005 178 1212 1220 JSSCBI
_publ_author_name                  'Lesage, J.;Guesdon, A.;Raveau, B.'
_cell_length_a                     10.0048(7)
_cell_length_b                     13.3008(10)
_cell_length_c                     12.1698(7)
_cell_angle_alpha                  90.
_cell_angle_beta                   90.
_cell_angle_gamma                  90.
_cell_volume                       1619.46
_cell_formula_units_Z              4
_symmetry_space_group_name_H-M     'C 2 c b'
_symmetry_Int_Tables_number        41
_refine_ls_R_factor_all            .0482
loop_
_symmetry_equiv_pos_site_id
_symmetry_equiv_pos_as_xyz
  1	'x, -y+.5, z+.5'
  2	'x, y+.5, -z+.5'
  3	'x, -y, -z'
  4	'x, y, z'
  5	'x+.5, -y, z+.5'
  6	'x+.5, y, -z+.5'
  7	'x+.5, -y+.5, -z'
  8	'x+.5, y+.5, z'
loop_
_atom_type_symbol
_atom_type_oxidation_number
Al3+	3
Cs1+	1
O2-	-2
P5+	5
loop_
_atom_site_label
_atom_site_type_symbol
_atom_site_symmetry_multiplicity
_atom_site_Wyckoff_symbol
_atom_site_fract_x
_atom_site_fract_y
_atom_site_fract_z
_atom_site_occupancy
_atom_site_attached_hydrogens
_atom_site_U_iso_or_equiv
Cs1 Cs1+ 4 a 0 0 0 1 0 0.04132(12) 
Al1 Al3+ 4 a 0.38030(10) 0 0 1 0 0.0078(2) 
Al2 Al3+ 8 b 0.04897(8) 0.27177(5) 0.22074(5) 1 0 0.00594(13) 
P1 P5+ 8 b 0.06637(7) 0.18662(4) 0.45755(4) 1 0 0.00696(11) 
P2 P5+ 8 b 0.27095(7) 0.13268(4) 0.30481(4) 1 0 0.00610(10) 
P3 P5+ 8 b 0.30196(7) 0.42303(4) 0.28026(4) 1 0 0.00578(10) 
O1 O2- 8 b 0.4779(2) 0.09478(10) 0.05100(10) 1 0 0.0178(5) 
O2 O2- 8 b 0.0754(2) 0.27257(10) 0.07056(10) 1 0 0.0129(4) 
O3 O2- 8 b 0.0289(2) 0.26411(10) 0.37393(10) 1 0 0.0115(4) 
O4 O2- 8 b 0.2149(2) 0.14669(10) 0.42647(10) 1 0 0.0124(4) 
O5 O2- 8 b 0.4015(2) 0.18446(10) 0.3000(2) 1 0 0.0137(4) 
O6 O2- 8 b 0.1638(2) 0.15673(10) 0.22457(10) 1 0 0.0084(3) 
O7 O2- 8 b 0.2982(2) 0.01604(10) 0.30423(10) 1 0 0.0133(4) 
O8 O2- 8 b 0.2702(2) 0.46579(10) 0.39448(10) 1 0 0.0113(4) 
O9 O2- 8 b 0.1989(2) 0.35296(10) 0.24079(10) 1 0 0.0128(4) 
O10 O2- 8 b 0.4430(2) 0.38607(10) 0.27795(10) 1 0 0.0112(4) 

loop_
_atom_site_aniso_label
_atom_site_aniso_type_symbol
_atom_site_aniso_U_11
_atom_site_aniso_U_22
_atom_site_aniso_U_33
_atom_site_aniso_U_12
_atom_site_aniso_U_13
_atom_site_aniso_U_23
Cs1 Cs1+ 0.01189(9) 0.0908(3) 0.02131(11) 0 0 -0.00353(16)
Al1 Al3+ 0.0079(4) 0.0091(3) 0.0063(3) 0 0 0.0000(3)
Al2 Al3+ 0.0058(3) 0.0069(2) 0.0051(2) 0.00014(20) -0.0003(2) 0.00013(19)
P1 P5+ 0.0077(2) 0.00843(17) 0.00473(18) -0.00022(18) 0.00093(17) 
-0.00005(16)
P2 P5+ 0.00559(18) 0.00580(16) 0.00689(19) 0.00030(16) 0.00015(16) 
-0.00048(15)
P3 P5+ 0.00534(19) 0.00540(15) 0.00661(18) -0.00038(15) -0.00060(16) 
0.00001(15)
O1 O2- 0.0227(10) 0.0156(7) 0.0152(7) -0.0125(7) -0.0030(7) 0.0006(6)
O2 O2- 0.0162(8) 0.0165(7) 0.0059(6) 0.0014(6) 0.0012(6) 0.0012(5)
O3 O2- 0.0160(7) 0.0120(6) 0.0065(6) 0.0051(6) 0.0018(5) 0.0015(5)
O4 O2- 0.0097(7) 0.0202(8) 0.0074(6) 0.0059(6) 0.0007(5) -0.0003(6)
O5 O2- 0.0076(6) 0.0148(7) 0.0187(8) -0.0046(6) 0.0003(6) 0.0016(6)
O6 O2- 0.0089(6) 0.0081(5) 0.0082(6) 0.0025(5) -0.0017(5) -0.0008(5)
O7 O2- 0.0215(9) 0.0058(5) 0.0125(6) 0.0039(5) -0.0055(7) -0.0028(5)
O8 O2- 0.0110(7) 0.0153(6) 0.0075(6) -0.0007(6) 0.0004(5) -0.0040(5)
O9 O2- 0.0089(7) 0.0119(6) 0.0176(7) -0.0030(6) -0.0023(6) -0.0031(5)
O10 O2- 0.0064(6) 0.0097(6) 0.0175(7) 0.0026(5) -0.0008(6) -0.0018(5)
#End of data_414553-ICSD


