data_34074-ICSD
#?2014 by Fachinformationszentrum Karlsruhe, and the U.S. Secretary of 
#Commerce on behalf of the United States.  All rights reserved.
_database_code_ICSD                34074
_audit_creation_date               1980/01/01
_audit_update_record               2006/04/01
_chemical_name_systematic          'Magnesium Catena-silicate'
_chemical_formula_structural       'Mg (Si O3)'
_chemical_formula_sum              'Mg1 O3 Si1'
_chemical_name_mineral             'Hypersthene, aluminian'
_publ_section_title
;
Rasiredelenie alyuminiya n kristallicheskaya strukture vysokoglino 
zemisgogo giperctena
;
loop_
_citation_id
_citation_journal_abbrev
_citation_year
_citation_journal_volume
_citation_page_first
_citation_page_last
_citation_journal_id_ASTM
primary 'Doklady Akademii Nauk SSSR' 1975 223 192 195 DANKAS
2 'Golden Book of Phase Transitions, Wroclaw' 2002 1 1 123 GBOPT5
_publ_author_name
;
Brovkin, A.A.;Novoselov, Yu.M.;Kicul, B.I.
;
_cell_length_a                     18.220(50)
_cell_length_b                     8.765(3)
_cell_length_c                     5.188(1)
_cell_angle_alpha                  90.
_cell_angle_beta                   90.
_cell_angle_gamma                  90.
_cell_volume                       828.51
_cell_formula_units_Z              16
_symmetry_space_group_name_H-M     'P b c a'
_symmetry_Int_Tables_number        61
_refine_ls_R_factor_all            .068
loop_
_symmetry_equiv_pos_site_id
_symmetry_equiv_pos_as_xyz
  1	'x+.5, y, -z+.5'
  2	'x, -y+.5, z+.5'
  3	'-x+.5, y+.5, z'
  4	'-x, -y, -z'
  5	'-x+.5, -y, z+.5'
  6	'-x, y+.5, -z+.5'
  7	'x+.5, -y+.5, -z'
  8	'x, y, z'
loop_
_atom_type_symbol
_atom_type_oxidation_number
Mg2+	2
O2-	-2
Si4+	4
loop_
_atom_site_label
_atom_site_type_symbol
_atom_site_symmetry_multiplicity
_atom_site_Wyckoff_symbol
_atom_site_fract_x
_atom_site_fract_y
_atom_site_fract_z
_atom_site_occupancy
_atom_site_attached_hydrogens
_atom_site_B_iso_or_equiv
Si1 Si4+ 8 c 0.2711(1) 0.3418(3) 0.0447(6) 1. 0 0.21(3) 
Si2 Si4+ 8 c 0.4731(1) 0.3367(3) 0.8059(6) 1. 0 0.38(3) 
Mg1 Mg2+ 8 c 0.3760(2) 0.6534(3) 0.8613(7) 1. 0 0.43(4) 
Mg2 Mg2+ 8 c 0.3800(1) 0.4818(2) 0.3542(6) 1. 0 0.44(4) 
O1 O2- 8 c 0.1825(3) 0.3382(7) 0.0324(17) 1. 0 0.57(10) 
O2 O2- 8 c 0.3106(3) 0.5047(7) 0.0416(17) 1. 0 0.52(10) 
O3 O2- 8 c 0.3027(3) 0.2261(7) 0.8234(17) 1. 0 0.63(10) 
O4 O2- 8 c 0.5636(3) 0.3366(8) 0.8085(17) 1. 0 0.58(19) 
O5 O2- 8 c 0.4326(4) 0.4858(8) 0.6908(18) 1. 0 0.82(11) 
O6 O2- 8 c 0.4466(4) 0.1908(7) 0.6128(17) 1. 0 0.60(11) 

#End of data_34074-ICSD


