data_83226-ICSD
#?2014 by Fachinformationszentrum Karlsruhe, and the U.S. Secretary of 
#Commerce on behalf of the United States.  All rights reserved.
_database_code_ICSD                83226
_audit_creation_date               1998/06/26
_chemical_name_systematic          'Dipotassium Magnesium Silicate'
_chemical_formula_structural       'K2 Mg (Si O4)'
_chemical_formula_sum              'K2 Mg1 O4 Si1'
_publ_section_title
;
X-ray powder diffraction study of K2 M Si O4, M= Mg, Zn, Co, Cd
;
loop_
_citation_id
_citation_journal_abbrev
_citation_year
_citation_journal_volume
_citation_journal_issue
_citation_page_first
_citation_page_last
_citation_journal_id_ASTM
primary 'Powder Diffraction' 1996 11 1 51 55 PODIE2
_publ_author_name                  'Dollase, W.A.'
_cell_length_a                     10.994(2)
_cell_length_b                     5.473(1)
_cell_length_c                     15.561(3)
_cell_angle_alpha                  90.
_cell_angle_beta                   90.
_cell_angle_gamma                  90.
_cell_volume                       936.31
_cell_formula_units_Z              8
_symmetry_space_group_name_H-M     'P c a 21'
_symmetry_Int_Tables_number        29
_refine_ls_R_factor_all            .049
loop_
_symmetry_equiv_pos_site_id
_symmetry_equiv_pos_as_xyz
  1	'x+.5, -y, z'
  2	'-x+.5, y, z+.5'
  3	'-x, -y, z+.5'
  4	'x, y, z'
loop_
_atom_type_symbol
_atom_type_oxidation_number
K1+	1
Mg2+	2
O2-	-2
Si4+	4
loop_
_atom_site_label
_atom_site_type_symbol
_atom_site_symmetry_multiplicity
_atom_site_Wyckoff_symbol
_atom_site_fract_x
_atom_site_fract_y
_atom_site_fract_z
_atom_site_occupancy
_atom_site_attached_hydrogens
_atom_site_B_iso_or_equiv
K1 K1+ 4 a 0.0096(10) 0.5087(20) 0.9366(7) 1. 0 1.4(2) 
K2 K1+ 4 a 0.2611(10) 0.5455(20) 0.8157(7) 1. 0 1.4(2) 
K3 K1+ 4 a -.0096(10) -.0087(20) 0.0634(7) 1. 0 1.4(2) 
K4 K1+ 4 a 0.7389(10) -.0455(20) 0.1843(7) 1. 0 1.4(2) 
Mg1 Mg2+ 4 a 0.0092(13) 0.9982(27) 0.8096(10) 1. 0 1.8(4) 
Mg2 Mg2+ 4 a 0.7408(13) 0.4704(27) 0.0632(10) 1. 0 1.8(4) 
Si1 Si4+ 4 a 0.9908(13) 0.5018(27) 0.1904(10) 1. 0 1.8(4) 
Si2 Si4+ 4 a 0.2592(13) 0.0296(27) 0.9368(10) 1. 0 1.8(4) 
O1 O2- 4 a 0.2819(25) 0.3166(51) 0.9855(18) 1. 0 2.9(5) 
O2 O2- 4 a 0.4018(25) 0.9262(51) 0.8885(18) 1. 0 2.9(5) 
O3 O2- 4 a 0.1519(25) 0.0615(51) 0.8524(18) 1. 0 2.9(5) 
O4 O2- 4 a 0.9853(25) 0.6993(51) 0.7835(18) 1. 0 2.9(5) 
O5 O2- 4 a 0.7181(25) 0.1834(51) 0.0145(18) 1. 0 2.9(5) 
O6 O2- 4 a 0.5982(25) 0.5738(51) 0.1115(18) 1. 0 2.9(5) 
O7 O2- 4 a 0.8481(25) 0.4385(51) 0.1476(18) 1. 0 2.9(5) 
O8 O2- 4 a 0.0147(25) 0.8007(51) 0.2165(18) 1. 0 2.9(5) 

#End of data_83226-ICSD


