data_47101-ICSD
#?2014 by Fachinformationszentrum Karlsruhe, and the U.S. Secretary of 
#Commerce on behalf of the United States.  All rights reserved.
_database_code_ICSD                47101
_audit_creation_date               1985/02/12
_chemical_name_systematic          'Sodium Tetraoxomanganate(III)'
_chemical_formula_structural       'Na5 (Mn O4)'
_chemical_formula_sum              'Mn1 Na5 O4'
_publ_section_title
;
Das erste Oxomanganat(III) mit Inselstruktur: Zur Kenntnis von Na5 
(Mn O4)
;
loop_
_citation_id
_citation_journal_abbrev
_citation_year
_citation_journal_volume
_citation_page_first
_citation_page_last
_citation_journal_id_ASTM
primary 'Zeitschrift fuer Anorganische und Allgemeine Chemie (1950) (DE)'
 1984 515 101 113 ZAACAB
_publ_author_name                  'Brachtel, G.;Bukovec, N.;Hoppe, R.'
_cell_length_a                     5.882(1)
_cell_length_b                     7.769(2)
_cell_length_c                     6.005(2)
_cell_angle_alpha                  90.
_cell_angle_beta                   90.
_cell_angle_gamma                  90.
_cell_volume                       274.41
_cell_formula_units_Z              2
_symmetry_space_group_name_H-M     'P 21 m n'
_symmetry_Int_Tables_number        31
_refine_ls_R_factor_all            .03
loop_
_symmetry_equiv_pos_site_id
_symmetry_equiv_pos_as_xyz
  1	'x+.5, y+.5, -z'
  2	'x+.5, -y+.5, -z'
  3	'x, -y, z'
  4	'x, y, z'
loop_
_atom_type_symbol
_atom_type_oxidation_number
Mn3+	3
Na1+	1
O2-	-2
loop_
_atom_site_label
_atom_site_type_symbol
_atom_site_symmetry_multiplicity
_atom_site_Wyckoff_symbol
_atom_site_fract_x
_atom_site_fract_y
_atom_site_fract_z
_atom_site_occupancy
_atom_site_attached_hydrogens
Na1 Na1+ 4 b 0.5643(4) 0.1794(3) 0.0715(3) 1. 0 
Na2 Na1+ 4 b 0.2527(5) 0.3020(3) 0.3927(3) 1. 0 
Na3 Na1+ 2 a 0.2623(6) 0 0.6767(5) 1. 0 
Mn1 Mn3+ 2 a 0 0 0.1732(1) 1. 0 
O1 O2- 2 a 0.3094(9) 0 0.2803(7) 1. 0 
O2 O2- 2 a 0.8865(9) 0 0.8753(7) 1. 0 
O3 O2- 4 b 0.4076(7) 0.2777(4) 0.7415(5) 1. 0 

loop_
_atom_site_aniso_label
_atom_site_aniso_type_symbol
_atom_site_aniso_U_11
_atom_site_aniso_U_22
_atom_site_aniso_U_33
_atom_site_aniso_U_12
_atom_site_aniso_U_13
_atom_site_aniso_U_23
Na1 Na1+ 0.0154(6) 0.0179(7) 0.0134(6) -.0021(7) -.0041(7) 0.0039(7)
Na2 Na1+ 0.0140(5) 0.0163(7) 0.0117(6) -.0047(8) -.0045(7) 0.0022(6)
Na3 Na1+ 0.0134(6) 0.0121(9) 0.0144(10) 0 -.0002(11) 0
Mn1 Mn3+ 0.0058(3) 0.0055(2) 0.0061(2) 0 -.0010(14) 0
O1 O2- 0.0101(8) 0.0108(14) 0.0098(14) 0 -.0010(14) 0
O2 O2- 0.0111(8) 0.0137(14) 0.0083(13) 0 -.0030(14) 0
O3 O2- 0.0088(6) 0.008(1) 0.0094(9) -.0012(11) -.0008(10) -.0014(9)
#End of data_47101-ICSD


