data_63248-ICSD
#?2014 by Fachinformationszentrum Karlsruhe, and the U.S. Secretary of 
#Commerce on behalf of the United States.  All rights reserved.
_database_code_ICSD                63248
_audit_creation_date               1989/12/04
_audit_update_record               1998/06/29
_chemical_name_systematic
;
Manganese Dialuminium Hexaaqua Bis(phosphate) Dihydroxide Dihydrate
;
_chemical_formula_structural
;
Mn Al2 ((P O4)2 (O H)2 (H2 O)6) (H2 O)2
;
_chemical_formula_sum              'H18 Al2 Mn1 O18 P2'
_chemical_name_mineral             Mangangordonite
_publ_section_title
;
Crystal structures of Gordonite, Mg Al2 (P O4)2 (O H)2 (H2 O)6 (H2 
O)2, and its Mn analog
;
loop_
_citation_id
_citation_journal_abbrev
_citation_year
_citation_journal_volume
_citation_page_first
_citation_page_last
_citation_journal_id_ASTM
primary 'Neues Jahrbuch fuer Mineralogie. Monatshefte (Band=Jahr) (1950-)'
 1988 6 265 270 NJMMAW
_publ_author_name                  'Leavens, P.B.;Rheingold, A.L.'
_cell_length_a                     5.257(3)
_cell_length_b                     10.363(4)
_cell_length_c                     7.040(3)
_cell_angle_alpha                  105.44(3)
_cell_angle_beta                   113.07(3)
_cell_angle_gamma                  78.69(4)
_cell_volume                       338.29
_cell_formula_units_Z              1
_symmetry_space_group_name_H-M     'P -1'
_symmetry_Int_Tables_number        2
_refine_ls_R_factor_all            .037
loop_
_symmetry_equiv_pos_site_id
_symmetry_equiv_pos_as_xyz
  1	'-x, -y, -z'
  2	'x, y, z'
loop_
_atom_type_symbol
_atom_type_oxidation_number
Al3+	3
H1+	1
Mn2+	2
O2-	-2
P5+	5
loop_
_atom_site_label
_atom_site_type_symbol
_atom_site_symmetry_multiplicity
_atom_site_Wyckoff_symbol
_atom_site_fract_x
_atom_site_fract_y
_atom_site_fract_z
_atom_site_occupancy
_atom_site_attached_hydrogens
_atom_site_U_iso_or_equiv
Mn1 Mn2+ 1 a 0 0 0 1. 0 0 
Al1 Al3+ 1 c 0 0.5 0 1. 0 0 
Al2 Al3+ 1 g 0 0.5 0.5 1. 0 0 
P1 P5+ 2 i 0.3458(2) 0.6651(1) 0.9241(1) 1. 0 0 
O1 O2- 2 i 0.1673(5) 0.6472(2) 0.0442(4) 1. 0 0 
O2 O2- 2 i 0.2943(5) 0.5755(2) 0.7032(4) 1. 0 0 
O3 O2- 2 i 0.2741(5) 0.8131(2) 0.9094(4) 1. 0 0 
O4 O2- 2 i 0.3400(4) 0.3730(2) 0.9094(4) 1. 0 0 
O5 O2- 2 i 0.1406(5) 0.5033(3) 0.2905(3) 1. 0 0 
O6 O2- 2 i 0.2291(5) 0.3200(3) 0.5415(4) 1. 0 0 
O7 O2- 2 i 0.2419(7) 0.0115(4) 0.3285(5) 1. 0 0 
O8 O2- 2 i 0.2239(6) 0.1116(3) 0.9338(6) 1. 0 0 
O9 O2- 2 i 0.2677(6) 0.8020(3) 0.5052(5) 1. 0 0 
H1 H1+ 2 i 0.32(1) 0.49(1) 0.33(1) 1. 0 0.032(13) 
H2 H1+ 2 i 0.30(3) 0.30(1) 0.64(2) 1. 0 0.179(42) 
H3 H1+ 2 i 0.38(1) 0.30(1) 0.64(2) 1. 0 0.030(13) 
H4 H1+ 2 i 0.20(1) 0.08(1) 0.39(1) 1. 0 0.091(23) 
H5 H1+ 2 i 0.21(1) 0.95(1) 0.38(1) 1. 0 0.095(25) 
H6 H1+ 2 i 0.12(1) 0.19(1) 0.93(1) 1. 0 0.026(11) 
H7 H1+ 2 i 0.37(1) 0.12(1) 0.01(1) 1. 0 0.065(20) 
H8 H1+ 2 i 0.25(1) 0.83(1) 0.63(1) 1. 0 0.045(15) 
H9 H1+ 2 i 0.08(2) 0.78(1) 0.42(1) 1. 0 0.127(30) 

loop_
_atom_site_aniso_label
_atom_site_aniso_type_symbol
_atom_site_aniso_U_11
_atom_site_aniso_U_22
_atom_site_aniso_U_33
_atom_site_aniso_U_12
_atom_site_aniso_U_13
_atom_site_aniso_U_23
Mn1 Mn2+ 0.014(1) 0.012(1) 0.023(1) -.002(1) 0.006(1) 0.003(1)
Al1 Al3+ 0.005(1) 0.007(1) 0.005(1) -.003(1) 0.001(1) 0.000(1)
Al2 Al3+ 0.007(1) 0.009(1) 0.005(1) -.003(1) 0.002(1) 0.000(1)
P1 P5+ 0.007(1) 0.010(1) 0.011(1) -.003(1) 0.002(1) 0.002(1)
O1 O2- 0.010(1) 0.012(1) 0.011(1) -.004(1) 0.005(1) 0.000(1)
O2 O2- 0.012(1) 0.011(1) 0.019(1) -.002(1) 0.006(1) 0.004(1)
O3 O2- 0.014(1) 0.011(1) 0.019(1) -.002(1) 0.006(1) 0.004(1)
O4 O2- 0.007(1) 0.014(1) 0.011(1) -.004(1) 0.002(1) 0.002(1)
O5 O2- 0.008(1) 0.018(1) 0.008(1) -.005(1) 0.002(1) 0.003(1)
O6 O2- 0.016(1) 0.018(1) 0.010(1) -.004(1) 0.003(1) 0.002(1)
O7 O2- 0.032(1) 0.034(2) 0.031(2) -.009(1) -.004(1) 0.008(1)
O8 O2- 0.017(1) 0.017(1) 0.062(2) -.002(1) 0.016(1) 0.011(1)
O9 O2- 0.028(1) 0.034(2) 0.024(1) -.005(1) 0.012(1) 0.010(1)
#End of data_63248-ICSD


