data_24789-ICSD
#?2014 by Fachinformationszentrum Karlsruhe, and the U.S. Secretary of 
#Commerce on behalf of the United States.  All rights reserved.
_database_code_ICSD                24789
_audit_creation_date               1980/01/01
_chemical_name_systematic          'Dimagnesium Diborate'
_chemical_formula_structural       'Mg2 B2 O5'
_chemical_formula_sum              'B2 Mg2 O5'
_publ_section_title
;
Refinement of the Crystal Structure of Triclinic Magnesium Pyroborate
;
loop_
_citation_id
_citation_journal_abbrev
_citation_year
_citation_journal_volume
_citation_page_first
_citation_page_last
_citation_journal_id_ASTM
primary 'Journal of Research of the National Bureau of Standards'
 1959 62 95 100 JRNBAG
_publ_author_name
;
Block, S.;Burley, G.;Perloff, A.;Mason, R.D.
;
_cell_length_a                     6.187
_cell_length_b                     9.219
_cell_length_c                     3.119
_cell_angle_alpha                  90.4
_cell_angle_beta                   92.13
_cell_angle_gamma                  104.32
_cell_volume                       172.23
_cell_formula_units_Z              2
_symmetry_space_group_name_H-M     'P -1'
_symmetry_Int_Tables_number        2
_refine_ls_R_factor_all            .123
loop_
_symmetry_equiv_pos_site_id
_symmetry_equiv_pos_as_xyz
  1	'-x, -y, -z'
  2	'x, y, z'
loop_
_atom_type_symbol
_atom_type_oxidation_number
B3+	3
Mg2+	2
O2-	-2
loop_
_atom_site_label
_atom_site_type_symbol
_atom_site_symmetry_multiplicity
_atom_site_Wyckoff_symbol
_atom_site_fract_x
_atom_site_fract_y
_atom_site_fract_z
_atom_site_occupancy
_atom_site_attached_hydrogens
_atom_site_B_iso_or_equiv
Mg1 Mg2+ 2 i 0.2105 0.3562 0.7264 1. 0 0.7 
Mg2 Mg2+ 2 i 0.3724 0.1026 0.2345 1. 0 0.68 
B1 B3+ 2 i 0.6836 0.3538 0.6997 1. 0 0.33 
B2 B3+ 2 i 0.8814 0.1708 0.3392 1. 0 0.37 
O1 O2- 2 i 0.6972 0.0511 0.2631 1. 0 0.89 
O2 O2- 2 i 0.0931 0.1784 0.2263 1. 0 0.89 
O3 O2- 2 i 0.4782 0.2595 0.7376 1. 0 0.79 
O4 O2- 2 i 0.8633 0.2995 0.5604 1. 0 0.97 
O5 O2- 2 i 0.7224 0.5077 0.7709 1. 0 0.78 

#End of data_24789-ICSD


