data_416585-ICSD
#?2014 by Fachinformationszentrum Karlsruhe, and the U.S. Secretary of 
#Commerce on behalf of the United States.  All rights reserved.
_database_code_ICSD                416585
_audit_creation_date               2008/02/01
_chemical_name_systematic          'Trisilver Tetrathiophosphate'
_chemical_formula_structural       'Ag3 P S4'
_chemical_formula_sum              'Ag3 P1 S4'
_publ_section_title
;
Ag5 P S4 Cl2 and Ag15 (P S4)4 Cl3 - crystal structures and their 
relation to Ag3 P S4
;
loop_
_citation_id
_citation_journal_abbrev
_citation_year
_citation_journal_volume
_citation_journal_issue
_citation_page_first
_citation_page_last
_citation_journal_id_ASTM
primary 'Solid State Sciences' 2007 9 2 213 217 SSSCFJ
_publ_author_name                  'Joergens, S.;Mewis, A.'
_cell_length_a                     7.647(3)
_cell_length_b                     6.858(2)
_cell_length_c                     6.5060(10)
_cell_angle_alpha                  90.
_cell_angle_beta                   90.
_cell_angle_gamma                  90.
_cell_volume                       341.19
_cell_formula_units_Z              2
_symmetry_space_group_name_H-M     'P m n 21'
_symmetry_Int_Tables_number        31
_refine_ls_R_factor_all            .0435
loop_
_symmetry_equiv_pos_site_id
_symmetry_equiv_pos_as_xyz
  1	'x+.5, -y, z+.5'
  2	'-x+.5, -y, z+.5'
  3	'-x, y, z'
  4	'x, y, z'
loop_
_atom_type_symbol
_atom_type_oxidation_number
Ag1+	1
P5+	5
S2-	-2
loop_
_atom_site_label
_atom_site_type_symbol
_atom_site_symmetry_multiplicity
_atom_site_Wyckoff_symbol
_atom_site_fract_x
_atom_site_fract_y
_atom_site_fract_z
_atom_site_occupancy
_atom_site_attached_hydrogens
_atom_site_U_iso_or_equiv
Ag1 Ag1+ 2 a 0.0000 0.6450(2) 0.1202(2) 1 0 0.0519(4) 
Ag2 Ag1+ 4 b 0.72864(12) 0.20168(12) 0.07035(13) 1 0 0.0449(3) 
P1 P5+ 2 a 0.0000 0.3052(3) 0.5958(4) 1 0 0.0141(4) 
S1 S2- 2 a 0.0000 0.3068(5) 0.2818(4) 1 0 0.0279(6) 
S2 S2- 2 a 0.0000 0.5781(4) 0.7234(4) 1 0 0.0260(6) 
S3 S2- 4 b 0.7193(3) 0.8426(3) 0.1926(3) 1 0 0.0251(4) 

loop_
_atom_site_aniso_label
_atom_site_aniso_type_symbol
_atom_site_aniso_U_11
_atom_site_aniso_U_22
_atom_site_aniso_U_33
_atom_site_aniso_U_12
_atom_site_aniso_U_13
_atom_site_aniso_U_23
Ag1 Ag1+ 0.0486(8) 0.0575(8) 0.0496(8) 0.000 0.000 0.0116(6)
Ag2 Ag1+ 0.0546(6) 0.0433(5) 0.0367(4) -0.0012(4) 0.0043(4) -0.0040(4)
P1 P5+ 0.0155(11) 0.0147(10) 0.0120(11) 0.000 0.000 -0.0011(8)
S1 S2- 0.0323(16) 0.0369(16) 0.0144(10) 0.000 0.000 -0.0003(10)
S2 S2- 0.0320(16) 0.0211(13) 0.0249(12) 0.000 0.000 -0.0044(9)
S3 S2- 0.0257(11) 0.0257(9) 0.0240(8) -0.0054(8) -0.0059(7) 0.0007(7)
#End of data_416585-ICSD


