data_422491-ICSD
#?2014 by Fachinformationszentrum Karlsruhe, and the U.S. Secretary of 
#Commerce on behalf of the United States.  All rights reserved.
_database_code_ICSD                422491
_audit_creation_date               2013/02/01
_chemical_name_systematic
;
Dipotassium Silicium Tris(disulfate(VI))
;
_chemical_formula_structural       'K2 (Si (S2 O7)3)'
_chemical_formula_sum              'K2 O21 S6 Si1'
_publ_section_title
;
New compounds bearing [M (S2 O7)3](2-) anions (M = Si, Ge, Sn): 
Syntheses and characterization of A2 [Si (S2 O7)3] (A = Na, K, Rb), 
A2 [Ge (S2 O7)3] (A = Li, Na, K, Rb, Cs), A2 [Sn (S2 O7)3] (A = Na, 
K), and the unique germanate Hg2 [Ge (S2 O7)3] Cl2 with
;
loop_
_citation_id
_citation_journal_abbrev
_citation_year
_citation_journal_volume
_citation_journal_issue
_citation_page_first
_citation_page_last
_citation_journal_id_ASTM
primary 'Zeitschrift fuer Anorganische und Allgemeine Chemie (1950) (DE)'
 2012 638 12-13 2053 2061 ZAACAB
_publ_author_name
;
Logemann, C.;Witt, J.;Gunzelmann, D.;Senker, J.;Wickleder, M.S.
;
_cell_length_a                     10.8593(8)
_cell_length_b                     9.3883(4)
_cell_length_c                     16.3927(13)
_cell_angle_alpha                  90.00
_cell_angle_beta                   92.345(9)
_cell_angle_gamma                  90.00
_cell_volume                       1669.84
_cell_formula_units_Z              4
_symmetry_space_group_name_H-M     'P 1 21/n 1'
_symmetry_Int_Tables_number        14
_refine_ls_R_factor_all            .0587
loop_
_symmetry_equiv_pos_site_id
_symmetry_equiv_pos_as_xyz
  1	'-x+.5, y+.5, -z+.5'
  2	'-x, -y, -z'
  3	'x+.5, -y+.5, z+.5'
  4	'x, y, z'
loop_
_atom_type_symbol
_atom_type_oxidation_number
K1+	1
O2-	-2
S6+	6
Si4+	4
loop_
_atom_site_label
_atom_site_type_symbol
_atom_site_symmetry_multiplicity
_atom_site_Wyckoff_symbol
_atom_site_fract_x
_atom_site_fract_y
_atom_site_fract_z
_atom_site_occupancy
_atom_site_attached_hydrogens
_atom_site_U_iso_or_equiv
K1 K1+ 4 e 0.93791(10) 0.00717(12) 0.13948(7) 1 0 0.0329(3) 
S1 S6+ 4 e 0.64571(10) 0.25601(13) 0.10468(7) 1 0 0.0268(3) 
K2 K1+ 4 e 0.40397(9) -0.00413(11) 0.18448(7) 1 0 0.0319(3) 
S2 S6+ 4 e 1.17127(10) -0.28110(13) 0.11888(7) 1 0 0.0264(3) 
S3 S6+ 4 e 0.65855(10) -0.07790(14) 0.32739(7) 1 0 0.0295(3) 
S4 S6+ 4 e 1.17085(10) 0.21196(12) 0.05361(7) 1 0 0.0249(3) 
Si1 Si4+ 4 e 0.76721(11) -0.00101(13) 0.49697(7) 1 0 0.0234(3) 
S5 S6+ 4 e 1.13396(10) 0.03449(13) 0.32965(6) 1 0 0.0253(3) 
O1 O2- 4 e 1.2173(3) -0.0486(4) 0.2850(2) 1 0 0.0339(8) 
O2 O2- 4 e 1.1695(3) 0.3680(4) 0.0350(2) 1 0 0.0286(7) 
O3 O2- 4 e 1.1298(3) -0.0122(3) 0.41695(19) 1 0 0.0271(7) 
O4 O2- 4 e 0.5272(3) 0.2217(4) 0.1309(2) 1 0 0.0368(8) 
O5 O2- 4 e 1.1725(3) -0.3725(4) 0.0441(2) 1 0 0.0313(8) 
O6 O2- 4 e 1.2999(3) 0.1585(4) 0.0164(2) 1 0 0.0291(7) 
O7 O2- 4 e 1.0133(3) 0.0590(4) 0.2973(2) 1 0 0.0356(8) 
O8 O2- 4 e 0.6660(3) -0.0123(4) 0.4107(2) 1 0 0.0297(8) 
O9 O2- 4 e 1.1885(3) 0.1829(4) 0.1375(2) 1 0 0.0323(8) 
O10 O2- 4 e 0.6387(3) -0.3757(4) 0.0508(2) 1 0 0.0288(7) 
O11 O2- 4 e 0.7931(3) -0.1525(4) 0.32067(19) 1 0 0.0304(7) 
O12 O2- 4 e 0.7287(3) 0.1462(4) 0.0846(2) 1 0 0.0345(8) 
O13 O2- 4 e 1.1730(3) -0.1349(4) 0.0997(2) 1 0 0.0379(9) 
O14 O2- 4 e 0.5387(3) -0.1558(4) 0.0783(2) 1 0 0.0392(9) 
O15 O2- 4 e 0.6568(4) 0.0247(5) 0.2657(2) 1 0 0.0494(11) 
O16 O2- 4 e 1.0842(3) -0.3314(5) 0.1742(2) 1 0 0.0429(9) 
O17 O2- 4 e 1.3092(3) -0.3058(3) 0.1607(2) 1 0 0.0271(7) 
O18 O2- 4 e 0.6340(3) 0.3661(4) 0.0377(2) 1 0 0.0300(8) 
O19 O2- 4 e 1.0721(3) 0.1437(4) 0.0097(2) 1 0 0.0331(8) 
O20 O2- 4 e 0.7526(3) -0.1972(4) 0.1292(2) 1 0 0.0313(7) 
O21 O2- 4 e 0.5686(3) -0.1864(5) 0.3234(3) 1 0 0.0516(11) 
S6 S6+ 4 e 0.65555(10) -0.22049(13) 0.07022(7) 1 0 0.0272(3) 

loop_
_atom_site_aniso_label
_atom_site_aniso_type_symbol
_atom_site_aniso_U_11
_atom_site_aniso_U_22
_atom_site_aniso_U_33
_atom_site_aniso_U_12
_atom_site_aniso_U_13
_atom_site_aniso_U_23
K1 K1+ 0.0304(5) 0.0341(6) 0.0338(6) -0.0014(4) -0.0010(4) -0.0036(4)
S1 S6+ 0.0274(5) 0.0241(6) 0.0286(6) -0.0021(4) -0.0008(4) 0.0042(5)
K2 K1+ 0.0292(5) 0.0326(6) 0.0344(6) -0.0026(4) 0.0070(4) -0.0037(4)
S2 S6+ 0.0260(5) 0.0259(6) 0.0272(6) 0.0024(4) 0.0017(4) -0.0020(4)
S3 S6+ 0.0295(6) 0.0325(7) 0.0260(6) 0.0040(5) -0.0041(4) -0.0034(5)
S4 S6+ 0.0261(5) 0.0229(6) 0.0259(6) -0.0011(4) 0.0017(4) 0.0023(4)
Si1 Si4+ 0.0275(6) 0.0195(7) 0.0231(7) 0.0008(4) 0.0007(5) -0.0002(4)
S5 S6+ 0.0271(6) 0.0275(6) 0.0213(6) -0.0026(4) 0.0006(4) -0.0001(4)
O1 O2- 0.0433(19) 0.0294(19) 0.0293(17) -0.0028(15) 0.0072(14) -0.0028(15)
O2 O2- 0.0305(16) 0.0232(18) 0.0328(17) 0.0004(13) 0.0083(13) 0.0026(14)
O3 O2- 0.0307(17) 0.0276(18) 0.0230(16) -0.0065(13) 0.0010(13) -0.0009(13)
O4 O2- 0.0282(17) 0.039(2) 0.044(2) -0.0054(14) -0.0004(15) 0.0067(17)
O5 O2- 0.0318(16) 0.0272(19) 0.0343(18) 0.0064(13) -0.0063(13) -0.0061(14)
O6 O2- 0.0277(15) 0.0283(18) 0.0315(17) 0.0021(13) 0.0031(13) 0.0009(15)
O7 O2- 0.0315(17) 0.041(2) 0.0336(18) -0.0055(15) -0.0034(14) 0.0047(16)
O8 O2- 0.0326(17) 0.032(2) 0.0246(17) 0.0089(13) -0.0023(13) -0.0012(13)
O9 O2- 0.0386(18) 0.0305(19) 0.0279(17) 0.0020(14) 0.0009(14) 0.0023(15)
O10 O2- 0.0289(16) 0.0276(19) 0.0304(17) -0.0028(13) 0.0082(13) -0.0051(14)
O11 O2- 0.0318(16) 0.034(2) 0.0249(16) 0.0035(14) 0.0017(13) -0.0021(14)
O12 O2- 0.0420(18) 0.0254(18) 0.0358(19) 0.0026(15) -0.0011(15) 0.0000(15)
O13 O2- 0.047(2) 0.0251(19) 0.041(2) 0.0051(15) -0.0103(16) -0.0014(16)
O14 O2- 0.0324(18) 0.041(2) 0.045(2) 0.0029(15) 0.0113(15) -0.0042(17)
O15 O2- 0.065(3) 0.055(3) 0.0283(19) 0.025(2) 0.0030(17) 0.0072(18)
O16 O2- 0.0307(18) 0.065(3) 0.0331(19) 0.0007(17) 0.0069(14) 0.0051(19)
O17 O2- 0.0274(15) 0.0255(18) 0.0283(16) 0.0005(13) 0.0005(12) -0.0028(13)
O18 O2- 0.0306(16) 0.0294(19) 0.0295(17) -0.0066(14) -0.0053(13) 0.0064(14)
O19 O2- 0.0298(17) 0.033(2) 0.0361(19) -0.0058(14) 0.0003(14) -0.0056(15)
O20 O2- 0.0386(18) 0.0294(19) 0.0258(16) -0.0045(14) 0.0011(13) -0.0019(14)
O21 O2- 0.0293(18) 0.045(2) 0.080(3) -0.0008(16) -0.0053(19) -0.022(2)
S6 S6+ 0.0285(6) 0.0248(6) 0.0286(6) -0.0012(4) 0.0046(4) -0.0053(5)
#End of data_422491-ICSD


