data_200897-ICSD
#?2014 by Fachinformationszentrum Karlsruhe, and the U.S. Secretary of 
#Commerce on behalf of the United States.  All rights reserved.
_database_code_ICSD                200897
_audit_creation_date               1981/12/31
_audit_update_record               2006/04/01
_chemical_name_systematic
;
Dipotassium Dimanganese Tris(sulfate(VI))
;
_chemical_formula_structural       'K2 Mn2 (S O4)3'
_chemical_formula_sum              'K2 Mn2 O12 S3'
_chemical_name_mineral             Manganolangbeinite
_publ_section_title
;
Structures of langbeinite-type K2 Mn2 (S O4)3 in cubic and 
orthorhombic phases
;
loop_
_citation_id
_citation_journal_abbrev
_citation_year
_citation_journal_volume
_citation_page_first
_citation_page_last
_citation_journal_id_ASTM
primary 'Journal of the Physical Society of Japan' 1981 50 907 913 JUPSAU
2 'Golden Book of Phase Transitions, Wroclaw' 2002 1 1 123 GBOPT5
_publ_author_name                  'Yamada, N.;Maeda, M.;Adachi, H.'
_cell_length_a                     10.114
_cell_length_b                     10.114
_cell_length_c                     10.114
_cell_angle_alpha                  90.
_cell_angle_beta                   90.
_cell_angle_gamma                  90.
_cell_volume                       1034.59
_cell_formula_units_Z              4
_symmetry_space_group_name_H-M     'P 21 3'
_symmetry_Int_Tables_number        198
_refine_ls_R_factor_all            .0394
loop_
_symmetry_equiv_pos_site_id
_symmetry_equiv_pos_as_xyz
  1	'-z+.5, -x, y+.5'
  2	'-y+.5, -z, x+.5'
  3	'-x+.5, -y, z+.5'
  4	'-z, x+.5, -y+.5'
  5	'-y, z+.5, -x+.5'
  6	'-x, y+.5, -z+.5'
  7	'z+.5, -x+.5, -y'
  8	'y+.5, -z+.5, -x'
  9	'x+.5, -y+.5, -z'
 10	'z, x, y'
 11	'y, z, x'
 12	'x, y, z'
loop_
_atom_type_symbol
_atom_type_oxidation_number
K1+	1
Mn2+	2
O2-	-2
S6+	6
loop_
_atom_site_label
_atom_site_type_symbol
_atom_site_symmetry_multiplicity
_atom_site_Wyckoff_symbol
_atom_site_fract_x
_atom_site_fract_y
_atom_site_fract_z
_atom_site_occupancy
_atom_site_attached_hydrogens
K1 K1+ 4 a 0.185(12) 0.315(10) 0.685(12) 1. 0 
K2 K1+ 4 a 0.051(11) 0.051(13) 0.051(11) 1. 0 
Mn1 Mn2+ 4 a 0.3336(57) 0.3336(46) 0.3336(57) 1. 0 
Mn2 Mn2+ 4 a 0.4062(56) 0.0938(47) 0.9062(48) 1. 0 
S1 S6+ 12 b 0.2213(7) 0.3753(7) 0.0149(7) 1. 0 
O1 O2- 12 b 0.3121(35) 0.2772(37) 0.9589(44) 1. 0 
O2 O2- 12 b 0.0851(29) 0.3282(36) 0.0051(42) 1. 0 
O3 O2- 12 b 0.2398(53) 0.4954(46) 0.9375(51) 1. 0 
O4 O2- 12 b 0.2570(43) 0.4092(48) 0.1507(33) 1. 0 

#End of data_200897-ICSD


