data_619336-ICSD
#?2014 by Fachinformationszentrum Karlsruhe, and the U.S. Secretary of 
#Commerce on behalf of the United States.  All rights reserved.
_database_code_ICSD                619336
_audit_creation_date               2013/02/01
_chemical_name_systematic          'Calcium Hydride (1/2)'
_chemical_formula_structural       'Ca H2'
_chemical_formula_sum              'H2 Ca1'
_publ_section_title
;
Phase equilibria and crystal growth of alkaline earth and lanthanide 
dihydrides
;
loop_
_citation_id
_citation_journal_abbrev
_citation_year
_citation_journal_volume
_citation_page_first
_citation_page_last
_citation_journal_id_ASTM
primary 'High Temperature Science' 1975 7 152 158 HITSAC
2 'Journal of the Less-Common Metals' 1968 15 377 383 JCOMAH
_publ_author_name                  'Haschke, J.M.;Clark, M.R.'
_cell_length_a                     5.957(3)
_cell_length_b                     3.602(1)
_cell_length_c                     6.809(3)
_cell_angle_alpha                  90.0
_cell_angle_beta                   90.0
_cell_angle_gamma                  90.0
_cell_volume                       146.1
_cell_formula_units_Z              4
_symmetry_space_group_name_H-M     'P n m a'
_symmetry_Int_Tables_number        62
loop_
_symmetry_equiv_pos_site_id
_symmetry_equiv_pos_as_xyz
  1	'x+.5, y, -z+.5'
  2	'x, -y+.5, z'
  3	'-x+.5, y+.5, z+.5'
  4	'-x, -y, -z'
  5	'-x+.5, -y, z+.5'
  6	'-x, y+.5, -z'
  7	'x+.5, -y+.5, -z+.5'
  8	'x, y, z'
loop_
_atom_type_symbol
_atom_type_oxidation_number
Ca2+	2
H1-	-1
loop_
_atom_site_label
_atom_site_type_symbol
_atom_site_symmetry_multiplicity
_atom_site_Wyckoff_symbol
_atom_site_fract_x
_atom_site_fract_y
_atom_site_fract_z
_atom_site_occupancy
_atom_site_attached_hydrogens
Ca1 Ca2+ 4 c 0.208 0.25 0.391 1. 0 
H1 H1- 4 c 0.040 0.25 0.720 1. 0 
H2 H1- 4 c 0.171 0.25 0.064 1. 0 

#End of data_619336-ICSD


