data_24933-ICSD
#?2014 by Fachinformationszentrum Karlsruhe, and the U.S. Secretary of 
#Commerce on behalf of the United States.  All rights reserved.
_database_code_ICSD                24933
_audit_creation_date               1980/01/01
_audit_update_record               2012/08/01
_chemical_name_systematic          'Potassium Hexacyanomanganate(III)'
_chemical_formula_structural       'K3 Mn (C N)6'
_chemical_formula_sum              'C6 K3 Mn1 N6'
_publ_section_title                'The OD-structure of K3 Mn (C N)6'
loop_
_citation_id
_citation_journal_abbrev
_citation_year
_citation_journal_volume
_citation_page_first
_citation_page_last
_citation_journal_id_ASTM
primary 'Acta Chemica Scandinavica, Series A: (28,1974-)'
 1970 24 2335 2348 ACAPCT
_publ_author_name                  'Vannerberg, N.G.'
_cell_length_a                     7.087(1)
_cell_length_b                     10.502(1)
_cell_length_c                     8.436(1)
_cell_angle_alpha                  90.
_cell_angle_beta                   107.31(1)
_cell_angle_gamma                  90.
_cell_volume                       599.43
_cell_formula_units_Z              2
_symmetry_space_group_name_H-M     'P 1 21/c 1'
_symmetry_Int_Tables_number        14
_refine_ls_R_factor_all            .072
loop_
_symmetry_equiv_pos_site_id
_symmetry_equiv_pos_as_xyz
  1	'x, -y+.5, z+.5'
  2	'-x, -y, -z'
  3	'-x, y+.5, -z+.5'
  4	'x, y, z'
loop_
_atom_type_symbol
_atom_type_oxidation_number
C2+	2
K1+	1
Mn3+	3
N3-	-3
loop_
_atom_site_label
_atom_site_type_symbol
_atom_site_symmetry_multiplicity
_atom_site_Wyckoff_symbol
_atom_site_fract_x
_atom_site_fract_y
_atom_site_fract_z
_atom_site_occupancy
_atom_site_attached_hydrogens
Mn1 Mn3+ 2 a 0 0 0 1. 0 
K1 K1+ 2 c 0 0 0.5 1. 0 
K2 K1+ 4 e 0.50266(40) 0.22894(30) 0.62556(40) 1. 0 
C1 C2+ 4 e 0.8752(15) 0.1765(14) 0.9689(19) 1. 0 
C2 C2+ 4 e 0.1919(19) 0.0550(15) 0.2145(20) 1. 0 
C3 C2+ 4 e 0.1879(20) 0.0559(14) 0.8809(20) 1. 0 
N1 N3- 4 e 0.7972(15) 0.2714(11) 0.9486(18) 1. 0 
N2 N3- 4 e 0.2959(28) 0.0899(19) 0.3364(22) 1. 0 
N3 N3- 4 e 0.3020(17) 0.0822(15) 0.8129(21) 1. 0 

loop_
_atom_site_aniso_label
_atom_site_aniso_type_symbol
_atom_site_aniso_U_11
_atom_site_aniso_U_22
_atom_site_aniso_U_33
_atom_site_aniso_U_12
_atom_site_aniso_U_13
_atom_site_aniso_U_23
Mn1 Mn3+ 0.0191(6) 0.0258(3) 0.0158(5) -.0067(4) 0.0057 0
K1 K1+ 0.0445(13) 0.0270(5) 0.0358(11) 0.0188(7) 0.0110 0
K2 K1+ 0.0357(5) 0.0418(4) 0.0289(4) -.0095(4) 0.0100(3) -.0055(3)
C1 C2+ 0.0142(17) 0.0483(13) 0.0323(20) -.0032(13) 0.0050(17) 0.0055(15)
C2 C2+ 0.0285(24) 0.0456(13) 0.0309(23) -.0037(16) 0.0159(23) 0.0016(16)
C3 C2+ 0.0352(24) 0.0367(13) 0.0375(24) 0.0017(16) 0.0235(24) -.0078(16)
N1 N3- 0.0284(17) 0.0279(14) 0.0519(24) -.0051(11) 0.0059(18) -.0022(12)
N2 N3- 0.0699(55) 0.0759(22) 0.0296(25) -.0017(28) -.0016(31) -.0181(19)
N3 N3- 0.0242(25) 0.0554(15) 0.0507(29) -.0175(15) 0.0227(26) -.0036(16)
#End of data_24933-ICSD


