data_170594-ICSD
#?2014 by Fachinformationszentrum Karlsruhe, and the U.S. Secretary of 
#Commerce on behalf of the United States.  All rights reserved.
_database_code_ICSD                170594
_audit_creation_date               2006/04/01
_chemical_name_systematic          'Potassium Borate Hydroxide'
_chemical_formula_structural       'K4 B10 O15 (O H)4'
_chemical_formula_sum              'H4 B10 K4 O19'
_publ_section_title
;
Two new potassium borates, K4 B10 O16 (O H)4 with stepped chain and K 
B5 O7 (O H)2.H2 O with double helical chain
;
loop_
_citation_id
_citation_journal_abbrev
_citation_year
_citation_journal_volume
_citation_journal_issue
_citation_page_first
_citation_page_last
_citation_journal_id_ASTM
primary 'Crystal Growth and Design' 2005 5 1 157 161 CGDEFU
_publ_author_name
;
Zhang, H.-X.;Zhang, J.;Zheng, S.-T.;Yang, G.-Y.
;
_cell_length_a                     18.077(6)
_cell_length_b                     6.857(2)
_cell_length_c                     13.266(4)
_cell_angle_alpha                  90.00
_cell_angle_beta                   95.271(4)
_cell_angle_gamma                  90.00
_cell_volume                       1637.42
_cell_formula_units_Z              4
_symmetry_space_group_name_H-M     'C 1 2/c 1'
_symmetry_Int_Tables_number        15
_refine_ls_R_factor_all            .0246
loop_
_symmetry_equiv_pos_site_id
_symmetry_equiv_pos_as_xyz
  1	'x, -y, z+.5'
  2	'-x, -y, -z'
  3	'-x, y, -z+.5'
  4	'x, y, z'
  5	'x+.5, -y+.5, z+.5'
  6	'-x+.5, -y+.5, -z'
  7	'-x+.5, y+.5, -z+.5'
  8	'x+.5, y+.5, z'
loop_
_atom_type_symbol
_atom_type_oxidation_number
B3+	3
H1+	1
K1+	1
O2-	-2
loop_
_atom_site_label
_atom_site_type_symbol
_atom_site_symmetry_multiplicity
_atom_site_Wyckoff_symbol
_atom_site_fract_x
_atom_site_fract_y
_atom_site_fract_z
_atom_site_occupancy
_atom_site_attached_hydrogens
_atom_site_U_iso_or_equiv
K1 K1+ 8 f 0.061286(11) 0.13479(3) -0.067041(14 1 0 0.01746(6) 
K2 K1+ 8 f 0.283925(11) 0.10558(3) 0.152807(15) 1 0 0.02042(6) 
B1 B3+ 8 f -0.08312(5) -0.15657(12) -0.18874(6) 1 0 0.00967(13) 
B2 B3+ 8 f 0.03565(4) -0.33837(11) -0.17000(6) 1 0 0.00821(12) 
B3 B3+ 8 f 0.10814(5) -0.38929(12) -0.00237(6) 1 0 0.00966(13) 
B4 B3+ 8 f 0.22477(5) -0.40522(12) 0.09918(6) 1 0 0.01096(13) 
B5 B3+ 8 f 0.13017(5) -0.16499(12) 0.14540(6) 1 0 0.00968(13) 
O1 O2- 8 f 0.09562(3) -0.21814(9) -0.21276(4) 1 0 0.01310(11) 
O2 O2- 8 f 0.13647(3) 0.04687(8) 0.14663(4) 1 0 0.01168(10) 
O3 O2- 8 f -0.01921(3) -0.20440(9) -0.13028(4) 1 0 0.01266(11) 
O4 O2- 4 e 0.0000 -0.45953(11) -0.2500 1 0 0.00807(12) 
O5 O2- 8 f 0.07219(3) -0.45853(8) -0.08941(4) 1 0 0.01068(10) 
O6 O2- 8 f 0.17285(3) -0.49483(9) 0.03132(5) 1 0 0.01481(11) 
O7 O2- 8 f 0.29341(4) -0.49091(10) 0.11172(5) 1 0 0.01856(13) 
O8 O2- 8 f 0.20829(3) -0.24301(9) 0.15033(4) 1 0 0.01253(11) 
O9 O2- 8 f 0.09379(4) -0.22725(9) 0.23279(5) 1 0 0.01536(11) 
O10 O2- 8 f 0.08846(3) -0.23078(9) 0.04942(4) 1 0 0.01250(11) 
H1 H1+ 8 f 0.0648(11) -0.330(3) 0.2226(14) 1 0 0.040(5) 
H2 H1+ 8 f 0.3259(10) -0.421(3) 0.1482(13) 1 0 0.034(4) 

loop_
_atom_site_aniso_label
_atom_site_aniso_type_symbol
_atom_site_aniso_U_11
_atom_site_aniso_U_22
_atom_site_aniso_U_33
_atom_site_aniso_U_12
_atom_site_aniso_U_13
_atom_site_aniso_U_23
K1 K1+ 0.01850(9) 0.01502(8) 0.01970(9) -0.00079(6) 0.00630(6) 0.00007(5)
K2 K1+ 0.01829(9) 0.02386(10) 0.01981(9) -0.00712(6) 0.00556(6) -0.00832(6)
B1 B3+ 0.0101(3) 0.0093(3) 0.0095(3) 0.0025(2) 0.0002(2) -0.0008(2)
B2 B3+ 0.0091(3) 0.0075(3) 0.0077(3) 0.0006(2) -0.0013(2) 0.0000(2)
B3 B3+ 0.0108(3) 0.0091(3) 0.0087(3) 0.0013(2) -0.0010(2) -0.0002(2)
B4 B3+ 0.0110(3) 0.0114(3) 0.0101(3) 0.0030(2) -0.0008(2) -0.0010(2)
B5 B3+ 0.0091(3) 0.0095(3) 0.0102(3) 0.0013(2) -0.0004(2) -0.0018(2)
O1 O2- 0.0126(2) 0.0157(2) 0.0103(2) -0.00621(19) -0.00272(18) 0.00307(18)
O2 O2- 0.0114(2) 0.0084(2) 0.0157(2) 0.00149(17) 0.00372(18) -0.00124(17)
O3 O2- 0.0128(2) 0.0139(2) 0.0106(2) 0.00532(19) -0.00292(18) -0.00415(18)
O4 O2- 0.0098(3) 0.0068(3) 0.0073(3) 0.000 -0.0015(2) 0.000
O5 O2- 0.0144(2) 0.0089(2) 0.0079(2) 0.00129(17) -0.00351(17) 0.00015(16)
O6 O2- 0.0140(3) 0.0136(2) 0.0154(2) 0.00572(19) -0.00624(19) -0.00513(19)
O7 O2- 0.0117(3) 0.0195(3) 0.0232(3) 0.0070(2) -0.0052(2) -0.0082(2)
O8 O2- 0.0097(2) 0.0125(2) 0.0147(2) 0.00345(18) -0.00248(18) -0.00495(18)
O9 O2- 0.0184(3) 0.0150(3) 0.0131(2) -0.0059(2) 0.0040(2) -0.00092(19)
O10 O2- 0.0111(2) 0.0135(2) 0.0121(2) 0.00410(18) -0.00325(17) -0.00444(18)
#End of data_170594-ICSD


