data_30276-ICSD
#?2014 by Fachinformationszentrum Karlsruhe, and the U.S. Secretary of 
#Commerce on behalf of the United States.  All rights reserved.
_database_code_ICSD                30276
_audit_creation_date               1980/01/01
_audit_update_record               2006/04/01
_chemical_name_systematic          'Dilithium Sulfate(VI)'
_chemical_formula_structural       'Li2 (S O4)'
_chemical_formula_sum              'Li2 O4 S1'
_publ_section_title
;
The crystal structure of lithium sulphate
;
loop_
_citation_id
_citation_journal_abbrev
_citation_year
_citation_journal_volume
_citation_page_first
_citation_page_last
_citation_journal_id_ASTM
primary
;
Zeitschrift fuer Kristallographie, Kristallgeometrie, Kristallphysik, 
Kristallchemie (-144,1977)
;
 1932 84 150 158 ZEKGAX
2 'Golden Book of Phase Transitions, Wroclaw' 2002 1 1 123 GBOPT5
_publ_author_name                  'Albright, J.G.'
_cell_length_a                     8.25
_cell_length_b                     4.95
_cell_length_c                     8.44
_cell_angle_alpha                  90.
_cell_angle_beta                   107.9
_cell_angle_gamma                  90.
_cell_volume                       327.98
_cell_formula_units_Z              4
_symmetry_space_group_name_H-M     'P 1 21/a 1'
_symmetry_Int_Tables_number        14
loop_
_symmetry_equiv_pos_site_id
_symmetry_equiv_pos_as_xyz
  1	'x+.5, -y+.5, z'
  2	'-x, -y, -z'
  3	'-x+.5, y+.5, -z'
  4	'x, y, z'
loop_
_atom_type_symbol
_atom_type_oxidation_number
Li1+	1
O2-	-2
S6+	6
loop_
_atom_site_label
_atom_site_type_symbol
_atom_site_symmetry_multiplicity
_atom_site_Wyckoff_symbol
_atom_site_fract_x
_atom_site_fract_y
_atom_site_fract_z
_atom_site_occupancy
_atom_site_attached_hydrogens
O1 O2- 4 e 0.492 -.042 0.25 1. 0 
O2 O2- 4 e 0.186 -.042 0.099 1. 0 
O3 O2- 4 e 0.281 -.042 0.401 1. 0 
O4 O2- 4 e 0.319 0.367 0.25 1. 0 
S1 S6+ 4 e 0.319 0.061 0.25 1. 0 
Li1 Li1+ 4 e 0.206 0.582 0.375 1. 0 
Li2 Li1+ 4 e 0.456 0.582 0.125 1. 0 

#End of data_30276-ICSD


