data_20767-ICSD
#?2014 by Fachinformationszentrum Karlsruhe, and the U.S. Secretary of 
#Commerce on behalf of the United States.  All rights reserved.
_database_code_ICSD                20767
_audit_creation_date               1984/11/20
_audit_update_record               2012/02/01
_chemical_name_systematic
;
Dipotassium Tricopper Tetrakis(molybdate)
;
_chemical_formula_structural       'K2 Cu3 (Mo O4)4'
_chemical_formula_sum              'Cu3 K2 Mo4 O16'
_publ_section_title
;
The synthesis and the crystal structure of the double molybdate K2 
Cu3 (Mo O4)4
;
loop_
_citation_id
_citation_journal_abbrev
_citation_year
_citation_journal_volume
_citation_page_first
_citation_page_last
_citation_journal_id_ASTM
primary 'Doklady Akademii Nauk SSSR' 1980 254 1122 1126 DANKAS
_publ_author_name
;
Glinskaya, L.A.;Klevtsova, R.F.;Kim, V.G.;Klevtsov, P.V.
;
_cell_length_a                     20.072(9)
_cell_length_b                     14.673(6)
_cell_length_c                     5.144(2)
_cell_angle_alpha                  90.
_cell_angle_beta                   94.57(6)
_cell_angle_gamma                  90.
_cell_volume                       1510.18
_cell_formula_units_Z              4
_symmetry_space_group_name_H-M     'P 1 21/a 1'
_symmetry_Int_Tables_number        14
_refine_ls_R_factor_all            .046
loop_
_symmetry_equiv_pos_site_id
_symmetry_equiv_pos_as_xyz
  1	'x+.5, -y+.5, z'
  2	'-x, -y, -z'
  3	'-x+.5, y+.5, -z'
  4	'x, y, z'
loop_
_atom_type_symbol
_atom_type_oxidation_number
Cu2+	2
K1+	1
Mo6+	6
O2-	-2
loop_
_atom_site_label
_atom_site_type_symbol
_atom_site_symmetry_multiplicity
_atom_site_Wyckoff_symbol
_atom_site_fract_x
_atom_site_fract_y
_atom_site_fract_z
_atom_site_occupancy
_atom_site_attached_hydrogens
_atom_site_B_iso_or_equiv
Mo1 Mo6+ 4 e -.0651 0.8217 0.8050(1) 1. 0 0 
Mo2 Mo6+ 4 e -.0707 0.5818 0.3075(1) 1. 0 0 
Mo3 Mo6+ 4 e 0.2263 0.6029 0.7152(1) 1. 0 0 
Mo4 Mo6+ 4 e 0.1612 0.7715 0.2201(1) 1. 0 0 
Cu1 Cu2+ 4 e 0.0676 0.676 0.6893(1) 1. 0 0 
Cu2 Cu2+ 4 e 0.1057 0.5658 0.2064(1) 1. 0 0 
Cu3 Cu2+ 4 e 0.3226 0.7044 0.2439(1) 1. 0 0 
K1 K1+ 4 e 0.2171(1) 0.3732(1) 0.2533(3) 1. 0 0 
K2 K1+ 4 e 0.4045(1) 0.4767(1) 0.3080(3) 1. 0 0 
O1 O2- 4 e -.1019(2) 0.8515(3) 0.0969(9) 1. 0 1.26 
O2 O2- 4 e 0.0011(3) 0.7415(4) 0.8551(9) 1. 0 1.73 
O3 O2- 4 e -.1265(2) 0.7762(3) 0.5762(9) 1. 0 1.5 
O4 O2- 4 e -.0339(3) 0.9213(4) 0.6893(10) 1. 0 2.22 
O5 O2- 4 e 0.0101(2) 0.6289(3) 0.3912(8) 1. 0 1.16 
O6 O2- 4 e -.1059(2) 0.5475(3) 0.5994(8) 1. 0 1.14 
O7 O2- 4 e -.1235(2) 0.6587(3) 0.1396(9) 1. 0 1.21 
O8 O2- 4 e -.0611(2) 0.4836(3) 0.1128(7) 1. 0 0.91 
O9 O2- 4 e 0.2081(3) 0.5140(4) 0.9158(10) 1. 0 1.97 
O10 O2- 4 e 0.1457(2) 0.6310(3) 0.5143(7) 1. 0 0.93 
O11 O2- 4 e 0.2660(2) 0.6880(3) 0.9209(8) 1. 0 1.33 
O12 O2- 4 e 0.2813(3) 0.5597(4) 0.5023(9) 1. 0 1.82 
O13 O2- 4 e 0.1698(3) 0.8591(4) 0.0044(9) 1. 0 1.71 
O14 O2- 4 e 0.1080(2) 0.8115(3) 0.4401(10) 1. 0 1.58 
O15 O2- 4 e 0.2424(2) 0.7528(3) 0.3877(9) 1. 0 1.25 
O16 O2- 4 e 0.1257(2) 0.6760(3) 0.0133(8) 1. 0 0.86 

#End of data_20767-ICSD


