data_157075-ICSD
#?2014 by Fachinformationszentrum Karlsruhe, and the U.S. Secretary of 
#Commerce on behalf of the United States.  All rights reserved.
_database_code_ICSD                157075
_audit_creation_date               2008/02/01
_chemical_name_systematic          'Calcium Oxotitanium Silicate'
_chemical_formula_structural       'Ca (Ti O) (Si O4)'
_chemical_formula_sum              'Ca1 O5 Si1 Ti1'
_chemical_name_mineral             Titanite
_publ_section_title
;
Tantalum-bearing titanite: synthesis and crystal structure data
;
loop_
_citation_id
_citation_journal_abbrev
_citation_year
_citation_journal_volume
_citation_page_first
_citation_page_last
_citation_journal_id_ASTM
primary 'Physics and Chemistry of Minerals' 2006 33 73 83 PCMIDU
2 'Physics and Chemistry of Minerals' 2005 32 40 51 PCMIDU
_publ_author_name                  'Liferovich, R.P.;Mitchell, R.H.'
_cell_length_a                     7.0599(1)
_cell_length_b                     8.7156(1)
_cell_length_c                     6.5597(1)
_cell_angle_alpha                  90.
_cell_angle_beta                   113.797(1)
_cell_angle_gamma                  90.
_cell_volume                       369.31
_cell_formula_units_Z              4
_symmetry_space_group_name_H-M     'P 1 21/a 1'
_symmetry_Int_Tables_number        14
_refine_ls_R_factor_all            .03
loop_
_symmetry_equiv_pos_site_id
_symmetry_equiv_pos_as_xyz
  1	'x+.5, -y+.5, z'
  2	'-x, -y, -z'
  3	'-x+.5, y+.5, -z'
  4	'x, y, z'
loop_
_atom_type_symbol
_atom_type_oxidation_number
Ca2+	2
O2-	-2
Si4+	4
Ti4+	4
loop_
_atom_site_label
_atom_site_type_symbol
_atom_site_symmetry_multiplicity
_atom_site_Wyckoff_symbol
_atom_site_fract_x
_atom_site_fract_y
_atom_site_fract_z
_atom_site_occupancy
_atom_site_attached_hydrogens
_atom_site_B_iso_or_equiv
Ca1 Ca2+ 4 e 0.2573(8) 0.4184(3) 0.2477(10) 1. 0 1.43(7) 
Ti1 Ti4+ 4 e 0.4846(5) 0.2478(8) 0.7519(7) 1. 0 0.88(7) 
Si1 Si4+ 4 e 0.7434(10) 0.4319(4) 0.2492(15) 1. 0 0.60(7) 
O1 O2- 4 e 0.7480(22) 0.3204(6) 0.7552(32) 1. 0 1.06(6) 
O2 O2- 4 e 0.9138(15) 0.3202(14) 0.4359(21) 1. 0 1.06(6) 
O3 O2- 4 e 0.0939(16) 0.1869(14) 0.0712(21) 1. 0 1.06(6) 
O4 O2- 4 e 0.3787 0.4605 0.6457 1. 0 0.74 
O5 O2- 4 e 0.6147 0.0374 0.8465 1. 0 0.74 

#End of data_157075-ICSD


