data_79721-ICSD
#?2014 by Fachinformationszentrum Karlsruhe, and the U.S. Secretary of 
#Commerce on behalf of the United States.  All rights reserved.
_database_code_ICSD                79721
_audit_creation_date               1996/10/14
_chemical_name_systematic          'Dimagnesium Diborate'
_chemical_formula_structural       'Mg2 (B2 O5)'
_chemical_formula_sum              'B2 Mg2 O5'
_publ_section_title                'Triclinic Mg2 B2 O5'
loop_
_citation_id
_citation_journal_abbrev
_citation_year
_citation_journal_volume
_citation_page_first
_citation_page_last
_citation_journal_id_ASTM
primary 'Acta Crystallographica, Section C: Crystal Structure Communications'
 1995 51 351 352 ACSCEE
_publ_author_name
;
Guo, G.-C.;Cheng, W.-D.;Chen, J.-T.;Huang, J.-S.;Zhang, Q.-E.
;
_cell_length_a                     6.149(3)
_cell_length_b                     9.221(8)
_cell_length_c                     3.121(1)
_cell_angle_alpha                  90.29(5)
_cell_angle_beta                   92.23(4)
_cell_angle_gamma                  104.30(5)
_cell_volume                       171.33
_cell_formula_units_Z              2
_symmetry_space_group_name_H-M     'P -1'
_symmetry_Int_Tables_number        2
_refine_ls_R_factor_all            .03
loop_
_symmetry_equiv_pos_site_id
_symmetry_equiv_pos_as_xyz
  1	'-x, -y, -z'
  2	'x, y, z'
loop_
_atom_type_symbol
_atom_type_oxidation_number
B3+	3
Mg2+	2
O2-	-2
loop_
_atom_site_label
_atom_site_type_symbol
_atom_site_symmetry_multiplicity
_atom_site_Wyckoff_symbol
_atom_site_fract_x
_atom_site_fract_y
_atom_site_fract_z
_atom_site_occupancy
_atom_site_attached_hydrogens
Mg1 Mg2+ 2 i 0.62787(5) 0.39744(3) 0.26628(8) 1. 0 
Mg2 Mg2+ 2 i 0.78956(5) 0.14432(3) 0.76869(9) 1. 0 
O1 O2- 2 i 0.90678(9) 0.31943(6) 0.2782(2) 1. 0 
O2 O2- 2 i 0.30443(9) 0.44687(6) 0.2347(2) 1. 0 
O3 O2- 2 i 0.13818(9) 0.19985(6) -.0619(2) 1. 0 
O4 O2- 2 i 0.7247(1) 0.00497(6) 0.2703(2) 1. 0 
O5 O2- 2 i 0.52277(9) 0.24165(6) 0.7576(2) 1. 0 
B1 B3+ 2 i 0.1204(1) 0.33098(8) 0.1655(2) 1. 0 
B2 B3+ 2 i 0.6818(1) 0.85670(8) 0.1993(2) 1. 0 

loop_
_atom_site_aniso_label
_atom_site_aniso_type_symbol
_atom_site_aniso_U_11
_atom_site_aniso_U_22
_atom_site_aniso_U_33
_atom_site_aniso_U_12
_atom_site_aniso_U_13
_atom_site_aniso_U_23
Mg1 Mg2+ 0.0055(1) 0.0058(1) 0.0054(1) 0.00184(8) 0.00005(8) -.00003(8)
Mg2 Mg2+ 0.0060(1) 0.0064(1) 0.0061(1) 0.00171(8) -.00030(8) -.00040(8)
O1 O2- 0.0044(2) 0.0076(2) 0.0090(2) 0.0021(1) 0.0010(1) -.0002(1)
O2 O2- 0.0050(2) 0.0054(2) 0.0066(2) 0.0001(1) -.0002(1) -.0001(1)
O3 O2- 0.0046(2) 0.0073(2) 0.0109(2) 0.0016(1) 0.0010(1) -.0028(2)
O4 O2- 0.0093(2) 0.0050(2) 0.0071(2) 0.0014(2) 0.0008(2) -.0005(1)
O5 O2- 0.0046(2) 0.0059(2) 0.0073(2) 0.0006(1) 0.0005(1) 0.0002(1)
B1 B3+ 0.0045(2) 0.0058(2) 0.0060(2) 0.0011(2) 0.0001(2) 0.0000(2)
B2 B3+ 0.0053(2) 0.0060(3) 0.0053(2) 0.0010(2) 0.0000(2) -.0001(2)
#End of data_79721-ICSD


