data_16654-ICSD
#?2014 by Fachinformationszentrum Karlsruhe, and the U.S. Secretary of 
#Commerce on behalf of the United States.  All rights reserved.
_database_code_ICSD                16654
_audit_creation_date               1980/01/01
_audit_update_record               2007/04/01
_chemical_name_systematic          'Sodium Catena-arsenate(V)'
_chemical_formula_structural       'Na (As O3)'
_chemical_formula_sum              'As1 Na1 O3'
_publ_section_title
;
Ueber die Kristallstruktur des Natriumpolyarsenats, (Na As O3)x
;
loop_
_citation_id
_citation_journal_abbrev
_citation_year
_citation_journal_volume
_citation_page_first
_citation_page_last
_citation_journal_id_ASTM
primary 'Acta Crystallographica (1,1948-23,1967)' 1956 9 811 817 ACCRA9
2 Naturwissenschaften 1954 41 551 551 NATWAY
_publ_author_name                  'Liebau, F.'
_cell_length_a                     8.07
_cell_length_b                     7.44
_cell_length_c                     7.32
_cell_angle_alpha                  90.
_cell_angle_beta                   91.5
_cell_angle_gamma                  104.
_cell_volume                       426.29
_cell_formula_units_Z              6
_symmetry_space_group_name_H-M     'P -1'
_symmetry_Int_Tables_number        2
_refine_ls_R_factor_all            .174
loop_
_symmetry_equiv_pos_site_id
_symmetry_equiv_pos_as_xyz
  1	'-x, -y, -z'
  2	'x, y, z'
loop_
_atom_type_symbol
_atom_type_oxidation_number
As5+	5
Na1+	1
O2-	-2
loop_
_atom_site_label
_atom_site_type_symbol
_atom_site_symmetry_multiplicity
_atom_site_Wyckoff_symbol
_atom_site_fract_x
_atom_site_fract_y
_atom_site_fract_z
_atom_site_occupancy
_atom_site_attached_hydrogens
As1 As5+ 2 i 0.171 0.387 0.7708 1. 0 
As2 As5+ 2 i 0.171 0.956 0.7708 1. 0 
As3 As5+ 2 i 0.3904 0.723 0.548 1. 0 
O1 O2- 2 i 0.291 0.495 0.946 1. 0 
O2 O2- 2 i 0.291 0.911 0.946 1. 0 
O3 O2- 2 i -.033 0.37 0.819 1. 0 
O4 O2- 2 i -.033 0.865 0.819 1. 0 
O5 O2- 2 i 0.214 0.182 0.684 1. 0 
O6 O2- 2 i 0.242 0.507 0.568 1. 0 
O7 O2- 2 i 0.242 0.865 0.568 1. 0 
O8 O2- 2 i 0.424 0.732 0.318 1. 0 
O9 O2- 2 i 0.568 0.77 0.685 1. 0 
Na1 Na1+ 2 i 0.221 0.426 0.243 1. 0 
Na2 Na1+ 2 i 0.204 0.932 0.255 1. 0 
Na3 Na1+ 2 i 0.528 0.759 0.992 1. 0 

#End of data_16654-ICSD


