data_92843-ICSD
#?2014 by Fachinformationszentrum Karlsruhe, and the U.S. Secretary of 
#Commerce on behalf of the United States.  All rights reserved.
_database_code_ICSD                92843
_audit_creation_date               2003/04/01
_chemical_name_systematic          'Lithium Barium Borate'
_chemical_formula_structural       'Li Ba (B O3)'
_chemical_formula_sum              'B1 Ba1 Li1 O3'
_publ_section_title
;
Syntheses, crystal and electronic structures, and linear optics of Li 
M B O3 (M = Sr, Ba) orthoborates
;
loop_
_citation_id
_citation_journal_abbrev
_citation_year
_citation_journal_volume
_citation_page_first
_citation_page_last
_citation_journal_id_ASTM
primary 'Chemistry of Materials' 2001 13 1841 1847 CMATEX
_publ_author_name
;
Cheng, W.-D.;Zhang, H.;Lin, Q.-S.;Zheng, F.-K.;Chen, J.-T.
;
_cell_length_a                     6.372(1)
_cell_length_b                     7.022(3)
_cell_length_c                     7.058(1)
_cell_angle_alpha                  90
_cell_angle_beta                   113.89(1)
_cell_angle_gamma                  90
_cell_volume                       288.75
_cell_formula_units_Z              4
_symmetry_space_group_name_H-M     'P 1 21/n 1'
_symmetry_Int_Tables_number        14
_refine_ls_R_factor_all            .055
loop_
_symmetry_equiv_pos_site_id
_symmetry_equiv_pos_as_xyz
  1	'-x+.5, y+.5, -z+.5'
  2	'-x, -y, -z'
  3	'x+.5, -y+.5, z+.5'
  4	'x, y, z'
loop_
_atom_type_symbol
_atom_type_oxidation_number
B3+	3
Ba2+	2
Li1+	1
O2-	-2
loop_
_atom_site_label
_atom_site_type_symbol
_atom_site_symmetry_multiplicity
_atom_site_Wyckoff_symbol
_atom_site_fract_x
_atom_site_fract_y
_atom_site_fract_z
_atom_site_occupancy
_atom_site_attached_hydrogens
_atom_site_U_iso_or_equiv
Ba1 Ba2+ 4 e 0.33502(8) 0.13980(7) 0.15907(6) 1. 0 0.01093(6) 
O1 O2- 4 e 0.3793(9) 0.3180(7) 0.5164(8) 1. 0 0.0085(9) 
O2 O2- 4 e 0.291(1) 0.1598(9) 0.7740(8) 1. 0 0.017(1) 
O3 O2- 4 e 0.2199(9) 0.0011(7) 0.4569(7) 1. 0 0.0074(9) 
B1 B3+ 4 e 0.296(1) 0.160(1) 0.579(1) 1. 0 0.007(1) 
Li1 Li1+ 4 e 0.896(2) 0.071(2) 0.298(2) 1. 0 0.009(3) 

#End of data_92843-ICSD


