data_34942-ICSD
#?2014 by Fachinformationszentrum Karlsruhe, and the U.S. Secretary of 
#Commerce on behalf of the United States.  All rights reserved.
_database_code_ICSD                34942
_audit_creation_date               1980/01/01
_audit_update_record               1999/06/02
_chemical_name_systematic          'Calcium Tecto-dialumodisilicate'
_chemical_formula_structural       'Ca Al2 Si2 O8'
_chemical_formula_sum              'Al2 Ca1 O8 Si2'
_chemical_name_mineral             Anorthite
_publ_section_title
;
Die Verfeinerung der Kristallstruktur eines lunaren Plagioklases An90
;
loop_
_citation_id
_citation_journal_abbrev
_citation_year
_citation_journal_volume
_citation_page_first
_citation_page_last
_citation_journal_id_ASTM
primary
;
Zeitschrift fuer Kristallographie, Kristallgeometrie, Kristallphysik, 
Kristallchemie (-144,1977)
;
 1976 144 189 197 ZEKGAX
_publ_author_name                  'Berking, B.'
_cell_length_a                     8.184(2)
_cell_length_b                     12.890(2)
_cell_length_c                     14.214(2)
_cell_angle_alpha                  93.22(1)
_cell_angle_beta                   115.90(1)
_cell_angle_gamma                  91.13(1)
_cell_volume                       1345.09
_cell_formula_units_Z              8
_symmetry_space_group_name_H-M     'P -1'
_symmetry_Int_Tables_number        2
_refine_ls_R_factor_all            .067
loop_
_symmetry_equiv_pos_site_id
_symmetry_equiv_pos_as_xyz
  1	'-x, -y, -z'
  2	'x, y, z'
loop_
_atom_type_symbol
_atom_type_oxidation_number
Al3+	3
Ca2+	2
O2-	-2
Si4+	4
loop_
_atom_site_label
_atom_site_type_symbol
_atom_site_symmetry_multiplicity
_atom_site_Wyckoff_symbol
_atom_site_fract_x
_atom_site_fract_y
_atom_site_fract_z
_atom_site_occupancy
_atom_site_attached_hydrogens
_atom_site_B_iso_or_equiv
Ca1 Ca2+ 2 i 0.2661(3) 0.9829(2) 0.0878(2) 1. 0 1.56(3) 
Ca2 Ca2+ 2 i 0.2677(2) 0.0311(1) 0.5454(1) 1. 0 0.35(1) 
Ca3 Ca2+ 2 i 0.7760(2) 0.5367(1) 0.5430(1) 1. 0 0.96(2) 
Ca4 Ca2+ 2 i 0.7636(3) 0.5086(2) 0.0701(2) 1. 0 1.58(3) 
Si1 Si4+ 2 i 0.0109(6) 0.1614(3) 0.1017(4) 1. 0 0.45(8) 
Al2 Al3+ 2 i 0.0087(6) 0.1624(4) 0.6151(4) 1. 0 0.37(8) 
Si3 Si4+ 2 i 0.5061(6) 0.6538(3) 0.6044(3) 1. 0 0.28(7) 
Al4 Al3+ 2 i 0.4947(7) 0.6679(4) 0.1108(4) 1. 0 0.45(8) 
Al5 Al3+ 2 i 0.9893(6) 0.8121(3) 0.1190(3) 1. 0 0.45(7) 
Si6 Si4+ 2 i 0.0011(5) 0.8127(3) 0.6109(3) 1. 0 0.35(6) 
Al7 Al3+ 2 i 0.5083(6) 0.3168(3) 0.6225(3) 1. 0 0.37(7) 
Si8 Si4+ 2 i 0.5098(5) 0.3228(3) 0.1109(3) 1. 0 0.26(6) 
Al9 Al3+ 2 i 0.6913(5) 0.1137(3) 0.1531(3) 1. 0 0.47(6) 
Si10 Si4+ 2 i 0.6765(4) 0.1031(2) 0.6638(2) 1. 0 0.35(5) 
Al11 Al3+ 2 i 0.1884(5) 0.6136(3) 0.6653(3) 1. 0 0.43(5) 
Si12 Si4+ 2 i 0.1741(4) 0.6061(2) 0.1509(2) 1. 0 0.43(5) 
Si13 Si4+ 2 i 0.6726(4) 0.8818(2) 0.1876(3) 1. 0 0.43(5) 
Al14 Al3+ 2 i 0.6810(9) 0.8729(5) 0.6734(5) 1. 0 0.48(11) 
Si15 Si4+ 2 i 0.1769(4) 0.3829(2) 0.6760(2) 1. 0 0.31(5) 
Al16 Al3+ 2 i 0.1888(9) 0.3756(5) 0.1798(5) 1. 0 0.56(11) 
O1 O2- 2 i 0.0251(11) 0.1264(6) 0.9938(6) 1. 0 0.89(10) 
O2 O2- 2 i 0.9793(11) 0.1245(6) 0.4846(6) 1. 0 0.77(10) 
O3 O2- 2 i 0.4935(11) 0.6250(6) 0.4891(6) 1. 0 0.89(10) 
O4 O2- 2 i 0.5135(12) 0.6272(6) 0.9933(7) 1. 0 1.05(12) 
O5 O2- 2 i 0.5739(12) 0.9905(7) 0.1459(7) 1. 0 0.71(13) 
O6 O2- 2 i 0.5705(13) 0.9930(7) 0.6430(7) 1. 0 0.63(14) 
O7 O2- 2 i 0.0776(11) 0.4883(6) 0.6341(6) 1. 0 0.62(12) 
O8 O2- 2 i 0.0753(12) 0.4900(7) 0.1323(7) 1. 0 0.61(18) 
O9 O2- 2 i 0.8166(9) 0.1038(5) 0.0810(5) 1. 0 0.71(8) 
O10 O2- 2 i 0.8063(9) 0.0994(5) 0.6039(5) 1. 0 0.58(7) 
O11 O2- 2 i 0.3322(9) 0.5953(5) 0.6016(5) 1. 0 0.68(8) 
O12 O2- 2 i 0.2858(9) 0.6040(5) 0.0810(5) 1. 0 0.71(8) 
O13 O2- 2 i 0.8172(9) 0.8512(5) 0.1433(6) 1. 0 1.12(8) 
O14 O2- 2 i 0.8112(9) 0.8533(5) 0.6029(5) 1. 0 0.69(7) 
O15 O2- 2 i 0.2969(8) 0.3588(4) 0.6152(5) 1. 0 0.68(7) 
O16 O2- 2 i 0.3379(10) 0.3580(5) 0.1276(6) 1. 0 1.08(9) 
O17 O2- 2 i 0.0187(12) 0.2735(7) 0.1410(7) 1. 0 0.80(13) 
O18 O2- 2 i 0.0260(13) 0.2930(7) 0.6526(7) 1. 0 0.59(13) 
O19 O2- 2 i 0.507(1) 0.7818(6) 0.6285(6) 1. 0 0.5(1) 
O20 O2- 2 i 0.5047(13) 0.7974(8) 0.1484(8) 1. 0 0.81(15) 
O21 O2- 2 i -.0013(11) 0.6772(6) 0.1114(6) 1. 0 0.50(11) 
O22 O2- 2 i -.0017(11) 0.6917(6) 0.6008(6) 1. 0 0.49(11) 
O23 O2- 2 i 0.5180(12) 0.1801(7) 0.6065(7) 1. 0 0.70(13) 
O24 O2- 2 i 0.6921(9) 0.6019(5) 0.1986(5) 1. 0 0.86(14) 
O25 O2- 2 i 0.2068(8) 0.8727(4) 0.2140(6) 1. 0 0.95(11) 
O26 O2- 2 i 0.1717(8) 0.8558(5) 0.7155(5) 1. 0 0.73(8) 
O27 O2- 2 i 0.6876(9) 0.3639(5) 0.7311(5) 1. 0 0.94(11) 
O28 O2- 2 i 0.6981(9) 0.3667(5) 0.1994(5) 1. 0 0.73(8) 
O29 O2- 2 i 0.5169(13) 0.1951(7) 0.0960(7) 1. 0 0.56(6) 
O30 O2- 2 i 0.1793(11) 0.1065(6) 0.1894(6) 1. 0 0.82(7) 
O31 O2- 2 i 0.2158(9) 0.1036(5) 0.6866(5) 1. 0 1.06(8) 
O32 O2- 2 i 0.6979(11) 0.6071(6) 0.6805(6) 1. 0 0.96(8) 

#End of data_34942-ICSD


