data_14062-ICSD
#?2014 by Fachinformationszentrum Karlsruhe, and the U.S. Secretary of 
#Commerce on behalf of the United States.  All rights reserved.
_database_code_ICSD                14062
_audit_creation_date               1980/01/01
_audit_update_record               1987/04/14
_chemical_name_systematic
;
Potassium Tris(sulfato)dioxouranate
;
_chemical_formula_structural       'K4 (U O2 (S O4)3)'
_chemical_formula_sum              'K4 O14 S3 U1'
_publ_section_title
;
Synthesis and crystal structure of potassium trisulfatouranylate K4 
(U O2 (S O4)3)
;
loop_
_citation_id
_citation_journal_abbrev
_citation_year
_citation_journal_volume
_citation_page_first
_citation_page_last
_citation_journal_id_ASTM
primary 'Koordinatsionnaya Khimiya (= Coordination Chemistry (USSR))'
 1977 3 508 513 KOKHDC
_publ_author_name
;
Mikhailov, Yu.N.;Kokh, L.A.;Kuznetsov, V.G.;Grevtseva, T.G.;Sokol, 
S.K.;Ellert, G.V.
;
_cell_length_a                     13.053(6)
_cell_length_b                     23.200(6)
_cell_length_c                     9.379(5)
_cell_angle_alpha                  90.
_cell_angle_beta                   90.
_cell_angle_gamma                  90.
_cell_volume                       2840.24
_cell_formula_units_Z              8
_symmetry_space_group_name_H-M     'P n m a'
_symmetry_Int_Tables_number        62
_refine_ls_R_factor_all            .099
loop_
_symmetry_equiv_pos_site_id
_symmetry_equiv_pos_as_xyz
  1	'x+.5, y, -z+.5'
  2	'x, -y+.5, z'
  3	'-x+.5, y+.5, z+.5'
  4	'-x, -y, -z'
  5	'-x+.5, -y, z+.5'
  6	'-x, y+.5, -z'
  7	'x+.5, -y+.5, -z+.5'
  8	'x, y, z'
loop_
_atom_type_symbol
_atom_type_oxidation_number
K1+	1
O2-	-2
S6+	6
U6+	6
loop_
_atom_site_label
_atom_site_type_symbol
_atom_site_symmetry_multiplicity
_atom_site_Wyckoff_symbol
_atom_site_fract_x
_atom_site_fract_y
_atom_site_fract_z
_atom_site_occupancy
_atom_site_attached_hydrogens
_atom_site_B_iso_or_equiv
U1 U6+ 8 d 0.2322(3) 0.1369(6) 0.0010(2) 1. 0 0.86 
K1 K1+ 4 b 0 0 0.5 1. 0 3.6 
K2 K1+ 8 d 0.289(2) 0.027(2) 0.669(1) 1. 0 2.9 
K3 K1+ 8 d 0.439(2) 0.126(3) 0.360(1) 1. 0 3.3 
K4 K1+ 4 c 0.182(2) 0.25 0.377(1) 1. 0 3.7 
K5 K1+ 8 d 0.007(3) 0.172(4) 0.655(2) 1. 0 5.2 
S1 S6+ 8 d 0.076(3) 0.057(3) -.143(2) 1. 0 2.6 
S2 S6+ 8 d 0.179(3) 0.098(3) 0.379(2) 1. 0 2.3 
S3 S6+ 4 c 0.405(3) 0.25 0.141(2) 1. 0 1.5 
S4 S6+ 4 c 0.271(3) 0.25 -.263(2) 1. 0 2. 
O1 O2- 8 d 0.088(4) 0.001(4) -.218(3) 1. 0 3.7 
O2 O2- 8 d 0.109(3) 0.053(4) 0.006(3) 1. 0 1.7 
O3 O2- 8 d 0.140(3) 0.100(4) -.221(4) 1. 0 2.4 
O4 O2- 8 d -.034(5) 0.075(6) -.149(3) 1. 0 4.1 
O5 O2- 8 d 0.174(3) 0.038(4) 0.438(3) 1. 0 2.1 
O6 O2- 8 d 0.234(4) 0.096(5) 0.242(4) 1. 0 1.8 
O7 O2- 8 d 0.075(5) 0.122(6) 0.363(4) 1. 0 5.1 
O8 O2- 8 d 0.236(3) 0.135(5) 0.485(3) 1. 0 2.9 
O9 O2- 4 c 0.483(6) 0.25 0.028(4) 1. 0 3.7 
O10 O2- 4 c 0.454(3) 0.25 0.282(3) 1. 0 4.5 
O11 O2- 8 d 0.344(4) 0.196(6) 0.127(4) 1. 0 2.7 
O12 O2- 4 c 0.163(5) 0.25 -.311(5) 1. 0 1.5 
O13 O2- 4 c 0.339(6) 0.25 -.390(4) 1. 0 1.6 
O14 O2- 8 d 0.291(4) 0.198(4) -.181(4) 1. 0 2. 
O15 O2- 8 d 0.340(6) 0.088(6) -.043(3) 1. 0 2.2 
O16 O2- 8 d 0.116(4) 0.187(5) 0.035(4) 1. 0 4. 

#End of data_14062-ICSD


