data_20049-ICSD
#?2014 by Fachinformationszentrum Karlsruhe, and the U.S. Secretary of 
#Commerce on behalf of the United States.  All rights reserved.
_database_code_ICSD                20049
_audit_creation_date               1980/01/01
_chemical_name_systematic          'Sodium Copper Silicate *'
_chemical_formula_structural       'Na2 Cu (Si4 O10)'
_chemical_formula_sum              'Cu1 Na2 O10 Si4'
_publ_section_title
;
Crystalline structure of Na2 Cu (Si4 O10)
;
loop_
_citation_id
_citation_journal_abbrev
_citation_year
_citation_journal_volume
_citation_page_first
_citation_page_last
_citation_journal_id_ASTM
primary 'Doklady Akademii Nauk SSSR' 1972 205 831 833 DANKAS
_publ_author_name
;
Kornev, A.N.;Maksimov, B.A.;Lider, V.V.;Ilyukhin, V.V.;Belov, N.V.
;
_cell_length_a                     6.94
_cell_length_b                     7.87
_cell_length_c                     9.89
_cell_angle_alpha                  102.133
_cell_angle_beta                   102.133
_cell_angle_gamma                  115.7
_cell_volume                       447.16
_cell_formula_units_Z              2
_symmetry_space_group_name_H-M     'P -1'
_symmetry_Int_Tables_number        2
_refine_ls_R_factor_all            .096
loop_
_symmetry_equiv_pos_site_id
_symmetry_equiv_pos_as_xyz
  1	'-x, -y, -z'
  2	'x, y, z'
loop_
_atom_type_symbol
_atom_type_oxidation_number
Cu2+	2
Na1+	1
O2-	-2
Si4+	4
loop_
_atom_site_label
_atom_site_type_symbol
_atom_site_symmetry_multiplicity
_atom_site_Wyckoff_symbol
_atom_site_fract_x
_atom_site_fract_y
_atom_site_fract_z
_atom_site_occupancy
_atom_site_attached_hydrogens
_atom_site_B_iso_or_equiv
Cu1 Cu2+ 2 i 0.241 0.287 0.426 1. 0 -.28 
Si1 Si4+ 2 i -.237 0.06 -.193 1. 0 -.154 
Si2 Si4+ 2 i 0.414 0.656 0.264 1. 0 0.072 
Si3 Si4+ 2 i 0.185 0.378 0.748 1. 0 -.045 
Si4 Si4+ 2 i -.077 0.293 0.147 1. 0 -.184 
O1 O2- 2 i 0.471 0.647 0.431 1. 0 0.153 
O2 O2- 2 i 0.584 0.134 -.259 1. 0 0.13 
O3 O2- 2 i 0.005 0.207 -.207 1. 0 0.667 
O4 O2- 2 i 0.199 0.904 0.017 1. 0 0.34 
O5 O2- 2 i 0.414 0.368 0.818 1. 0 0.404 
O6 O2- 2 i 0.335 0.177 0.266 1. 0 -.32 
O7 O2- 2 i 0.244 0.604 0.859 1. 0 0.226 
O8 O2- 2 i 0.046 0.78 0.72 1. 0 0.35 
O9 O2- 2 i 0.114 0.352 0.581 1. 0 0.272 
O10 O2- 2 i 0.16 0.466 0.143 1. 0 -.03 
Na1 Na1+ 2 i 0.342 0.237 0.017 1. 0 0.74 
Na2 Na1+ 2 i 0.266 0.729 0.58 1. 0 0.573 

#End of data_20049-ICSD


