data_72868-ICSD
#?2014 by Fachinformationszentrum Karlsruhe, and the U.S. Secretary of 
#Commerce on behalf of the United States.  All rights reserved.
_database_code_ICSD                72868
_audit_creation_date               1994/01/19
_chemical_name_systematic          'Pentacalcium Dirhenate(VII)'
_chemical_formula_structural       'Ca5 (Re2 O12)'
_chemical_formula_sum              'Ca5 O12 Re2'
_publ_section_title
;
The crystal structures of the isotypic perrhenates Ca5Re2O12 and 
Sr5Re2O12
;
loop_
_citation_id
_citation_journal_abbrev
_citation_year
_citation_journal_volume
_citation_page_first
_citation_page_last
_citation_journal_id_ASTM
primary 'Journal of Solid State Chemistry' 1992 99 149 157 JSSCBI
_publ_author_name
;
Mons, H.A.;Schriewer, M.S.;Jeitschko, W.
;
_cell_length_a                     9.5536(8)
_cell_length_b                     9.5536(8)
_cell_length_c                     54.586(4)
_cell_angle_alpha                  90.
_cell_angle_beta                   90.
_cell_angle_gamma                  120.
_cell_volume                       4314.65
_cell_formula_units_Z              18
_symmetry_space_group_name_H-M     'R -3 c H'
_symmetry_Int_Tables_number        167
_refine_ls_R_factor_all            .024
loop_
_symmetry_equiv_pos_site_id
_symmetry_equiv_pos_as_xyz
  1	'x-y, -y, -z+.5'
  2	'-x, -x+y, -z+.5'
  3	'y, x, -z+.5'
  4	'x-y, x, -z'
  5	'y, -x+y, -z'
  6	'-x, -y, -z'
  7	'-x+y, y, z+.5'
  8	'x, x-y, z+.5'
  9	'-y, -x, z+.5'
 10	'-x+y, -x, z'
 11	'-y, x-y, z'
 12	'x, y, z'
 13	'x-y+.6666, -y+.3333, -z+.8333'
 14	'x-y+.3333, -y+.6666, -z+.1666'
 15	'-x+.6666, -x+y+.3333, -z+.8333'
 16	'-x+.3333, -x+y+.6666, -z+.1666'
 17	'y+.6666, x+.3333, -z+.8333'
 18	'y+.3333, x+.6666, -z+.1666'
 19	'x-y+.6666, x+.3333, -z+.3333'
 20	'x-y+.3333, x+.6666, -z+.6666'
 21	'y+.6666, -x+y+.3333, -z+.3333'
 22	'y+.3333, -x+y+.6666, -z+.6666'
 23	'-x+.6666, -y+.3333, -z+.3333'
 24	'-x+.3333, -y+.6666, -z+.6666'
 25	'-x+y+.6666, y+.3333, z+.8333'
 26	'-x+y+.3333, y+.6666, z+.1666'
 27	'x+.6666, x-y+.3333, z+.8333'
 28	'x+.3333, x-y+.6666, z+.1666'
 29	'-y+.6666, -x+.3333, z+.8333'
 30	'-y+.3333, -x+.6666, z+.1666'
 31	'-x+y+.6666, -x+.3333, z+.3333'
 32	'-x+y+.3333, -x+.6666, z+.6666'
 33	'-y+.6666, x-y+.3333, z+.3333'
 34	'-y+.3333, x-y+.6666, z+.6666'
 35	'x+.6666, y+.3333, z+.3333'
 36	'x+.3333, y+.6666, z+.6666'
loop_
_atom_type_symbol
_atom_type_oxidation_number
Ca2+	2
O2-	-2
Re7+	7
loop_
_atom_site_label
_atom_site_type_symbol
_atom_site_symmetry_multiplicity
_atom_site_Wyckoff_symbol
_atom_site_fract_x
_atom_site_fract_y
_atom_site_fract_z
_atom_site_occupancy
_atom_site_attached_hydrogens
_atom_site_B_iso_or_equiv
Ca1 Ca2+ 36 f 0.0136(2) 0.3588(2) 0.18704(3) 1. 0 0.83(4) 
Ca2 Ca2+ 36 f 0.3723(2) 0.0422(2) 0.04918(3) 1. 0 0.66(3) 
Ca3 Ca2+ 12 c 0 0 0.10450(6) 1. 0 0.79(3) 
Ca4 Ca2+ 6 a 0 0 0.25 1. 0 0.61(5) 
Re1 Re7+ 18 e 0.33560(7) 0 0.25 1. 0 0.363(7) 
Re2 Re7+ 12 c 0 0 0.16150(1) 1. 0 0.394(5) 
Re3 Re7+ 6 b 0 0 0 1. 0 0.464(8) 
O1 O2- 36 f 0.0003(9) 0.1910(9) 0.2242(1) 1. 0 0.8(1) 
O2 O2- 36 f 0.0033(9) 0.1632(9) 0.0193(1) 1. 0 0.8(1) 
O3 O2- 36 f 0.1262(9) 0.1849(8) 0.1786(1) 1. 0 0.8(1) 
O4 O2- 36 f 0.1824(9) 0.0670(8) 0.1401(1) 1. 0 0.9(1) 
O5 O2- 36 f 0.1923(8) 0.3170(9) 0.1072(1) 1. 0 0.8(1) 
O6 O2- 36 f 0.2507(9) 0.1124(9) 0.0828(1) 1. 0 1.1(1) 

#End of data_72868-ICSD


