data_72736-ICSD
#?2014 by Fachinformationszentrum Karlsruhe, and the U.S. Secretary of 
#Commerce on behalf of the United States.  All rights reserved.
_database_code_ICSD                72736
_audit_creation_date               1994/01/19
_chemical_name_systematic
;
Potassium Phyllo-tetrafluoroscandate
;
_chemical_formula_structural       'K (Sc F4)'
_chemical_formula_sum              'F4 K1 Sc1'
_publ_section_title
;
KScF4: a new ABX4 octahedral cis-trans layered structure
;
loop_
_citation_id
_citation_journal_abbrev
_citation_year
_citation_journal_volume
_citation_page_first
_citation_page_last
_citation_journal_id_ASTM
primary 'European Journal of Solid State Inorganic Chemistry'
 1992 29 161 170 EJSCE5
_publ_author_name                  'Champarnaud-Mesjard, J.C.;Frit, B.'
_cell_length_a                     15.696(4)
_cell_length_b                     4.044(1)
_cell_length_c                     13.273(3)
_cell_angle_alpha                  90.
_cell_angle_beta                   107.81(5)
_cell_angle_gamma                  90.
_cell_volume                       802.12
_cell_formula_units_Z              8
_symmetry_space_group_name_H-M     'C 1 2/m 1'
_symmetry_Int_Tables_number        12
_refine_ls_R_factor_all            .022
loop_
_symmetry_equiv_pos_site_id
_symmetry_equiv_pos_as_xyz
  1	'-x, y, -z'
  2	'-x, -y, -z'
  3	'x, -y, z'
  4	'x, y, z'
  5	'-x+.5, y+.5, -z'
  6	'-x+.5, -y+.5, -z'
  7	'x+.5, -y+.5, z'
  8	'x+.5, y+.5, z'
loop_
_atom_type_symbol
_atom_type_oxidation_number
F1-	-1
K1+	1
Sc3+	3
loop_
_atom_site_label
_atom_site_type_symbol
_atom_site_symmetry_multiplicity
_atom_site_Wyckoff_symbol
_atom_site_fract_x
_atom_site_fract_y
_atom_site_fract_z
_atom_site_occupancy
_atom_site_attached_hydrogens
Sc1 Sc3+ 4 i 0.97306(3) 0 0.13857(3) 1. 0 
Sc2 Sc3+ 4 i 0.88217(3) 0 0.38663(3) 1. 0 
K1 K1+ 4 i 0.63946(4) 0 0.36443(5) 1. 0 
K2 K1+ 4 i 0.24338(4) 0 0.13553(5) 1. 0 
F1 F1- 4 i 0.1018(1) 0 0.2152(1) 1. 0 
F2 F1- 4 i 0.3855(1) 0 0.3839(2) 1. 0 
F3 F1- 4 i 0.8240(1) 0 0.4963(1) 1. 0 
F4 F1- 4 i 0.8417(1) 0 0.0700(1) 1. 0 
F5 F1- 4 i 0.7702(1) 0 0.2710(1) 1. 0 
F6 F1- 4 i 0.4716(1) 0 0.1424(2) 1. 0 
F7 F1- 4 i 0.9549(1) 0 0.2830(1) 1. 0 
F8 F1- 2 a 0 0 0 1. 0 
F9 F1- 2 c 0 0 0.5 1. 0 

loop_
_atom_site_aniso_label
_atom_site_aniso_type_symbol
_atom_site_aniso_U_11
_atom_site_aniso_U_22
_atom_site_aniso_U_33
_atom_site_aniso_U_12
_atom_site_aniso_U_13
_atom_site_aniso_U_23
Sc1 Sc3+ 0.0140(2) 0.0071(2) 0.0094(2) 0 0.0053(2) 0
Sc2 Sc3+ 0.0127(2) 0.0073(3) 0.0094(2) 0 0.0033(1) 0
K1 K1+ 0.0326(3) 0.0195(2) 0.0226(3) 0 0.0090(2) 0
K2 K1+ 0.0337(3) 0.0199(3) 0.0215(3) 0 0.0104(2) 0
F1 F1- 0.0168(7) 0.0283(8) 0.0278(9) 0 0.0046(7) 0
F2 F1- 0.0550(13) 0.0045(8) 0.1076(20) 0 0.0418(14) 0
F3 F1- 0.0325(9) 0.0297(9) 0.0232(8) 0 0.0190(7) 0
F4 F1- 0.0173(7) 0.0320(9) 0.0233(8) 0 0.0012(6) 0
F5 F1- 0.0173(7) 0.0346(9) 0.0184(8) 0 0.0009(6) 0
F6 F1- 0.0488(12) 0.0073(7) 0.0683(15) 0 0.0149(11) 0
F7 F1- 0.0321(9) 0.0710(14) 0.0163(8) 0 0.0164(7) 0
F8 F1- 0.0583(18) 0.0648(20) 0.0182(12) 0 0.0251(13) 0
F9 F1- 0.0243(13) 0.1054(28) 0.0236(14) 0 0.0082(11) 0
#End of data_72736-ICSD


