data_62287-ICSD
#?2014 by Fachinformationszentrum Karlsruhe, and the U.S. Secretary of 
#Commerce on behalf of the United States.  All rights reserved.
_database_code_ICSD                62287
_audit_creation_date               1988/07/15
_chemical_name_systematic
;
Potassium Tetramanganese Tris(phosphate)
;
_chemical_formula_structural       'K Mn4 (P O4)3'
_chemical_formula_sum              'K1 Mn4 O12 P3'
_publ_section_title
;
Crystal structure of the new K, Mn2+ orthophosphate KMn4(PO4)3
;
loop_
_citation_id
_citation_journal_abbrev
_citation_year
_citation_journal_volume
_citation_page_first
_citation_page_last
_citation_journal_id_ASTM
primary Kristallografiya 1986 31 258 263 KRISAJ
2 'Soviet Physics, Crystallography (= Kristallografiya)'
 1986 31 151 154 SPHCA6
_publ_author_name
;
Yakubovich, O.V.;Evdokimova, O.A.;Mel'nikov, O.K.;Simonov, M.A.
;
_cell_length_a                     6.550(2)
_cell_length_b                     16.028(6)
_cell_length_c                     9.977(3)
_cell_angle_alpha                  90.
_cell_angle_beta                   90.
_cell_angle_gamma                  90.
_cell_volume                       1047.42
_cell_formula_units_Z              4
_symmetry_space_group_name_H-M     'P m c n'
_symmetry_Int_Tables_number        62
_refine_ls_R_factor_all            .066
loop_
_symmetry_equiv_pos_site_id
_symmetry_equiv_pos_as_xyz
  1	'x, -y+.5, z+.5'
  2	'-x+.5, y, z'
  3	'x+.5, y+.5, -z+.5'
  4	'-x, -y, -z'
  5	'-x, y+.5, -z+.5'
  6	'x+.5, -y, -z'
  7	'-x+.5, -y+.5, z+.5'
  8	'x, y, z'
loop_
_atom_type_symbol
_atom_type_oxidation_number
K1+	1
Mn2+	2
O2-	-2
P5+	5
loop_
_atom_site_label
_atom_site_type_symbol
_atom_site_symmetry_multiplicity
_atom_site_Wyckoff_symbol
_atom_site_fract_x
_atom_site_fract_y
_atom_site_fract_z
_atom_site_occupancy
_atom_site_attached_hydrogens
_atom_site_B_iso_or_equiv
Mn1 Mn2+ 8 d -.0012(1) 0.05052(5) 0.24552(8) 1. 0 0.82(2) 
Mn2 Mn2+ 4 c 0.25 0.87428(8) 0.0728(1) 1. 0 0.50(3) 
Mn3 Mn2+ 4 c 0.25 0.86770(9) 0.4668(1) 1. 0 1.10(3) 
P1 P5+ 4 c 0.25 0.4395(1) 0.0237(2) 1. 0 0.49(4) 
P2 P5+ 4 c 0.25 0.4465(1) 0.4510(2) 1. 0 0.58(4) 
P3 P5+ 4 c 0.25 0.7226(1) 0.2950(2) 1. 0 0.73(4) 
K1 K1+ 4 c 0.25 0.2831(1) 0.2401(2) 1. 0 1.76(5) 
O1 O2- 4 c 0.25 0.5190(3) 0.1154(5) 1. 0 0.9(1) 
O2 O2- 4 c 0.25 0.0264(3) 0.3767(5) 1. 0 0.7(1) 
O3 O2- 8 d 0.0605(6) 0.3885(2) 0.0493(4) 1. 0 1.0(1) 
O4 O2- 4 c 0.25 0.0518(4) 0.1053(5) 1. 0 1.1(1) 
O5 O2- 4 c 0.25 0.5397(3) 0.4031(5) 1. 0 1.1(1) 
O6 O2- 8 d 0.0600(6) 0.4071(2) 0.3941(4) 1. 0 1.3(1) 
O7 O2- 4 c 0.25 0.8152(3) 0.2557(5) 1. 0 1.3(1) 
O8 O2- 8 d 0.0620(6) 0.6770(2) 0.2423(4) 1. 0 1.7(1) 
O9 O2- 4 c 0.25 0.7284(3) 0.4492(5) 1. 0 1.3(1) 

#End of data_62287-ICSD


