data_262409-ICSD
#?2014 by Fachinformationszentrum Karlsruhe, and the U.S. Secretary of 
#Commerce on behalf of the United States.  All rights reserved.
_database_code_ICSD                262409
_audit_creation_date               2012/08/01
_chemical_name_systematic          'Barium Zinc Ditellurate'
_chemical_formula_structural       'Ba (Zn Te2 O7)'
_chemical_formula_sum              'Ba1 O7 Te2 Zn1'
_publ_section_title
;
Two new noncentrosymmetric (NCS) polar oxides: syntheses, 
characterization, and structure-property relationships in Ba M Te2 O7 
(M = Mg2+ or Zn2+)
;
loop_
_citation_id
_citation_journal_abbrev
_citation_year
_citation_journal_volume
_citation_journal_issue
_citation_page_first
_citation_page_last
_citation_journal_id_ASTM
primary 'Inorganic Chemistry' 2012 51 12 2662 2668 INOCAJ
_publ_author_name
;
Yeon Jeongho;Kim Sang-Hwan;Nguyen Sau Doan;Lee Hana;Halasyamani, P.S.
;
_cell_length_a                     5.5498(4)
_cell_length_b                     15.3161(11)
_cell_length_c                     7.3098(5)
_cell_angle_alpha                  90
_cell_angle_beta                   90
_cell_angle_gamma                  90
_cell_volume                       621.34
_cell_formula_units_Z              4
_symmetry_space_group_name_H-M     'A m a 2'
_symmetry_Int_Tables_number        40
_refine_ls_R_factor_all            .0163
loop_
_symmetry_equiv_pos_site_id
_symmetry_equiv_pos_as_xyz
  1	'x+.5, -y, z'
  2	'-x+.5, y, z'
  3	'-x, -y, z'
  4	'x, y, z'
  5	'x+.5, -y+.5, z+.5'
  6	'-x+.5, y+.5, z+.5'
  7	'-x, -y+.5, z+.5'
  8	'x, y+.5, z+.5'
loop_
_atom_type_symbol
_atom_type_oxidation_number
Ba2+	2
O2-	-2
Te5+	5
Zn2+	2
loop_
_atom_site_label
_atom_site_type_symbol
_atom_site_symmetry_multiplicity
_atom_site_Wyckoff_symbol
_atom_site_fract_x
_atom_site_fract_y
_atom_site_fract_z
_atom_site_occupancy
_atom_site_attached_hydrogens
_atom_site_U_iso_or_equiv
Ba1 Ba2+ 4 b 0.25 0.20992(2) 0.87187(9) 1 0 0.00934(13) 
Te1 Te5+ 4 b 0.25 0.42224(3) 0.60992(5) 1 0 0.00524(15) 
Te2 Te5+ 4 b 0.25 0.42636(3) 0.12795(6) 1 0 0.00759(15) 
Zn1 Zn2+ 4 b 0.25 0.61556(5) 0.85450(18) 1 0 0.00805(19) 
O1 O2- 4 b 0.25 0.3647(3) 0.3690(12) 1 0 0.0094(8) 
O2 O2- 8 c 0.9934(10) 0.3563(2) 0.0625(5) 1 0 0.0132(9) 
O3 O2- 4 b 0.25 0.4832(3) 0.8375(8) 1 0 0.0078(11) 
O4 O2- 8 c 0.0072(11) 0.3443(3) 0.6792(5) 1 0 0.0084(7) 
O5 O2- 4 a 0 0.5 0.4990(7) 1 0 0.0104(10) 

loop_
_atom_site_aniso_label
_atom_site_aniso_type_symbol
_atom_site_aniso_U_11
_atom_site_aniso_U_22
_atom_site_aniso_U_33
_atom_site_aniso_U_12
_atom_site_aniso_U_13
_atom_site_aniso_U_23
Ba1 Ba2+ 0.00964(18) 0.0094(2) 0.0090(2) 0 0 0.0001(2)
Te1 Te5+ 0.0047(3) 0.0060(2) 0.0050(3) 0 0 -0.0002(2)
Te2 Te5+ 0.0076(3) 0.0069(2) 0.0083(3) 0 0 -0.0006(2)
Zn1 Zn2+ 0.0077(3) 0.0092(4) 0.0072(4) 0 0 0.0007(4)
O2 O2- 0.0072(17) 0.020(2) 0.0128(19) -0.0069(17) -0.003(2) 0.0052(14)
O3 O2- 0.0075(18) 0.007(2) 0.009(3) 0 0 -0.0012(18)
O4 O2- 0.0091(16) 0.0060(15) 0.0102(18) -0.0042(15) 0.0004(16) -0.0009(12)
O5 O2- 0.011(2) 0.008(2) 0.012(2) 0.007(2) 0 0
#End of data_262409-ICSD


