data_86285-ICSD
#?2014 by Fachinformationszentrum Karlsruhe, and the U.S. Secretary of 
#Commerce on behalf of the United States.  All rights reserved.
_database_code_ICSD                86285
_audit_creation_date               1999/11/30
_chemical_name_systematic
;
Dipotassium Hydrogen Bis(iodate(V)) Chloride
;
_chemical_formula_structural       'K2 H (I O3)2 Cl'
_chemical_formula_sum              'H1 Cl1 I2 K2 O6'
_publ_section_title
;
Neutron diffraction study of the crystal structure of K2 H (I O3)2 Cl
;
loop_
_citation_id
_citation_journal_abbrev
_citation_year
_citation_journal_volume
_citation_journal_issue
_citation_page_first
_citation_page_last
_citation_journal_id_ASTM
primary 'Wu Li Hsueh Pao (= Acta Physica Sinica)' 1986 35 8 1102 1107 WLHPAR
_publ_author_name
;
Chen, Y.;Zhang, P.-L.;Yan, Q.-W.;Cheng, Y.-F.;Cheng, Z.-X.
;
_cell_length_a                     15.032
_cell_length_b                     6.574
_cell_length_c                     8.571
_cell_angle_alpha                  90.
_cell_angle_beta                   90.
_cell_angle_gamma                  90.
_cell_volume                       846.99
_cell_formula_units_Z              4
_symmetry_space_group_name_H-M     'P c a 21'
_symmetry_Int_Tables_number        29
_refine_ls_R_factor_all            .033
loop_
_symmetry_equiv_pos_site_id
_symmetry_equiv_pos_as_xyz
  1	'x+.5, -y, z'
  2	'-x+.5, y, z+.5'
  3	'-x, -y, z+.5'
  4	'x, y, z'
loop_
_atom_type_symbol
_atom_type_oxidation_number
Cl1-	-1
H1+	1
I5+	5
K1+	1
O2-	-2
loop_
_atom_site_label
_atom_site_type_symbol
_atom_site_symmetry_multiplicity
_atom_site_Wyckoff_symbol
_atom_site_fract_x
_atom_site_fract_y
_atom_site_fract_z
_atom_site_occupancy
_atom_site_attached_hydrogens
O1 O2- 4 a 0.7134 0.711 0.9923 1. 0 
O2 O2- 4 a 0.885 0.8107 0.0663 1. 0 
O3 O2- 4 a 0.8051 0.9831 0.8089 1. 0 
O4 O2- 4 a 0.5416 0.735 0.9634 1. 0 
O5 O2- 4 a 0.373 0.6672 0.0413 1. 0 
O6 O2- 4 a 0.4447 0.451 0.8019 1. 0 
Cl1 Cl1- 4 a 0.376 0.7759 0.4648 1. 0 
K1 K1+ 4 a 0.515 0.9816 0.2391 1. 0 
K2 K1+ 4 a 0.2627 0.558 0.7444 1. 0 
I1 I5+ 4 a 0.7825 0.9362 0.006 1. 0 
I2 I5+ 4 a 0.4659 0.5073 -.0018 1. 0 
H1 H1+ 4 a 0.6079 0.7129 0.9756 1. 0 

#End of data_86285-ICSD


