data_98733-ICSD
#?2014 by Fachinformationszentrum Karlsruhe, and the U.S. Secretary of 
#Commerce on behalf of the United States.  All rights reserved.
_database_code_ICSD                98733
_audit_creation_date               2005/04/01
_chemical_name_systematic          'Dicalcium Niccolotungstate(VI)'
_chemical_formula_structural       'Ca2 (Ni W O6)'
_chemical_formula_sum              'Ca2 Ni1 O6 W1'
_publ_section_title
;
Preparation, crystal and magnetic structure of the double perovskites 
Ca2 T W O6 (T = Co, Ni)
;
loop_
_citation_id
_citation_journal_abbrev
_citation_year
_citation_journal_volume
_citation_page_first
_citation_page_last
_citation_journal_id_ASTM
primary 'Zeitschrift fuer Naturforschung, B: Chemical Sciences'
 2003 58 127 132 ZNBSEN
_publ_author_name
;
Martinez Lope, M.J.;Alonso, J.A.;Casais, M.T.;Fernandez Diaz, M.T.
;
_cell_length_a                     5.4048(1)
_cell_length_b                     5.5369(1)
_cell_length_c                     7.6889(1)
_cell_angle_alpha                  90
_cell_angle_beta                   90.246(1)
_cell_angle_gamma                  90
_cell_volume                       230.09
_cell_formula_units_Z              2
_symmetry_space_group_name_H-M     'P 1 21/n 1'
_symmetry_Int_Tables_number        14
_refine_ls_R_factor_all            .0322
loop_
_symmetry_equiv_pos_site_id
_symmetry_equiv_pos_as_xyz
  1	'-x+.5, y+.5, -z+.5'
  2	'-x, -y, -z'
  3	'x+.5, -y+.5, z+.5'
  4	'x, y, z'
loop_
_atom_type_symbol
_atom_type_oxidation_number
Ca2+	2
Ni2+	2
O2-	-2
W6+	6
loop_
_atom_site_label
_atom_site_type_symbol
_atom_site_symmetry_multiplicity
_atom_site_Wyckoff_symbol
_atom_site_fract_x
_atom_site_fract_y
_atom_site_fract_z
_atom_site_occupancy
_atom_site_attached_hydrogens
_atom_site_B_iso_or_equiv
Ca1 Ca2+ 4 e 0.9893(7) 0.0489(3) 0.2486(6) 1. 0 0.58(4) 
Ni1 Ni2+ 2 d 0.5 0 0 1. 0 0.37(3) 
W1 W6+ 2 c 0.5 0 0.5 1. 0 0.35(6) 
O1 O2- 4 e 0.0860(4) 0.4746(4) 0.2412(3) 1. 0 0.56(4) 
O2 O2- 4 e 0.7133(5) 0.3057(5) 0.0430(3) 1. 0 0.48(4) 
O3 O2- 4 e 0.1931(5) 0.2162(5) 0.9534(4) 1. 0 0.61(4) 

#End of data_98733-ICSD


