data_246478-ICSD
#?2014 by Fachinformationszentrum Karlsruhe, and the U.S. Secretary of 
#Commerce on behalf of the United States.  All rights reserved.
_database_code_ICSD                246478
_audit_creation_date               2009/08/01
_chemical_name_systematic
;
Lanthanum Calcium Manganate (iii/iv)
;
_chemical_formula_structural       'La0.5 Ca0.5 (Mn O3)'
_chemical_formula_sum              'Ca0.5 La0.5 Mn1 O3'
_publ_section_title
;
Competing crystal structures in La0.5 Ca0.5 Mn O3: Conventional 
charge order versus Zener polarons
;
loop_
_citation_id
_citation_journal_abbrev
_citation_year
_citation_journal_volume
_citation_page_first
_citation_page_last
_citation_journal_id_ASTM
primary 'Physical Review, Serie 3. B - Condensed Matter (18,1978-)'
 2005 72 085125-1 085125-5 PRBMDO
_publ_author_name                  'Patterson, C.H.'
_cell_length_a                     5.4763
_cell_length_b                     10.8932
_cell_length_c                     7.5247
_cell_angle_alpha                  90
_cell_angle_beta                   90
_cell_angle_gamma                  90
_cell_volume                       448.88
_cell_formula_units_Z              8
_symmetry_space_group_name_H-M     'P 21 n m'
_symmetry_Int_Tables_number        31
loop_
_symmetry_equiv_pos_site_id
_symmetry_equiv_pos_as_xyz
  1	'x+.5, -y, z+.5'
  2	'x+.5, -y, -z+.5'
  3	'x, y, -z'
  4	'x, y, z'
loop_
_atom_type_symbol
_atom_type_oxidation_number
Ca2+	2
La3+	3
Mn3.5+	3.5
O2-	-2
loop_
_atom_site_label
_atom_site_type_symbol
_atom_site_symmetry_multiplicity
_atom_site_Wyckoff_symbol
_atom_site_fract_x
_atom_site_fract_y
_atom_site_fract_z
_atom_site_occupancy
_atom_site_attached_hydrogens
Ca1 Ca2+ 2 a 0.4769 0.9021 0.0000 1. 0 
La1 La3+ 2 a 0.4783 0.3723 0.5000 1. 0 
La2 La3+ 2 a 0.9832 0.1286 0.0000 1. 0 
Ca2 Ca2+ 2 a 0.9741 0.6093 0.5000 1. 0 
Mn1 Mn3.5+ 4 b 0.0000 0.8743 0.2498 1. 0 
Mn2 Mn3.5+ 4 b 0.9611 0.3775 0.7518 1. 0 
O1 O2- 4 b 0.2717 0.9980 0.2768 1. 0 
O2 O2- 4 b 0.6918 0.2685 0.7837 1. 0 
O3 O2- 4 b 0.1818 0.2261 0.7029 1. 0 
O4 O2- 4 b 0.7324 0.5211 0.2276 1. 0 
O5 O2- 2 a 0.4344 0.1246 0.0000 1. 0 
O6 O2- 2 a 0.5575 0.1322 0.5000 1. 0 
O7 O2- 2 a 0.0375 0.3644 0.0000 1. 0 
O8 O2- 2 a 0.9247 0.3777 0.5000 1. 0 

#End of data_246478-ICSD


