data_93750-ICSD
#?2014 by Fachinformationszentrum Karlsruhe, and the U.S. Secretary of 
#Commerce on behalf of the United States.  All rights reserved.
_database_code_ICSD                93750
_audit_creation_date               2003/04/01
_chemical_name_systematic          'Calcium Dimanganate(III)'
_chemical_formula_structural       'Ca (Mn2 O4)'
_chemical_formula_sum              'Ca1 Mn2 O4'
_chemical_name_mineral             Marokite
_publ_section_title
;
Observation of antiferromagnetism in marokite Ca Mn2 O4
;
loop_
_citation_id
_citation_journal_abbrev
_citation_year
_citation_journal_volume
_citation_page_first
_citation_page_last
_citation_journal_id_ASTM
primary 'Journal of Solid State Chemistry' 2001 160 167 173 JSSCBI
_publ_author_name
;
Ling, C.-D.;Neumeier, J.J.;Argyriou, D.N.
;
_cell_length_a                     3.14685(5)
_cell_length_b                     9.95280(13)
_cell_length_c                     9.67166(13)
_cell_angle_alpha                  90
_cell_angle_beta                   90
_cell_angle_gamma                  90
_cell_volume                       302.92
_cell_formula_units_Z              4
_symmetry_space_group_name_H-M     'P b c m'
_symmetry_Int_Tables_number        57
_refine_ls_R_factor_all            .037
loop_
_symmetry_equiv_pos_site_id
_symmetry_equiv_pos_as_xyz
  1	'x, -y+.5, z+.5'
  2	'-x, y+.5, z'
  3	'x, y, -z+.5'
  4	'-x, -y, -z'
  5	'-x, y+.5, -z+.5'
  6	'x, -y+.5, -z'
  7	'-x, -y, z+.5'
  8	'x, y, z'
loop_
_atom_type_symbol
_atom_type_oxidation_number
Ca2+	2
Mn3+	3
O2-	-2
loop_
_atom_site_label
_atom_site_type_symbol
_atom_site_symmetry_multiplicity
_atom_site_Wyckoff_symbol
_atom_site_fract_x
_atom_site_fract_y
_atom_site_fract_z
_atom_site_occupancy
_atom_site_attached_hydrogens
_atom_site_U_iso_or_equiv
Ca1 Ca2+ 4 d 0.6854(7) 0.35197(19) 0.250 1. 0 0.0076(4) 
Mn1 Mn3+ 8 e 0.2052(6) 0.11245(17) 0.06841(17) 1. 0 0.0010(3) 
O1 O2- 4 c 0.5969(5) 0.250 0 1. 0 0.0044(4) 
O2 O2- 4 d 0.1944(6) 0.18431(16) 0.250 1. 0 0.0036(3) 
O3 O2- 8 e 0.2001(4) 0.47309(12) 0.10835(11) 1. 0 0.0031(2) 

#End of data_93750-ICSD


