data_422200-ICSD
#?2014 by Fachinformationszentrum Karlsruhe, and the U.S. Secretary of 
#Commerce on behalf of the United States.  All rights reserved.
_database_code_ICSD                422200
_audit_creation_date               2012/02/01
_chemical_name_systematic
;
Potassium Tritantalum Hexaoxide Ditellurate(IV)
;
_chemical_formula_structural       'K Ta3 O6 (Te O3)2'
_chemical_formula_sum              'K1 O12 Ta3 Te2'
_publ_section_title
;
A series of new phases in the alkali metal - Nb(V)/Ta(V) - 
Se(IV)/Te(IV) - O systems
;
loop_
_citation_id
_citation_journal_abbrev
_citation_year
_citation_journal_volume
_citation_page_first
_citation_page_last
_citation_journal_id_ASTM
primary 'Dalton Transactions' 2011 40 2562 2569 DTARAF
_publ_author_name
;
Gu, Qian Hua;Hu, Chun Li;Zhang, Jian Han;Mao, Jiang Gao
;
_cell_length_a                     3.941(2)
_cell_length_b                     14.972(8)
_cell_length_c                     17.477(10)
_cell_angle_alpha                  90.00
_cell_angle_beta                   90.00
_cell_angle_gamma                  90.00
_cell_volume                       1031.22
_cell_formula_units_Z              4
_symmetry_space_group_name_H-M     'P b c m'
_symmetry_Int_Tables_number        57
_refine_ls_R_factor_all            .0242
loop_
_symmetry_equiv_pos_site_id
_symmetry_equiv_pos_as_xyz
  1	'x, -y+.5, z+.5'
  2	'-x, y+.5, z'
  3	'x, y, -z+.5'
  4	'-x, -y, -z'
  5	'-x, y+.5, -z+.5'
  6	'x, -y+.5, -z'
  7	'-x, -y, z+.5'
  8	'x, y, z'
loop_
_atom_type_symbol
_atom_type_oxidation_number
K1+	1
O2-	-2
Ta5+	5
Te4+	4
loop_
_atom_site_label
_atom_site_type_symbol
_atom_site_symmetry_multiplicity
_atom_site_Wyckoff_symbol
_atom_site_fract_x
_atom_site_fract_y
_atom_site_fract_z
_atom_site_occupancy
_atom_site_attached_hydrogens
_atom_site_U_iso_or_equiv
K1 K1+ 4 d 0.2215(8) 0.4289(2) 0.2500 1 0 0.0243(7) 
Ta1 Ta5+ 4 d 0.25205(12) 0.70581(3) 0.2500 1 0 0.00386(13) 
Ta2 Ta5+ 8 e -0.24836(8) 0.35021(2) 0.069596(18) 1 0 0.00378(12) 
Te1 Te4+ 8 e 0.62029(14) 0.58617(3) 0.09760(3) 1 0 0.00668(15) 
O1 O2- 8 e 0.2800(13) 0.5657(4) 0.0238(3) 1 0 0.0080(12) 
O2 O2- 8 e 0.7036(15) 0.4696(4) 0.1301(4) 1 0 0.0110(13) 
O3 O2- 8 e 0.2852(14) 0.6027(4) 0.1735(3) 1 0 0.0094(13) 
O4 O2- 8 e 0.2888(14) 0.7931(4) 0.1685(4) 1 0 0.0103(13) 
O5 O2- 4 d -0.219(2) 0.6971(6) 0.2500 1 0 0.0102(18) 
O6 O2- 4 c -0.2927(18) 0.2500 0.0000 1 0 0.0099(18) 
O7 O2- 8 e 0.2212(15) 0.3557(4) 0.0675(4) 1 0 0.0128(15) 

loop_
_atom_site_aniso_label
_atom_site_aniso_type_symbol
_atom_site_aniso_U_11
_atom_site_aniso_U_22
_atom_site_aniso_U_33
_atom_site_aniso_U_12
_atom_site_aniso_U_13
_atom_site_aniso_U_23
K1 K1+ 0.0246(18) 0.0294(17) 0.0189(18) -0.0030(13) 0.000 0.000
Ta1 Ta5+ 0.0048(2) 0.0048(2) 0.0020(2) 0.00033(17) 0.000 0.000
Ta2 Ta5+ 0.0048(2) 0.00432(19) 0.00217(19) 0.00017(12) 0.00006(13) 
0.00014(10)
Te1 Te4+ 0.0084(3) 0.0062(2) 0.0054(3) 0.0005(2) -0.0004(2) 0.00088(19)
O1 O2- 0.007(3) 0.011(3) 0.006(3) 0.003(2) -0.002(2) 0.000(2)
O2 O2- 0.019(4) 0.008(3) 0.006(3) 0.003(2) -0.005(2) 0.001(2)
O3 O2- 0.011(3) 0.011(3) 0.006(3) 0.004(2) 0.002(2) -0.005(2)
O4 O2- 0.012(3) 0.011(3) 0.009(3) -0.004(2) 0.000(2) 0.003(2)
O5 O2- 0.007(4) 0.017(5) 0.007(5) -0.003(3) 0.000 0.000
O6 O2- 0.007(5) 0.012(4) 0.011(5) 0.000 0.000 -0.004(3)
O7 O2- 0.011(4) 0.012(3) 0.016(4) -0.001(2) 0.000(3) 0.003(2)
#End of data_422200-ICSD


