data_40889-ICSD
#?2014 by Fachinformationszentrum Karlsruhe, and the U.S. Secretary of 
#Commerce on behalf of the United States.  All rights reserved.
_database_code_ICSD                40889
_audit_creation_date               2000/07/15
_chemical_name_systematic          'Calcium Bis(borate)'
_chemical_formula_structural       'Ca (B O2)2'
_chemical_formula_sum              'B2 Ca1 O4'
_publ_section_title
;
The electron density distribution in calcium metaborate, Ca (B O2)2
;
loop_
_citation_id
_citation_journal_abbrev
_citation_year
_citation_journal_volume
_citation_page_first
_citation_page_last
_citation_journal_id_ASTM
primary 'Acta Crystallographica, Section B: Structural Science'
 1987 43 333 343 ASBSDK
_publ_author_name                  'Kirfel, A.'
_cell_length_a                     6.2046(3)
_cell_length_b                     11.5865(7)
_cell_length_c                     4.2747(3)
_cell_angle_alpha                  90.
_cell_angle_beta                   90.
_cell_angle_gamma                  90.
_cell_volume                       307.31
_cell_formula_units_Z              4
_symmetry_space_group_name_H-M     'P n c a'
_symmetry_Int_Tables_number        60
_refine_ls_R_factor_all            .0114
loop_
_symmetry_equiv_pos_site_id
_symmetry_equiv_pos_as_xyz
  1	'x+.5, y, -z'
  2	'x, -y+.5, z+.5'
  3	'-x+.5, y+.5, z+.5'
  4	'-x, -y, -z'
  5	'-x+.5, -y, z'
  6	'-x, y+.5, -z+.5'
  7	'x+.5, -y+.5, -z+.5'
  8	'x, y, z'
loop_
_atom_type_symbol
_atom_type_oxidation_number
B3+	3
Ca2+	2
O2-	-2
loop_
_atom_site_label
_atom_site_type_symbol
_atom_site_symmetry_multiplicity
_atom_site_Wyckoff_symbol
_atom_site_fract_x
_atom_site_fract_y
_atom_site_fract_z
_atom_site_occupancy
_atom_site_attached_hydrogens
Ca1 Ca2+ 4 c 0.25 0 0.27231(2) 1. 0 
B1 B3+ 8 d 0.12550(3) 0.19253(2) 0.82924(4) 1. 0 
O1 O2- 8 d 0.09087(2) 0.08623(1) 0.72953(3) 1. 0 
O2 O2- 8 d 0.14863(2) 0.20796(1) 0.15251(3) 1. 0 

loop_
_atom_site_aniso_label
_atom_site_aniso_type_symbol
_atom_site_aniso_U_11
_atom_site_aniso_U_22
_atom_site_aniso_U_33
_atom_site_aniso_U_12
_atom_site_aniso_U_13
_atom_site_aniso_U_23
Ca1 Ca2+ 0.00815(1) 0.00669(2) 0.00797(2) -.00073(2) 0 0
B1 B3+ 0.01186(6) 0.00604(5) 0.00554(4) -.00014(4) -.00024(4) -.00023(3)
O1 O2- 0.01214(3) 0.00658(3) 0.00945(3) -.00166(3) 0.00126(3) -.00189(3)
O2 O2- 0.02458(6) 0.00680(3) 0.00491(3) 0.00238(4) -.00125(4) -.00051(3)
#End of data_40889-ICSD


