data_411170-ICSD
#?2014 by Fachinformationszentrum Karlsruhe, and the U.S. Secretary of 
#Commerce on behalf of the United States.  All rights reserved.
_database_code_ICSD                411170
_audit_creation_date               2002/04/01
_chemical_name_systematic          'Gallium Potassium Telluride'
_chemical_formula_structural       'Ga K Te2'
_chemical_formula_sum              'Ga1 K1 Te2'
_publ_section_title
;
Synthesis and structures of ternary chalcogenides of aluminium and 
gallium with stacking faults: K M Q2 (M= Al, Ga; Q= Se, Te)
;
loop_
_citation_id
_citation_journal_abbrev
_citation_year
_citation_journal_volume
_citation_page_first
_citation_page_last
_citation_journal_id_ASTM
primary 'Journal of Solid State Chemistry' 2000 149 242 251 JSSCBI
_publ_author_name                  'Kim, J.;Hughbanks, T.'
_cell_length_a                     11.768(3)
_cell_length_b                     11.775(3)
_cell_length_c                     16.5030(40)
_cell_angle_alpha                  90.
_cell_angle_beta                   100.36(2)
_cell_angle_gamma                  90.
_cell_volume                       2249.51
_cell_formula_units_Z              16
_symmetry_space_group_name_H-M     'C 1 2/c 1'
_symmetry_Int_Tables_number        15
_refine_ls_R_factor_all            .1158
loop_
_symmetry_equiv_pos_site_id
_symmetry_equiv_pos_as_xyz
  1	'x, -y, z+.5'
  2	'-x, -y, -z'
  3	'-x, y, -z+.5'
  4	'x, y, z'
  5	'x+.5, -y+.5, z+.5'
  6	'-x+.5, -y+.5, -z'
  7	'-x+.5, y+.5, -z+.5'
  8	'x+.5, y+.5, z'
loop_
_atom_type_symbol
_atom_type_oxidation_number
Ga3+	3
K1+	1
Te2-	-2
loop_
_atom_site_label
_atom_site_type_symbol
_atom_site_symmetry_multiplicity
_atom_site_Wyckoff_symbol
_atom_site_fract_x
_atom_site_fract_y
_atom_site_fract_z
_atom_site_occupancy
_atom_site_attached_hydrogens
Te1 Te2- 4 e 0 0.5660(16) 0.25 1. 0 
Te2 Te2- 4 e 0.5 0.5594(12) 0.25 1. 0 
Te3 Te2- 8 f 0.2034(4) 0.0624(4) 0.0649(2) 1. 0 
Te4 Te2- 8 f 0.2423(46) 0.3128(3) 0.2477(29) 1. 0 
Te5 Te2- 8 f 0.0457(4) 0.3127(4) 0.4354(3) 1. 0 
Ga1 Ga3+ 8 f 0.6026(5) 0.6879(6) 0.1620(4) 1. 0 
Ga2 Ga3+ 8 f 0.1462(5) 0.4372(6) 0.3373(4) 1. 0 
K1 K1+ 8 f 0.4641(14) 0.3159(15) 0.1092(9) 1. 0 
K2 K1+ 8 f 0.2841(11) 0.0598(15) 0.3862(10) 1. 0 

loop_
_atom_site_aniso_label
_atom_site_aniso_type_symbol
_atom_site_aniso_U_11
_atom_site_aniso_U_22
_atom_site_aniso_U_33
_atom_site_aniso_U_12
_atom_site_aniso_U_13
_atom_site_aniso_U_23
Te1 Te2- 0.018(5) 0.044(7) 0.067(6) 0 -.007(3) 0
Te2 Te2- 0.033(6) 0.019(3) 0.018(3) 0 0.015(3) 0
Te3 Te2- 0.049(2) 0.056(3) 0.017(2) 0.040(3) 0.001(2) 0.003(2)
Te4 Te2- 0.020(12) 0.025(2) 0.039(5) 0.001(2) 0.005(6) 0.006(4)
Te5 Te2- 0.060(3) 0.057(3) 0.019(2) -.044(3) 0.006(2) 0.002(2)
Ga1 Ga3+ 0.015(2) 0.024(3) 0.021(2) 0.004(3) 0.004(2) 0.003(2)
Ga2 Ga3+ 0.021(3) 0.017(3) 0.024(2) -.004(3) 0.004(2) 0.003(2)
K1 K1+ 0.075(9) 0.064(9) 0.023(6) 0.040(7) 0.009(6) -.014(6)
K2 K1+ 0.035(6) 0.061(9) 0.044(7) -.025(6) 0.004(5) -.016(6)
#End of data_411170-ICSD


