data_60242-ICSD
#?2014 by Fachinformationszentrum Karlsruhe, and the U.S. Secretary of 
#Commerce on behalf of the United States.  All rights reserved.
_database_code_ICSD                60242
_audit_creation_date               1986/12/03
_chemical_name_systematic
;
Potassium Molybdenum Oxide (2/8/16)
;
_chemical_formula_structural       'K2 Mo8 O16'
_chemical_formula_sum              'K2 Mo8 O16'
_publ_section_title
;
Hydrothermal Synthesis of a New Molybdenum Hollandite Containing 
Tetranuclear Metal Atom Clusters. X-ray Crystal Structure of K2 Mo8 
O16
;
loop_
_citation_id
_citation_journal_abbrev
_citation_year
_citation_journal_volume
_citation_page_first
_citation_page_last
_citation_journal_id_ASTM
primary 'Inorganic Chemistry' 1984 23 3281 3284 INOCAJ
_publ_author_name                  'Torardi, C.C.;Calabrese, J.C.'
_cell_length_a                     10.232(3)
_cell_length_b                     10.286(4)
_cell_length_c                     5.758(1)
_cell_angle_alpha                  90.
_cell_angle_beta                   90.
_cell_angle_gamma                  90.14(3)
_cell_volume                       606.01
_cell_formula_units_Z              2
_symmetry_space_group_name_H-M     'P 1 1 2/n'
_symmetry_Int_Tables_number        13
_refine_ls_R_factor_all            .057
loop_
_symmetry_equiv_pos_site_id
_symmetry_equiv_pos_as_xyz
  1	'x+.5, y+.5, -z'
  2	'-x, -y, -z'
  3	'-x+.5, -y+.5, z'
  4	'x, y, z'
loop_
_atom_type_symbol
_atom_type_oxidation_number
K1+	1
Mo3.75+	3.75
O2-	-2
loop_
_atom_site_label
_atom_site_type_symbol
_atom_site_symmetry_multiplicity
_atom_site_Wyckoff_symbol
_atom_site_fract_x
_atom_site_fract_y
_atom_site_fract_z
_atom_site_occupancy
_atom_site_attached_hydrogens
Mo1 Mo3.75+ 4 g 0.1021(1) 0.9207(1) 0.8455(2) 1. 0 
Mo2 Mo3.75+ 4 g 0.0825(1) 0.9273(1) 0.4015(2) 1. 0 
Mo3 Mo3.75+ 4 g 0.5767(1) 0.0994(1) 0.8351(2) 1. 0 
Mo4 Mo3.75+ 4 g 0.4301(1) 0.9196(1) 0.6144(2) 1. 0 
K1 K1+ 2 e 0.75 0.75 0.6437(10) 1. 0 
K2 K1+ 2 e 0.75 0.75 0.129(1) 1. 0 
O1 O2- 4 g 0.1165(10) 0.0795(9) 0.6217(19) 1. 0 
O2 O2- 4 g 0.0941(10) 0.0535(10) 0.117(2) 1. 0 
O3 O2- 4 g 0.0818(9) 0.7798(9) 0.6246(19) 1. 0 
O4 O2- 4 g 0.5817(10) 0.2896(10) 0.8794(19) 1. 0 
O5 O2- 4 g 0.4192(10) 0.1183(10) 0.6133(20) 1. 0 
O6 O2- 4 g 0.5572(10) 0.9036(10) 0.8839(20) 1. 0 
O7 O2- 4 g 0.7189(10) 0.0827(10) 0.6157(19) 1. 0 
O8 O2- 4 g 0.2878(9) 0.9178(10) 0.8845(19) 1. 0 

#End of data_60242-ICSD


