data_39573-ICSD
#?2014 by Fachinformationszentrum Karlsruhe, and the U.S. Secretary of 
#Commerce on behalf of the United States.  All rights reserved.
_database_code_ICSD                39573
_audit_creation_date               1993/08/22
_audit_update_record               2010/02/01
_chemical_name_systematic          'Trisodium Hexanitrocobaltate(III)'
_chemical_formula_structural       'Na3 (Co (N O2)6)'
_chemical_formula_sum              'Co1 N6 Na3 O12'
_publ_section_title
;
Crystal structures of sodium rhodium(III), iridium(III) and 
cobalt(III) hexanitrates.
;
loop_
_citation_id
_citation_journal_abbrev
_citation_year
_citation_journal_volume
_citation_page_first
_citation_page_last
_citation_journal_id_ASTM
primary 'Zhurnal Neorganicheskoi Khimii' 1992 37 615 620 ZNOKAQ
2 'Russian Journal of Inorganic Chemistry' 1992 37 306 309 RJICAQ
_publ_author_name
;
Gromilov, S.A.;Alekseev, V.I.;Baidina, I.A.;Khranenko, S.P.
;
_cell_length_a                     6.705
_cell_length_b                     6.705
_cell_length_c                     6.705
_cell_angle_alpha                  71.24
_cell_angle_beta                   71.24
_cell_angle_gamma                  71.24
_cell_volume                       262.14
_cell_formula_units_Z              1
_symmetry_space_group_name_H-M     'R -3 m R'
_symmetry_Int_Tables_number        166
_refine_ls_R_factor_all            .134
loop_
_symmetry_equiv_pos_site_id
_symmetry_equiv_pos_as_xyz
  1	'-z, -y, -x'
  2	'-z, -x, -y'
  3	'-x, -z, -y'
  4	'-y, -z, -x'
  5	'-y, -x, -z'
  6	'-x, -y, -z'
  7	'z, y, x'
  8	'z, x, y'
  9	'x, z, y'
 10	'y, z, x'
 11	'y, x, z'
 12	'x, y, z'
loop_
_atom_type_symbol
_atom_type_oxidation_number
Co3+	3
N3+	3
Na1+	1
O2-	-2
loop_
_atom_site_label
_atom_site_type_symbol
_atom_site_symmetry_multiplicity
_atom_site_Wyckoff_symbol
_atom_site_fract_x
_atom_site_fract_y
_atom_site_fract_z
_atom_site_occupancy
_atom_site_attached_hydrogens
Co1 Co3+ 1 a 0 0 0 1. 0 
Na1 Na1+ 1 b 0.5 0.5 0.5 1. 0 
Na2 Na1+ 2 c 0.267 0.267 0.267 1. 0 
N1 N3+ 6 h 0.195(8) 0.195(8) 0.822(15) 1. 0 
O1 O2- 6 h 0.239(7) 0.239(7) 0.632(14) 1. 0 
O2 O2- 6 h 0.283(9) 0.283(9) 0.909(15) 1. 0 

#End of data_39573-ICSD


