data_183506-ICSD
#?2014 by Fachinformationszentrum Karlsruhe, and the U.S. Secretary of 
#Commerce on behalf of the United States.  All rights reserved.
_database_code_ICSD                183506
_audit_creation_date               2012/08/01
_chemical_name_systematic
;
Disodium Yttrium Molybdate Phosphate
;
_chemical_formula_structural       'Na2 Y (Mo O4) (P O4)'
_chemical_formula_sum              'Mo1 Na2 O8 P1 Y1'
_publ_section_title
;
The structure of Na2 Y (Mo O4) (P O4). Corrigendum
;
loop_
_citation_id
_citation_journal_abbrev
_citation_year
_citation_journal_volume
_citation_page_first
_citation_page_last
_citation_journal_id_ASTM
primary 'Acta Crystallographica, Section C: Crystal Structure Communications'
 1987 43 2470 2470 ACSCEE
2 'Acta Crystallographica, Section C: Crystal Structure Communications'
 1987 43 616 618 ACSCEE
_publ_author_name                  'Marsh, R.E.'
_cell_length_a                     18.016
_cell_length_b                     12.108
_cell_length_c                     6.847
_cell_angle_alpha                  90.
_cell_angle_beta                   90.
_cell_angle_gamma                  90.
_cell_volume                       1493.59
_cell_formula_units_Z              8
_symmetry_space_group_name_H-M     'I b c a'
_symmetry_Int_Tables_number        73
loop_
_symmetry_equiv_pos_site_id
_symmetry_equiv_pos_as_xyz
  1	'x, y+.5, -z'
  2	'x+.5, -y, z'
  3	'-x, y, z+.5'
  4	'-x, -y, -z'
  5	'-x, -y+.5, z'
  6	'-x+.5, y, -z'
  7	'x, -y, -z+.5'
  8	'x, y, z'
  9	'x+.5, y, -z+.5'
 10	'x, -y+.5, z+.5'
 11	'-x+.5, y+.5, z'
 12	'-x+.5, -y+.5, -z+.5'
 13	'-x+.5, -y, z+.5'
 14	'-x, y+.5, -z+.5'
 15	'x+.5, -y+.5, -z'
 16	'x+.5, y+.5, z+.5'
loop_
_atom_type_symbol
_atom_type_oxidation_number
Mo6+	6
Na1+	1
O2-	-2
P5+	5
Y3+	3
loop_
_atom_site_label
_atom_site_type_symbol
_atom_site_symmetry_multiplicity
_atom_site_Wyckoff_symbol
_atom_site_fract_x
_atom_site_fract_y
_atom_site_fract_z
_atom_site_occupancy
_atom_site_attached_hydrogens
Na1 Na1+ 16 f 0.5974(2) 0.1876(3) -0.2646(5) 1. 0 
Y1 Y3+ 8 d 0.750 0.07186(4) 0 1. 0 
Mo1 Mo6+ 8 c 0.42828(4) 0 0.750 1. 0 
P1 P5+ 8 d 0.250 0.1811(1) 0 1. 0 
O1 O2- 16 f 0.3717(2) 0.0239(3) -0.4596(6) 1. 0 
O2 O2- 16 f 0.4818(3) 0.1174(4) -0.2072(7) 1. 0 
O3 O2- 16 f 0.1816(2) 0.2564(2) 0.0152(5) 1. 0 
O4 O2- 16 f 0.2416(2) 0.1020(2) -0.1752(4) 1. 0 

#End of data_183506-ICSD


