data_88978-ICSD
#?2014 by Fachinformationszentrum Karlsruhe, and the U.S. Secretary of 
#Commerce on behalf of the United States.  All rights reserved.
_database_code_ICSD                88978
_audit_creation_date               2001/07/16
_chemical_name_systematic          'Calcium Vanadate(IV)'
_chemical_formula_structural       'Ca (V O3)'
_chemical_formula_sum              'Ca1 O3 V1'
_publ_section_title
;
Synthesis, crystal structure, stoichiometry and magnetic properties 
of (Ca1-x Srx) V O3
;
loop_
_citation_id
_citation_journal_abbrev
_citation_year
_citation_journal_volume
_citation_journal_issue
_citation_page_first
_citation_page_last
_citation_journal_id_ASTM
primary 'Materials Research Bulletin' 1999 34 2 289 301 MRBUAC
_publ_author_name
;
Garcia-Jaca, J.;Mesa, J.L.;Insausti, M.;Larramendi, J.I.R.;Arriortua, 
M.I.;Rojo, T.
;
_cell_length_a                     5.3171(5)
_cell_length_b                     7.5418(8)
_cell_length_c                     5.3396(5)
_cell_angle_alpha                  90.
_cell_angle_beta                   90.
_cell_angle_gamma                  90.
_cell_volume                       214.12
_cell_formula_units_Z              4
_symmetry_space_group_name_H-M     'P n m a'
_symmetry_Int_Tables_number        62
_refine_ls_R_factor_all            .054
loop_
_symmetry_equiv_pos_site_id
_symmetry_equiv_pos_as_xyz
  1	'x+.5, y, -z+.5'
  2	'x, -y+.5, z'
  3	'-x+.5, y+.5, z+.5'
  4	'-x, -y, -z'
  5	'-x+.5, -y, z+.5'
  6	'-x, y+.5, -z'
  7	'x+.5, -y+.5, -z+.5'
  8	'x, y, z'
loop_
_atom_type_symbol
_atom_type_oxidation_number
Ca2+	2
O2-	-2
V4+	4
loop_
_atom_site_label
_atom_site_type_symbol
_atom_site_symmetry_multiplicity
_atom_site_Wyckoff_symbol
_atom_site_fract_x
_atom_site_fract_y
_atom_site_fract_z
_atom_site_occupancy
_atom_site_attached_hydrogens
_atom_site_B_iso_or_equiv
Ca1 Ca2+ 4 c 0.003(2) 0.25 -.019(2) 1. 0 0.6(1) 
V1 V4+ 4 b 0.5 0 0 1. 0 0.5(1) 
O1 O2- 4 c 0.554(5) 0.25 0.033(5) 1. 0 0.5(1) 
O2 O2- 8 d 0.208(4) -.016(4) 0.209(4) 1. 0 0.5(1) 

#End of data_88978-ICSD


