data_68705-ICSD
#?2014 by Fachinformationszentrum Karlsruhe, and the U.S. Secretary of 
#Commerce on behalf of the United States.  All rights reserved.
_database_code_ICSD                68705
_audit_creation_date               1992/01/20
_audit_update_record               2006/04/01
_chemical_name_systematic          'Potassium Oxotitanium Phosphate(V)'
_chemical_formula_structural       'K (Ti O) (P O4)'
_chemical_formula_sum              'K1 O5 P1 Ti1'
_publ_section_title
;
Crystal structure and nonlinear optical properties of K Sn P O4 and 
their comparison with K Ti P O4
;
loop_
_citation_id
_citation_journal_abbrev
_citation_year
_citation_journal_volume
_citation_page_first
_citation_page_last
_citation_journal_id_ASTM
primary 'Acta Crystallographica, Section B: Structural Science'
 1990 46 333 343 ASBSDK
2 'Golden Book of Phase Transitions, Wroclaw' 2002 1 1 123 GBOPT5
_publ_author_name
;
Thomas, P.A.;Glazer, A.M.;Watts, B.E.
;
_cell_length_a                     12.819(3)
_cell_length_b                     6.399(1)
_cell_length_c                     10.584(2)
_cell_angle_alpha                  90.
_cell_angle_beta                   90.
_cell_angle_gamma                  90.
_cell_volume                       868.19
_cell_formula_units_Z              8
_symmetry_space_group_name_H-M     'P n a 21'
_symmetry_Int_Tables_number        33
_refine_ls_R_factor_all            .024
loop_
_symmetry_equiv_pos_site_id
_symmetry_equiv_pos_as_xyz
  1	'x+.5, -y+.5, z'
  2	'-x+.5, y+.5, z+.5'
  3	'-x, -y, z+.5'
  4	'x, y, z'
loop_
_atom_type_symbol
_atom_type_oxidation_number
K1+	1
O2-	-2
P5+	5
Ti4+	4
loop_
_atom_site_label
_atom_site_type_symbol
_atom_site_symmetry_multiplicity
_atom_site_Wyckoff_symbol
_atom_site_fract_x
_atom_site_fract_y
_atom_site_fract_z
_atom_site_occupancy
_atom_site_attached_hydrogens
K1 K1+ 4 a 0.37807(8) 0.7806(1) 0.6880(1) 1. 0 
K2 K1+ 4 a 0.10526(7) 0.6990(1) 0.9332(1) 1. 0 
Ti1 Ti4+ 4 a 0.37290(4) 0.5001(1) 0.99960(8) 1. 0 
Ti2 Ti4+ 4 a 0.24658(6) 0.2695(5) 0.74836(9) 1. 0 
P1 P5+ 4 a 0.49808(8) 0.3363(1) 0.7397(1) 1. 0 
P2 P5+ 4 a 0.18079(7) 0.5020(1) 0.4872(1) 1. 0 
O1 O2- 4 a 0.4859(2) 0.4867(5) 0.8497(2) 1. 0 
O2 O2- 4 a 0.5103(2) 0.4657(5) 0.6170(2) 1. 0 
O3 O2- 4 a 0.4004(2) 0.1986(4) 0.7208(2) 1. 0 
O4 O2- 4 a 0.5934(2) 0.1930(4) 0.7589(2) 1. 0 
O5 O2- 4 a 0.2248(2) 0.9653(4) 0.3561(2) 1. 0 
O6 O2- 4 a 0.2232(2) 0.0413(5) 0.6097(2) 1. 0 
O7 O2- 4 a 0.1126(2) 0.3106(4) 0.4585(2) 1. 0 
O8 O2- 4 a 0.1113(2) 0.6918(4) 0.5117(3) 1. 0 
O9 O2- 4 a 0.2525(2) 0.5402(5) 0.3718(2) 1. 0 
O10 O2- 4 a 0.2528(2) 0.4619(5) 0.6008(2) 1. 0 

loop_
_atom_site_aniso_label
_atom_site_aniso_type_symbol
_atom_site_aniso_U_11
_atom_site_aniso_U_22
_atom_site_aniso_U_33
_atom_site_aniso_U_12
_atom_site_aniso_U_13
_atom_site_aniso_U_23
K1 K1+ 0.0246(5) 0.0122(4) 0.0239(4) 0.0040(3) -.0059(4) -.0016(3)
K2 K1+ 0.0142(5) 0.0212(4) 0.0282(4) 0.0051(3) 0.0000(4) 0.0048(4)
Ti1 Ti4+ 0.0075(3) 0.0061(2) 0.0067(2) -.0002(3) 0.0000(3) -.0009(2)
Ti2 Ti4+ 0.0072(3) 0.0064(2) 0.0062(2) 0.0000(2) -.0005(2) 0.0002(3)
P1 P5+ 0.0061(4) 0.0067(3) 0.0077(3) -.0003(3) 0.0005(3) -.0005(4)
P2 P5+ 0.0085(4) 0.0054(3) 0.0071(3) -.0001(4) -.0010(2) 0.0005(3)
O1 O2- 0.009(1) 0.012(1) 0.012(1) -.004(1) 0.002(1) -.0037(9)
O2 O2- 0.010(2) 0.012(1) 0.011(1) 0.001(1) 0.001(1) 0.003(1)
O3 O2- 0.010(1) 0.007(1) 0.013(1) -.0004(9) -.0002(9) 0.000(1)
O4 O2- 0.007(1) 0.010(1) 0.012(1) 0.0003(9) -.001(1) 0.001(1)
O5 O2- 0.008(1) 0.008(1) 0.011(1) -.002(1) 0.0026(9) -.0016(9)
O6 O2- 0.009(2) 0.011(1) 0.011(1) 0.000(1) -.0036(9) -.0018(9)
O7 O2- 0.011(1) 0.006(1) 0.012(1) -.002(1) -.001(1) -.0014(9)
O8 O2- 0.012(1) 0.008(1) 0.014(1) 0.001(1) 0.002(1) 0.001(1)
O9 O2- 0.010(2) 0.009(1) 0.010(1) 0.001(1) 0.0028(9) 0.001(1)
O10 O2- 0.012(2) 0.012(1) 0.009(1) -.004(1) -.003(1) 0.0035(9)
#End of data_68705-ICSD


