data_169888-ICSD
#?2014 by Fachinformationszentrum Karlsruhe, and the U.S. Secretary of 
#Commerce on behalf of the United States.  All rights reserved.
_database_code_ICSD                169888
_audit_creation_date               2011/08/01
_chemical_name_systematic
;
Potassium Scandium Tetrakis(boron Tetrahydride)
;
_chemical_formula_structural       'K Sc (B H4)4'
_chemical_formula_sum              'H16 B4 K1 Sc1'
_publ_section_title
;
Structure and characterization of K Sc (B H4)4
;
loop_
_citation_id
_citation_journal_abbrev
_citation_year
_citation_journal_volume
_citation_page_first
_citation_page_last
_citation_journal_id_ASTM
primary 'Journal of Physical Chemistry C' 2010 114 19540 19549 JPCCCK
_publ_author_name
;
Cerny, R.;Ravnsbaek, D.B.;Severa, G.;Filinchuk, Ya.;D'Anna, 
V.;Hagemann, H.;Haase, D.;Skibsted, J.;Jensen, C.M.;Jensen, T.R.
;
_cell_length_a                     11.8558(47)
_cell_length_b                     7.7998(34)
_cell_length_c                     10.1258(63)
_cell_angle_alpha                  90.
_cell_angle_beta                   90.
_cell_angle_gamma                  90.
_cell_volume                       936.36
_cell_formula_units_Z              4
_symmetry_space_group_name_H-M     'P n m a'
_symmetry_Int_Tables_number        62
_refine_ls_R_factor_all            .0333
loop_
_symmetry_equiv_pos_site_id
_symmetry_equiv_pos_as_xyz
  1	'x+.5, y, -z+.5'
  2	'x, -y+.5, z'
  3	'-x+.5, y+.5, z+.5'
  4	'-x, -y, -z'
  5	'-x+.5, -y, z+.5'
  6	'-x, y+.5, -z'
  7	'x+.5, -y+.5, -z+.5'
  8	'x, y, z'
loop_
_atom_type_symbol
_atom_type_oxidation_number
B3+	3
H1-	-1
K1+	1
Sc3+	3
loop_
_atom_site_label
_atom_site_type_symbol
_atom_site_symmetry_multiplicity
_atom_site_Wyckoff_symbol
_atom_site_fract_x
_atom_site_fract_y
_atom_site_fract_z
_atom_site_occupancy
_atom_site_attached_hydrogens
_atom_site_B_iso_or_equiv
K1 K1+ 4 c 0.1947(16) 0.25 0.6527(17) 1 0 3.65(88) 
Sc1 Sc3+ 4 c 0.0640(16) 0.25 0.2152(15) 1 0 3.65(88) 
B1 B3+ 4 c 0.1647(32) 0.25 0.0150(23) 1 0 3.65(88) 
H1 H1- 4 c 0.2342(48) 0.25 0.0939(74) 1 0 3.65(88) 
H2 H1- 4 c 0.2050(75) 0.25 -0.0881(39) 1 0 3.65(88) 
H3 H1- 8 d 0.1097(33) 0.37018(21) 0.0271(41) 1 0 3.65(88) 
B2 B3+ 4 c 0.3819(21) 0.25 0.3840(45) 1 0 3.65(88) 
H4 H1- 4 c 0.3790(37) 0.25 0.2706(45) 1 0 3.65(88) 
H5 H1- 4 c 0.2917(28) 0.25 0.4251(69) 1 0 3.65(88) 
H6 H1- 8 d 0.4286(26) 0.37018(21) 0.4201(43) 1 0 3.65(88) 
B3 B3+ 8 d 0.0901(15) 0.0137(21) 0.3431(18) 1 0 3.65(88) 
H7 H1- 8 d 0.080(13) -0.1071(38) 0.4069(53) 1 0 3.65(88) 
H8 H1- 8 d 0.058(12) -0.0137(51) 0.2383(28) 1 0 3.65(88) 
H9 H1- 8 d 0.183(10) 0.052(18) 0.339(10) 1 0 3.65(88) 
H10 H1- 8 d 0.0386(90) 0.124(22) 0.3886(94) 1 0 3.65(88) 

#End of data_169888-ICSD


