data_248043-ICSD
#?2014 by Fachinformationszentrum Karlsruhe, and the U.S. Secretary of 
#Commerce on behalf of the United States.  All rights reserved.
_database_code_ICSD                248043
_audit_creation_date               2010/08/01
_audit_update_record               2013/02/01
_chemical_name_systematic          'Barium Magnesium Borate Fluoride'
_chemical_formula_structural       'Ba Mg (B O3) F'
_chemical_formula_sum              'B1 Ba1 F1 Mg1 O3'
_publ_section_title
;
Cation coordination control of anionic group alignment to maximize 
SHG effects in the Ba M B O3 F (M = Zn, Mg) series
;
loop_
_citation_id
_citation_journal_abbrev
_citation_year
_citation_journal_volume
_citation_journal_issue
_citation_page_first
_citation_page_last
_citation_journal_id_ASTM
primary 'Inorganic Chemistry' 2010 49 4 1561 1565 INOCAJ
_publ_author_name                  'Li, R.K.;Chen Peng'
_cell_length_a                     17.614(3)
_cell_length_b                     30.546(6)
_cell_length_c                     8.0604(16)
_cell_angle_alpha                  90.00
_cell_angle_beta                   90.008(2)
_cell_angle_gamma                  90.00
_cell_volume                       4336.8
_cell_formula_units_Z              48
_symmetry_space_group_name_H-M     'C 1 c 1'
_symmetry_Int_Tables_number        9
_refine_ls_R_factor_all            .0623
loop_
_symmetry_equiv_pos_site_id
_symmetry_equiv_pos_as_xyz
  1	'x, -y, z+.5'
  2	'x, y, z'
  3	'x+.5, -y+.5, z+.5'
  4	'x+.5, y+.5, z'
loop_
_atom_type_symbol
_atom_type_oxidation_number
B3+	3
Ba2+	2
F1-	-1
Mg2+	2
O2-	-2
loop_
_atom_site_label
_atom_site_type_symbol
_atom_site_symmetry_multiplicity
_atom_site_Wyckoff_symbol
_atom_site_fract_x
_atom_site_fract_y
_atom_site_fract_z
_atom_site_occupancy
_atom_site_attached_hydrogens
_atom_site_U_iso_or_equiv
Ba1 Ba2+ 4 a 0.19396(7) 0.09475(3) 0.29598(14) 1 0 0.0064(3) 
Ba2 Ba2+ 4 a -0.08700(7) 0.00167(4) 0.28223(16) 1 0 0.0049(3) 
Ba3 Ba2+ 4 a 0.20613(6) 0.09220(3) 0.79416(14) 1 0 0.0052(3) 
Ba4 Ba2+ 4 a -0.05944(6) 0.15403(3) 0.32395(13) 1 0 0.0027(3) 
Ba5 Ba2+ 4 a -0.30802(7) 0.09646(4) 0.31035(15) 1 0 0.0068(3) 
Ba6 Ba2+ 4 a 0.44593(6) 0.15493(4) 0.32512(14) 1 0 0.0064(3) 
Ba7 Ba2+ 4 a -0.04187(7) 0.15753(3) 0.82388(13) 1 0 0.0037(3) 
Ba8 Ba2+ 4 a 0.41456(7) 0.00534(4) 0.29372(16) 1 0 0.0094(3) 
Ba9 Ba2+ 4 a -0.33558(7) 0.24706(4) 0.33757(15) 1 0 0.0055(3) 
Ba10 Ba2+ 4 a 0.16296(7) 0.24635(4) 0.33813(15) 1 0 0.0047(3) 
Ba11 Ba2+ 4 a -0.29145(7) -0.09405(4) 0.31076(14) 1 0 0.0072(3) 
Ba12 Ba2+ 4 a 0.45658(7) 0.15616(3) 0.82633(14) 1 0 0.0063(3) 
Mg1 Mg2+ 4 a 0.2421(4) -0.00077(19) 1.0314(8) 1 0 0.0028(12) 
Mg2 Mg2+ 4 a 0.0298(3) 0.07027(19) 0.5335(7) 1 0 0.001 
Mg3 Mg2+ 4 a 0.0349(3) 0.07067(18) 1.0311(7) 1 0 0.0010(11) 
Mg4 Mg2+ 4 a -0.2177(4) 0.1809(2) 0.0812(8) 1 0 0.0054(13) 
Mg5 Mg2+ 4 a 0.2796(3) 0.17963(19) 0.0819(7) 1 0 0.0012(12) 
Mg6 Mg2+ 4 a -0.0088(4) 0.2502(2) 0.5793(8) 1 0 0.0052(13) 
Mg7 Mg2+ 4 a -0.2132(4) -0.18076(19) 0.0875(8) 1 0 0.0024(12) 
Mg8 Mg2+ 4 a -0.0075(4) 0.24898(19) 1.0829(7) 1 0 0.001 
Mg9 Mg2+ 4 a 0.2849(4) 0.17939(19) 0.5888(8) 1 0 0.0029(12) 
Mg10 Mg2+ 4 a -0.2541(4) 0.0010(2) 0.5575(9) 1 0 0.0109(15) 
Mg11 Mg2+ 4 a -0.4689(4) 0.0691(2) 0.5569(9) 1 0 0.0132(15) 
Mg12 Mg2+ 4 a 0.5366(4) 0.0692(2) 1.0439(9) 1 0 0.0116(15) 
F1 F1- 4 a 0.0132(6) 0.0680(3) 0.7829(14) 1 0 0.010(2) 
F2 F1- 4 a 0.2449(6) 0.0000(4) 0.7804(14) 1 0 0.010(2) 
F3 F1- 4 a -0.4891(7) 0.0680(3) 0.7967(14) 1 0 0.012(2) 
F4 F1- 4 a -0.2528(6) -0.0125(3) 0.8060(13) 1 0 0.007(2) 
F5 F1- 4 a 0.0447(6) 0.0736(4) 0.2818(14) 1 0 0.012(2) 
F6 F1- 4 a -0.2064(6) 0.1807(3) 0.3366(13) 1 0 0.009(2) 
F7 F1- 4 a 0.2619(6) 0.1822(3) 0.8352(13) 1 0 0.008(2) 
F8 F1- 4 a 0.5468(7) 0.0715(5) 0.2973(15) 1 0 0.023(3) 
F9 F1- 4 a 0.2974(6) 0.1728(3) 0.3358(14) 1 0 0.011(2) 
F10 F1- 4 a -0.0046(7) 0.2542(4) 0.8326(16) 1 0 0.021(3) 
F11 F1- 4 a -0.2366(6) -0.1815(4) 0.3383(14) 1 0 0.013(2) 
F12 F1- 4 a -0.0062(7) 0.2428(4) 0.3334(16) 1 0 0.019(3) 
O1 O2- 4 a -0.1694(7) -0.0411(4) 0.5231(16) 1 0 0.006(3) 
O2 O2- 4 a 0.3329(8) 0.0397(4) 0.0219(17) 1 0 0.010(3) 
O3 O2- 4 a 0.0940(8) 0.1254(4) 0.9965(18) 1 0 0.013(3) 
O4 O2- 4 a -0.1559(9) -0.1261(5) 0.1219(19) 1 0 0.019(3) 
O5 O2- 4 a -0.3553(7) -0.0368(4) 0.5413(16) 1 0 0.005(3) 
O6 O2- 4 a 0.4305(7) 0.0937(4) 0.0788(15) 1 0 0.001 
O7 O2- 4 a 0.3436(8) 0.1243(4) 0.6270(18) 1 0 0.014(3) 
O8 O2- 4 a -0.0791(8) 0.0727(5) 0.4838(18) 1 0 0.015(3) 
O9 O2- 4 a -0.4714(8) -0.0021(4) 0.5518(18) 1 0 0.012(3) 
O10 O2- 4 a -0.3616(8) 0.0409(4) 0.5702(16) 1 0 0.007(3) 
O11 O2- 4 a -0.0686(8) 0.0937(5) 0.0589(18) 1 0 0.011(3) 
O12 O2- 4 a 0.1815(7) 0.1575(4) 0.5501(16) 1 0 0.003(2) 
O13 O2- 4 a -0.2264(7) -0.2494(4) 0.0856(15) 1 0 0.004(2) 
O14 O2- 4 a 0.1443(7) 0.0369(4) 0.0271(15) 1 0 0.002(2) 
O15 O2- 4 a -0.2274(7) 0.2523(4) 0.0793(14) 1 0 0.001(2) 
O16 O2- 4 a 0.0218(7) -0.0014(4) 0.5354(16) 1 0 0.006(3) 
O17 O2- 4 a 0.0803(8) 0.2084(4) 0.6044(16) 1 0 0.008(3) 
O18 O2- 4 a 0.1711(8) 0.1766(5) 0.1368(18) 1 0 0.013(3) 
O19 O2- 4 a -0.1058(7) 0.2143(4) 0.5910(15) 1 0 0.003(2) 
O20 O2- 4 a -0.1046(7) 0.2883(4) 0.0904(16) 1 0 0.006(3) 
O21 O2- 4 a -0.1995(7) 0.1169(4) 0.0785(15) 1 0 0.001(2) 
O22 O2- 4 a 0.3892(7) 0.2091(4) 0.0690(15) 1 0 0.003(2) 
O23 O2- 4 a 0.1370(7) 0.0416(4) 0.5459(15) 1 0 0.003(2) 
O24 O2- 4 a -0.3196(8) -0.1564(4) 0.0628(18) 1 0 0.012(3) 
O25 O2- 4 a 0.2944(7) -0.0578(4) 0.0259(16) 1 0 0.005(3) 
O26 O2- 4 a -0.4494(8) 0.1341(4) 0.5642(17) 1 0 0.010(3) 
O27 O2- 4 a 0.0500(8) 0.1339(4) 0.5534(16) 1 0 0.007(3) 
O28 O2- 4 a 0.5939(8) 0.1246(5) 0.0065(19) 1 0 0.016(3) 
O29 O2- 4 a -0.1989(8) 0.0532(4) 0.5993(17) 1 0 0.010(3) 
O30 O2- 4 a 0.0827(8) 0.2902(4) 0.0983(16) 1 0 0.008(3) 
O31 O2- 4 a -0.3271(8) 0.1772(5) 0.1364(18) 1 0 0.015(3) 
O32 O2- 4 a -0.1125(8) 0.2099(4) 0.0693(16) 1 0 0.009(3) 
O33 O2- 4 a 0.4236(8) 0.0728(5) 0.4912(17) 1 0 0.012(3) 
O34 O2- 4 a 0.0458(11) 0.1927(6) 0.076(2) 1 0 0.035(5) 
O35 O2- 4 a 0.3015(8) 0.1146(5) 0.0585(17) 1 0 0.012(3) 
O36 O2- 4 a 0.5488(12) 0.1962(7) 0.051(3) 1 0 0.041(5) 
B1 B3+ 4 a -0.1478(13) 0.2497(7) 0.083(3) 1 0 0.004(4) 
B2 B3+ 4 a -0.1464(13) 0.2510(7) 0.576(3) 1 0 0.005(4) 
B3 B3+ 4 a 0.1024(12) 0.0002(6) 0.031(2) 1 0 0.002(4) 
B4 B3+ 4 a 0.1056(14) 0.1669(8) 0.067(3) 1 0 0.012(4) 
B5 B3+ 4 a 0.3564(13) 0.0830(7) 0.059(3) 1 0 0.009(4) 
B6 B3+ 4 a 0.3529(12) 0.0861(6) 0.554(3) 1 0 0.002 
B7 B3+ 4 a 0.1032(12) 0.1686(6) 0.570(2) 1 0 0.002 
B8 B3+ 4 a -0.1494(12) 0.0837(7) 0.055(3) 1 0 0.005(4) 
B9 B3+ 4 a -0.1470(14) 0.0829(7) 0.567(3) 1 0 0.012(5) 
B10 B3+ 4 a 0.6083(12) 0.1649(6) 0.070(3) 1 0 0.004(4) 
B11 B3+ 4 a -0.3908(12) 0.1634(6) 0.577(3) 1 0 0.004(4) 
B12 B3+ 4 a -0.3997(18) 0.0027(10) 0.558(4) 1 0 0.024(6) 

loop_
_atom_site_aniso_label
_atom_site_aniso_type_symbol
_atom_site_aniso_U_11
_atom_site_aniso_U_22
_atom_site_aniso_U_33
_atom_site_aniso_U_12
_atom_site_aniso_U_13
_atom_site_aniso_U_23
Ba1 Ba2+ 0.0071(7) 0.0010(5) 0.0112(8) -0.0009(4) -0.0033(6) 0.0024(4)
Ba3 Ba2+ 0.0029(6) 0.0024(5) 0.0104(8) -0.0005(4) 0.0051(5) -0.0012(4)
Ba5 Ba2+ 0.0063(7) 0.0093(5) 0.0049(7) 0.0013(4) 0.0019(5) -0.0018(4)
Ba6 Ba2+ 0.0069(8) 0.0071(5) 0.0051(6) 0.0016(4) -0.0030(5) -0.0012(4)
Ba7 Ba2+ 0.0029(6) 0.0020(4) 0.0061(6) 0.0016(4) -0.0022(5) -0.0004(4)
Ba8 Ba2+ 0.0067(7) 0.0058(5) 0.0157(8) -0.0008(5) -0.0010(6) 0.0038(5)
Ba9 Ba2+ 0.0052(6) 0.0053(6) 0.0060(5) 0.0006(4) -0.0033(4) -0.0013(4)
Ba10 Ba2+ 0.0044(6) 0.0066(5) 0.0033(5) -0.0020(4) 0.0022(4) 0.0000(4)
Ba11 Ba2+ 0.0074(6) 0.0088(5) 0.0053(7) 0.0007(4) -0.0007(5) 0.0000(4)
Ba12 Ba2+ 0.0078(6) 0.0060(5) 0.0052(6) 0.0002(4) -0.0004(5) 0.0021(4)
Mg1 Mg2+ 0.010(4) 0.016(4) 0.014(4) 0.002(3) -0.002(3) 0.001(3)
Mg11 Mg2+ 0.010(4) 0.016(4) 0.014(4) 0.002(3) -0.002(3) 0.001(3)
F2 F1- 0.004(6) 0.019(6) 0.007(6) -0.001(4) 0.003(4) 0.000(4)
F3 F1- 0.020(7) 0.006(5) 0.009(6) -0.009(4) 0.005(5) -0.001(4)
F8 F1- 0.010(6) 0.046(8) 0.012(6) 0.003(6) 0.002(5) -0.008(6)
#End of data_248043-ICSD


