data_24458-ICSD
#?2014 by Fachinformationszentrum Karlsruhe, and the U.S. Secretary of 
#Commerce on behalf of the United States.  All rights reserved.
_database_code_ICSD                24458
_audit_creation_date               1980/01/01
_audit_update_record               2007/08/01
_chemical_name_systematic
;
Disodium Tricalcium Closo-octaoxopentaborate Bis(sulfate(VI)) 
Dihydroxide Chloride
;
_chemical_formula_structural       'Na2 Ca3 (B5 O8) (S O4)2 (O H)2 Cl'
_chemical_formula_sum              'H2 B5 Ca3 Cl1 Na2 O18 S2'
_chemical_name_mineral             Heidornite
_publ_section_title
;
Die Struktur des Heidornit, Ca3 Na2 Cl (S O4)2 B5 O8 (O H)2
;
loop_
_citation_id
_citation_journal_abbrev
_citation_year
_citation_journal_volume
_citation_page_first
_citation_page_last
_citation_journal_id_ASTM
primary 'Neues Jahrbuch fuer Mineralogie. Monatshefte (Band=Jahr) (1950-)'
 1967 1967 157 169 NJMMAW
_publ_author_name                  'Burzlaff, H.'
_cell_length_a                     10.21
_cell_length_b                     7.84
_cell_length_c                     18.78999
_cell_angle_alpha                  90.
_cell_angle_beta                   93.5
_cell_angle_gamma                  90.
_cell_volume                       1501.27
_cell_formula_units_Z              4
_symmetry_space_group_name_H-M     'C 1 2/c 1'
_symmetry_Int_Tables_number        15
_refine_ls_R_factor_all            .115
loop_
_symmetry_equiv_pos_site_id
_symmetry_equiv_pos_as_xyz
  1	'x, -y, z+.5'
  2	'-x, -y, -z'
  3	'-x, y, -z+.5'
  4	'x, y, z'
  5	'x+.5, -y+.5, z+.5'
  6	'-x+.5, -y+.5, -z'
  7	'-x+.5, y+.5, -z+.5'
  8	'x+.5, y+.5, z'
loop_
_atom_type_symbol
_atom_type_oxidation_number
B3+	3
Ca2+	2
Cl1-	-1
H1+	1
Na1+	1
O2-	-2
S6+	6
loop_
_atom_site_label
_atom_site_type_symbol
_atom_site_symmetry_multiplicity
_atom_site_Wyckoff_symbol
_atom_site_fract_x
_atom_site_fract_y
_atom_site_fract_z
_atom_site_occupancy
_atom_site_attached_hydrogens
_atom_site_B_iso_or_equiv
Na1 Na1+ 8 f 0.1564(3) 0.2781(4) 0.0770(2) 1. 0 1.55(6) 
Ca1 Ca2+ 4 e 0 0.3933(2) 0.25 1. 0 0.31(4) 
Ca2 Ca2+ 8 f 0.4100(1) 0.2425(2) 0.40308(6) 1. 0 0.47(4) 
B1 B3+ 8 f 0.3348(7) 0.4866(8) 0.1829(3) 1. 0 0.6(1) 
B2 B3+ 8 f 0.2620(7) 0.2314(8) 0.2504(3) 1. 0 0.5(1) 
B3 B3+ 4 e 0.5 0.3054(13) 0.25 1. 0 0.89(15) 
S1 S6+ 8 f 0.1371(2) 0.4779(2) 0.42205(7) 1. 0 0.47(4) 
Cl1 Cl1- 4 a 0 0 0 1. 0 1.02(5) 
O1 O2- 8 f 0.0129(5) 0.4537(6) 0.3757(2) 1. 0 1.32(9) 
O2 O2- 8 f 0.1407(6) 0.3531(7) 0.4795(3) 1. 0 1.59(9) 
O3 O2- 8 f 0.2503(6) 0.4555(6) 0.3780(3) 1. 0 1.55(9) 
O4 O2- 8 f 0.1350(5) 0.6534(6) 0.4502(2) 1. 0 1.30(8) 
O5 O2- 8 f 0.1552(5) 0.1419(6) 0.2717(2) 1. 0 0.85(7) 
O6 O2- 8 f 0.2278(5) 0.3716(5) 0.2098(2) 1. 0 0.67(7) 
O7 O2- 8 f 0.4616(5) 0.4004(5) 0.1845(2) 1. 0 0.72(8) 
O8 O2- 8 f 0.3899(5) 0.1893(6) 0.2706(2) 1. 0 0.77(7) 
O9 O2- 8 f 0.2799(5) 0.5355(5) 0.1116(2) 1. 0 0.77(8) 
H1 H1+ 8 f 0.1934 0.0167 0.4465 1. 0 0.72(8) 

#End of data_24458-ICSD


