data_423976-ICSD
#?2014 by Fachinformationszentrum Karlsruhe, and the U.S. Secretary of 
#Commerce on behalf of the United States.  All rights reserved.
_database_code_ICSD                423976
_audit_creation_date               2012/08/01
_chemical_name_systematic          'Magnesium Bis(nitrate) Dihydrate'
_chemical_formula_structural       'Mg (N O3)2 (H2 O)2'
_chemical_formula_sum              'H4 Mg1 N2 O8'
_publ_section_title
;
Investigation of low-hydrated metal(II) nitrates. Syntheses and 
crystal structures of Zn (N O3)2 ¨² H2 O and M(II) (N O3)2 ¨² 2 H2 O (M 
= Mg, Mn, Co, Ni)
;
loop_
_citation_id
_citation_journal_abbrev
_citation_year
_citation_journal_volume
_citation_journal_issue
_citation_page_first
_citation_page_last
_citation_journal_id_ASTM
primary 'Zeitschrift fuer Kristallographie - Crystalline Materials'
 2012 227 3 129 140 ZKCMAJ
_publ_author_name
;
Wildner, M.;Giester, G.;Lengauer, C.L.;Zemann, J.
;
_cell_length_a                     5.7795(10)
_cell_length_b                     5.9860(10)
_cell_length_c                     8.601(2)
_cell_angle_alpha                  90.00
_cell_angle_beta                   90.907(10)
_cell_angle_gamma                  90.00
_cell_volume                       297.52
_cell_formula_units_Z              2
_symmetry_space_group_name_H-M     'P 1 21/c 1'
_symmetry_Int_Tables_number        14
_refine_ls_R_factor_all            .0356
loop_
_symmetry_equiv_pos_site_id
_symmetry_equiv_pos_as_xyz
  1	'x, -y+.5, z+.5'
  2	'-x, -y, -z'
  3	'-x, y+.5, -z+.5'
  4	'x, y, z'
loop_
_atom_type_symbol
_atom_type_oxidation_number
H1+	1
Mg2+	2
N5+	5
O2-	-2
loop_
_atom_site_label
_atom_site_type_symbol
_atom_site_symmetry_multiplicity
_atom_site_Wyckoff_symbol
_atom_site_fract_x
_atom_site_fract_y
_atom_site_fract_z
_atom_site_occupancy
_atom_site_attached_hydrogens
_atom_site_U_iso_or_equiv
Mg1 Mg2+ 2 c 0.0000 0.0000 0.5000 1 0 0.01615(15) 
N1 N5+ 4 e 0.24619(16) 0.33733(16) 0.29685(11) 1 0 0.01726(19) 
O1 O2- 4 e 0.05549(14) 0.36890(16) 0.22757(10) 1 0 0.0228(2) 
O2 O2- 4 e 0.42796(15) 0.41504(17) 0.24792(12) 1 0 0.0276(2) 
O3 O2- 4 e 0.24862(15) 0.22237(15) 0.42049(10) 1 0 0.0216(2) 
O4 O2- 4 e 0.24974(16) 0.75943(16) 0.51031(12) 1 0 0.0221(2) 
H1 H1+ 4 e 0.383(6) 0.783(5) 0.489(4) 1 0 0.087(10) 
H2 H1+ 4 e 0.264(5) 0.705(5) 0.593(4) 1 0 0.083(10) 

loop_
_atom_site_aniso_label
_atom_site_aniso_type_symbol
_atom_site_aniso_U_11
_atom_site_aniso_U_22
_atom_site_aniso_U_33
_atom_site_aniso_U_12
_atom_site_aniso_U_13
_atom_site_aniso_U_23
Mg1 Mg2+ 0.0153(2) 0.0176(3) 0.0155(3) 0.00019(18) -0.00042(17) 
-0.00061(19)
N1 N5+ 0.0182(4) 0.0179(4) 0.0156(4) -0.0005(3) -0.0008(3) 0.0016(3)
O1 O2- 0.0189(4) 0.0307(5) 0.0185(4) -0.0002(3) -0.0044(3) 0.0056(3)
O2 O2- 0.0201(4) 0.0345(5) 0.0282(5) -0.0042(3) 0.0031(3) 0.0099(4)
O3 O2- 0.0214(4) 0.0252(4) 0.0180(4) -0.0022(3) -0.0022(3) 0.0082(3)
O4 O2- 0.0192(4) 0.0232(4) 0.0239(5) 0.0034(3) -0.0026(3) 0.0000(3)
#End of data_423976-ICSD


