data_16178-ICSD
#?2014 by Fachinformationszentrum Karlsruhe, and the U.S. Secretary of 
#Commerce on behalf of the United States.  All rights reserved.
_database_code_ICSD                16178
_audit_creation_date               1980/01/01
_audit_update_record               2009/02/01
_chemical_name_systematic
;
Potassium Difluoroboratodiberyllate
;
_chemical_formula_structural       'K (Be2 (B O3) F2)'
_chemical_formula_sum              'B1 Be2 F2 K1 O3'
_publ_section_title
;
Crystal structure of potassium boratofluoroberyllate, K Be2 (B O3) F2
;
loop_
_citation_id
_citation_journal_abbrev
_citation_year
_citation_journal_volume
_citation_page_first
_citation_page_last
_citation_journal_id_ASTM
primary Kristallografiya 1970 15 922 925 KRISAJ
2 'Soviet Physics, Crystallography (= Kristallografiya)'
 1970 15 802 805 SPHCA6
_publ_author_name
;
Solov'eva, L.P.;Bakakin, V.V.
;
_cell_length_a                     7.718(6)
_cell_length_b                     4.444(2)
_cell_length_c                     6.790(3)
_cell_angle_alpha                  90.
_cell_angle_beta                   112.8(1)
_cell_angle_gamma                  90.
_cell_volume                       214.69
_cell_formula_units_Z              2
_symmetry_space_group_name_H-M     'C 1 2 1'
_symmetry_Int_Tables_number        5
_refine_ls_R_factor_all            .131
loop_
_symmetry_equiv_pos_site_id
_symmetry_equiv_pos_as_xyz
  1	'-x, y, -z'
  2	'x, y, z'
  3	'-x+.5, y+.5, -z'
  4	'x+.5, y+.5, z'
loop_
_atom_type_symbol
_atom_type_oxidation_number
B3+	3
Be2+	2
F1-	-1
K1+	1
O2-	-2
loop_
_atom_site_label
_atom_site_type_symbol
_atom_site_symmetry_multiplicity
_atom_site_Wyckoff_symbol
_atom_site_fract_x
_atom_site_fract_y
_atom_site_fract_z
_atom_site_occupancy
_atom_site_attached_hydrogens
_atom_site_B_iso_or_equiv
K1 K1+ 2 a 0 0 0 1. 0 2. 
B1 B3+ 2 b 0 0.519(9) 0.5 1. 0 1.7 
Be1 Be2+ 4 c 0.198(2) 0.025(7) 0.590(3) 1. 0 1.6 
O1 O2- 2 b 0 0.190(4) 0.5 1. 0 1.8 
O2 O2- 4 c 0.344(1) 0.157(3) 0.498(2) 1. 0 2. 
F1 F1- 4 c 0.222(1) 0.496(4) 0.165(1) 1. 0 2.6 

#End of data_16178-ICSD


