data_181463-ICSD
#?2014 by Fachinformationszentrum Karlsruhe, and the U.S. Secretary of 
#Commerce on behalf of the United States.  All rights reserved.
_database_code_ICSD                181463
_audit_creation_date               2012/02/01
_chemical_name_systematic          'Magnesium Oxide - P6/mcc, Unstable'
_chemical_formula_structural       'Mg O'
_chemical_formula_sum              'Mg1 O1'
_publ_section_title
;
Structural richness of ionic binary materials: an exploration of the 
energy landscape of magnesium oxide
;
loop_
_citation_id
_citation_journal_abbrev
_citation_year
_citation_journal_volume
_citation_page_first
_citation_page_last
_citation_journal_id_ASTM
primary 'Physical Review, Serie 3. B - Condensed Matter (18,1978-)'
 2011 83 024104-1 024104-9 PRBMDO
_publ_author_name                  'Zwijnenburg, M.A.;Bromley, S.T.'
_cell_length_a                     9.6822
_cell_length_b                     9.6822
_cell_length_c                     4.1805
_cell_angle_alpha                  90.
_cell_angle_beta                   90.
_cell_angle_gamma                  120.
_cell_volume                       339.4
_cell_formula_units_Z              12
_symmetry_space_group_name_H-M     'P 6/m c c'
_symmetry_Int_Tables_number        192
loop_
_symmetry_equiv_pos_site_id
_symmetry_equiv_pos_as_xyz
  1	'x, x-y, z+.5'
  2	'-x+y, y, z+.5'
  3	'-y, -x, z+.5'
  4	'x, x-y, -z+.5'
  5	'-x+y, y, -z+.5'
  6	'-y, -x, -z+.5'
  7	'x-y, x, z'
  8	'y, -x+y, z'
  9	'-x, -y, z'
 10	'x-y, x, -z'
 11	'y, -x+y, -z'
 12	'-x, -y, -z'
 13	'-x, -x+y, -z+.5'
 14	'x-y, -y, -z+.5'
 15	'y, x, -z+.5'
 16	'-x, -x+y, z+.5'
 17	'x-y, -y, z+.5'
 18	'y, x, z+.5'
 19	'-x+y, -x, -z'
 20	'-y, x-y, -z'
 21	'x, y, -z'
 22	'-x+y, -x, z'
 23	'-y, x-y, z'
 24	'x, y, z'
loop_
_atom_type_symbol
_atom_type_oxidation_number
Mg2+	2
O2-	-2
loop_
_atom_site_label
_atom_site_type_symbol
_atom_site_symmetry_multiplicity
_atom_site_Wyckoff_symbol
_atom_site_fract_x
_atom_site_fract_y
_atom_site_fract_z
_atom_site_occupancy
_atom_site_attached_hydrogens
Mg1 Mg2+ 12 l 0.12273 0.45452 0 1. 0 
O2 O2- 12 l 0.12274 0.45184 0.5 1. 0 

#End of data_181463-ICSD


