data_16762-ICSD
#?2014 by Fachinformationszentrum Karlsruhe, and the U.S. Secretary of 
#Commerce on behalf of the United States.  All rights reserved.
_database_code_ICSD                16762
_audit_creation_date               1984/09/04
_audit_update_record               1988/03/30
_chemical_name_systematic          'Sodium Catena-arsenate(III)'
_chemical_formula_structural       'Na As O2'
_chemical_formula_sum              'As1 Na1 O2'
_publ_section_title
;
The Crystal Structure of Sodium Polymetaarsenite (Na As O2)X
;
loop_
_citation_id
_citation_journal_abbrev
_citation_year
_citation_journal_volume
_citation_page_first
_citation_page_last
_citation_journal_id_ASTM
primary 'Acta Crystallographica (1,1948-23,1967)' 1958 11 742 743 ACCRA9
_publ_author_name                  'Menary, J.W.'
_cell_length_a                     14.314(5)
_cell_length_b                     6.779(5)
_cell_length_c                     5.086(5)
_cell_angle_alpha                  90.
_cell_angle_beta                   90.
_cell_angle_gamma                  90.
_cell_volume                       493.52
_cell_formula_units_Z              8
_symmetry_space_group_name_H-M     'P b c a'
_symmetry_Int_Tables_number        61
_refine_ls_R_factor_all            .15
loop_
_symmetry_equiv_pos_site_id
_symmetry_equiv_pos_as_xyz
  1	'x+.5, y, -z+.5'
  2	'x, -y+.5, z+.5'
  3	'-x+.5, y+.5, z'
  4	'-x, -y, -z'
  5	'-x+.5, -y, z+.5'
  6	'-x, y+.5, -z+.5'
  7	'x+.5, -y+.5, -z'
  8	'x, y, z'
loop_
_atom_type_symbol
_atom_type_oxidation_number
As3+	3
Na1+	1
O2-	-2
loop_
_atom_site_label
_atom_site_type_symbol
_atom_site_symmetry_multiplicity
_atom_site_Wyckoff_symbol
_atom_site_fract_x
_atom_site_fract_y
_atom_site_fract_z
_atom_site_occupancy
_atom_site_attached_hydrogens
As1 As3+ 8 c 0.08 0.103 0.25 1. 0 
O1 O2- 8 c 0.127 0.322 0.405 1. 0 
O2 O2- 8 c 0.154 0.568 0.81 1. 0 
Na1 Na1+ 8 c 0.306 0.102 0.25 1. 0 

#End of data_16762-ICSD


