data_190680-ICSD
#?2014 by Fachinformationszentrum Karlsruhe, and the U.S. Secretary of 
#Commerce on behalf of the United States.  All rights reserved.
_database_code_ICSD                190680
_audit_creation_date               2014/08/01
_chemical_name_systematic          'Dicalcium Diborate'
_chemical_formula_structural       'Ca2 (B2 O5)'
_chemical_formula_sum              'B2 Ca2 O5'
_chemical_name_mineral             Shimazakiite-4M
_publ_section_title
;
Shimazakiite-4M and shimazakiite-4O, Ca2 B2 O5, two polytypes of a 
new mineral from Fuka, Okayama prefecture, Japan
;
loop_
_citation_id
_citation_journal_abbrev
_citation_year
_citation_journal_volume
_citation_journal_issue
_citation_page_first
_citation_page_last
_citation_journal_id_ASTM
primary 'Mineralogical Magazine (1969-)' 2013 77 1 93 105 MNLMBB
_publ_author_name
;
Kusachi, I.;Kobayashi, S.;Takechi, Y.;Nakamuta, Y.;Nagase, 
T.;Yokoyama, K.;Momma, K.;Miyawaki, R.;Shigeoka, M.;Matsubara, S.
;
_cell_length_a                     3.5485(12)
_cell_length_b                     6.352(2)
_cell_length_c                     19.254(6)
_cell_angle_alpha                  90.
_cell_angle_beta                   92.393(13)
_cell_angle_gamma                  90.
_cell_volume                       433.61
_cell_formula_units_Z              4
_symmetry_space_group_name_H-M     'P 1 21/c 1'
_symmetry_Int_Tables_number        14
_refine_ls_R_factor_all            .1273
loop_
_symmetry_equiv_pos_site_id
_symmetry_equiv_pos_as_xyz
  1	'x, -y+.5, z+.5'
  2	'-x, -y, -z'
  3	'-x, y+.5, -z+.5'
  4	'x, y, z'
loop_
_atom_type_symbol
_atom_type_oxidation_number
B3+	3
Ca2+	2
O2-	-2
loop_
_atom_site_label
_atom_site_type_symbol
_atom_site_symmetry_multiplicity
_atom_site_Wyckoff_symbol
_atom_site_fract_x
_atom_site_fract_y
_atom_site_fract_z
_atom_site_occupancy
_atom_site_attached_hydrogens
_atom_site_U_iso_or_equiv
Ca1 Ca2+ 4 e 0.2885(6) 0.9493(4) 0.21050(12) 1. 0 0.0066(8) 
Ca2 Ca2+ 4 e 0.7533(6) 0.1956(4) 0.06186(12) 1. 0 0.0066(8) 
B1 B3+ 4 e 0.169(4) 0.465(2) 0.1569(7) 1. 0 0.010(3) 
B2 B3+ 4 e 0.189(4) 0.253(2) 0.4170(7) 1. 0 0.009(3) 
O1 O2- 4 e 0.758(2) 0.8077(13) 0.0149(4) 1. 0 0.0092(18) 
O2 O2- 4 e 0.771(2) 0.8908(12) 0.1336(4) 1. 0 0.0056(16) 
O3 O2- 4 e 0.285(2) 0.2684(13) 0.1481(4) 1. 0 0.0068(17) 
O4 O2- 4 e 0.972(3) 0.5495(15) 0.0971(5) 1. 0 0.019(2) 
O5 O2- 4 e 0.203(2) 0.5761(13) 0.2171(4) 1. 0 0.0074(17) 

loop_
_atom_site_aniso_label
_atom_site_aniso_type_symbol
_atom_site_aniso_U_11
_atom_site_aniso_U_22
_atom_site_aniso_U_33
_atom_site_aniso_U_12
_atom_site_aniso_U_13
_atom_site_aniso_U_23
Ca1 Ca2+ 0.0083(12) 0.0072(13) 0.0042(12) 0.0015(9) -0.0006(9) -0.0006(8)
Ca2 Ca2+ 0.0075(13) 0.0075(13) 0.0046(12) 0.0026(9) -0.0014(8) 0.0002(8)
#End of data_190680-ICSD


