data_40835-ICSD
#?2014 by Fachinformationszentrum Karlsruhe, and the U.S. Secretary of 
#Commerce on behalf of the United States.  All rights reserved.
_database_code_ICSD                40835
_audit_creation_date               2000/07/15
_chemical_name_systematic          'Barium Diargentodimercurate'
_chemical_formula_structural       'Ba (Ag2 Hg2 O4)'
_chemical_formula_sum              'Ag2 Ba1 Hg2 O4'
_publ_section_title
;
Das erste Erdalkalimetall-Argentato-Mercurat(II): Ba Ag2 Hg2 O4
;
loop_
_citation_id
_citation_journal_abbrev
_citation_year
_citation_journal_volume
_citation_page_first
_citation_page_last
_citation_journal_id_ASTM
primary 'Monatshefte fuer Chemie' 1991 122 915 920 MOCMB7
_publ_author_name                  'Soll, M.;Mueller Buschbaum, H.'
_cell_length_a                     6.786(2)
_cell_length_b                     6.786(2)
_cell_length_c                     7.080(4)
_cell_angle_alpha                  90.
_cell_angle_beta                   90.
_cell_angle_gamma                  90.
_cell_volume                       326.03
_cell_formula_units_Z              2
_symmetry_space_group_name_H-M     'P 4/n b m S'
_symmetry_Int_Tables_number        125
_refine_ls_R_factor_all            .047
loop_
_symmetry_equiv_pos_site_id
_symmetry_equiv_pos_as_xyz
  1	'y+.5, x+.5, z'
  2	'-y+.5, -x+.5, z'
  3	'y, x, -z'
  4	'-y, -x, -z'
  5	'y+.5, -x+.5, -z'
  6	'-y+.5, x+.5, -z'
  7	'y, -x, z'
  8	'-y, x, z'
  9	'x+.5, -y+.5, z'
 10	'-x+.5, y+.5, z'
 11	'x, -y, -z'
 12	'-x, y, -z'
 13	'-x+.5, -y+.5, -z'
 14	'x+.5, y+.5, -z'
 15	'-x, -y, z'
 16	'x, y, z'
loop_
_atom_type_symbol
_atom_type_oxidation_number
Ag1+	1
Ba2+	2
Hg2+	2
O2-	-2
loop_
_atom_site_label
_atom_site_type_symbol
_atom_site_symmetry_multiplicity
_atom_site_Wyckoff_symbol
_atom_site_fract_x
_atom_site_fract_y
_atom_site_fract_z
_atom_site_occupancy
_atom_site_attached_hydrogens
_atom_site_B_iso_or_equiv
Ba1 Ba2+ 2 a 0 0 0 1. 0 0.88(4) 
Ag1 Ag1+ 4 f 0.25 0.25 0.5 1. 0 1.56(4) 
Hg1 Hg2+ 4 h 0 0.5 0.2206(2) 1. 0 0.82(2) 
O1 O2- 8 m 0.205(3) 0.705(3) 0.201(3) 1. 0 1.75(8) 

#End of data_40835-ICSD


