data_88499-ICSD
#?2014 by Fachinformationszentrum Karlsruhe, and the U.S. Secretary of 
#Commerce on behalf of the United States.  All rights reserved.
_database_code_ICSD                88499
_audit_creation_date               2001/07/16
_audit_update_record               2006/04/01
_chemical_name_systematic          'Disodium Dicalcium Tritantalate'
_chemical_formula_structural       'Na2 Ca2 (Ta3 O10)'
_chemical_formula_sum              'Ca2 Na2 O10 Ta3'
_publ_section_title
;
Synthesis and structure determination of reduced tantalates, Li2 
LaTa2 O7, Li2 Ca2 Ta3 O10 and Na2 Ca2 Ta3 O10, with a layered 
perovskite structure
;
loop_
_citation_id
_citation_journal_abbrev
_citation_year
_citation_journal_volume
_citation_journal_issue
_citation_page_first
_citation_page_last
_citation_journal_id_ASTM
primary 'Journal of Materials Chemistry' 1998 9- 799 803 JMACEP
2 'Solid State Ionics' 1998 113- 501 508 SSIOD3
3 'Materials Research Bulletin' 1999 34 6 971 982 MRBUAC
_publ_author_name
;
Toda, K.;Takahashi, M.;Teranishi, T.;Ye, Z.-G.;Sato, M.;Hinatsu, Y.
;
_cell_length_a                     3.8872(5)
_cell_length_b                     3.8872(5)
_cell_length_c                     28.655(4)
_cell_angle_alpha                  90.
_cell_angle_beta                   90.
_cell_angle_gamma                  90.
_cell_volume                       432.99
_cell_formula_units_Z              2
_symmetry_space_group_name_H-M     'I 4/m m m'
_symmetry_Int_Tables_number        139
_refine_ls_R_factor_all            .027
loop_
_symmetry_equiv_pos_site_id
_symmetry_equiv_pos_as_xyz
  1	'y, x, -z'
  2	'-y, -x, -z'
  3	'-y, x, -z'
  4	'y, -x, -z'
  5	'-x, y, -z'
  6	'x, -y, -z'
  7	'x, y, -z'
  8	'-x, -y, -z'
  9	'-y, -x, z'
 10	'y, x, z'
 11	'y, -x, z'
 12	'-y, x, z'
 13	'x, -y, z'
 14	'-x, y, z'
 15	'-x, -y, z'
 16	'x, y, z'
 17	'y+.5, x+.5, -z+.5'
 18	'-y+.5, -x+.5, -z+.5'
 19	'-y+.5, x+.5, -z+.5'
 20	'y+.5, -x+.5, -z+.5'
 21	'-x+.5, y+.5, -z+.5'
 22	'x+.5, -y+.5, -z+.5'
 23	'x+.5, y+.5, -z+.5'
 24	'-x+.5, -y+.5, -z+.5'
 25	'-y+.5, -x+.5, z+.5'
 26	'y+.5, x+.5, z+.5'
 27	'y+.5, -x+.5, z+.5'
 28	'-y+.5, x+.5, z+.5'
 29	'x+.5, -y+.5, z+.5'
 30	'-x+.5, y+.5, z+.5'
 31	'-x+.5, -y+.5, z+.5'
 32	'x+.5, y+.5, z+.5'
loop_
_atom_type_symbol
_atom_type_oxidation_number
Ca2+	2
Na1+	1
O2-	-2
Ta4.667+	4.667
loop_
_atom_site_label
_atom_site_type_symbol
_atom_site_symmetry_multiplicity
_atom_site_Wyckoff_symbol
_atom_site_fract_x
_atom_site_fract_y
_atom_site_fract_z
_atom_site_occupancy
_atom_site_attached_hydrogens
_atom_site_B_iso_or_equiv
Na1 Na1+ 4 e 0 0 0.282(2) 1. 0 0.1(1) 
Ca1 Ca2+ 4 e 0 0 0.420(1) 1. 0 0.1(1) 
Ta1 Ta4.667+ 2 a 0 0 0 1. 0 0.1(1) 
Ta2 Ta4.667+ 4 e 0 0 0.1452(2) 1. 0 0.1(1) 
O1 O2- 4 c 0 0.5 0 1. 0 0.1(1) 
O2 O2- 4 e 0 0 0.067(3) 1. 0 0.1(1) 
O3 O2- 8 g 0 0.5 0.122(2) 1. 0 0.1(1) 
O4 O2- 4 e 0 0 0.202(2) 1. 0 0.1(1) 

#End of data_88499-ICSD


