data_641243-ICSD
#?2014 by Fachinformationszentrum Karlsruhe, and the U.S. Secretary of 
#Commerce on behalf of the United States.  All rights reserved.
_database_code_ICSD                641243
_audit_creation_date               2012/08/01
_chemical_name_systematic
;
Potassium Molybdenum Sulfide (2/15/19)
;
_chemical_formula_structural       'K2 Mo15 S19'
_chemical_formula_sum              'K2 Mo15 S19'
_publ_section_title
;
Chimie du solide. Nouveaux clusters dans les chalcogenures ternaire 
derivant du molybdene(II): Mo9, Mo12, (Mo3)18
;
loop_
_citation_id
_citation_journal_abbrev
_citation_year
_citation_journal_volume
_citation_page_first
_citation_page_last
_citation_journal_id_ASTM
primary
;
Comptes Rendus Hebdomadaires des Seances de l`Academie des Sciences, 
Serie C, Sciences Chimiques (1966-)
;
 1979 288 429 432 CHDCAQ
2 'Materials Research Bulletin' 1980 15 867 874 MRBUAC
_publ_author_name
;
Potel, M.;Chevrel, R.;Sergent, M.;Decroux, M.;Fischer, O.
;
_cell_length_a                     9.36
_cell_length_b                     9.36
_cell_length_c                     56.22
_cell_angle_alpha                  90.
_cell_angle_beta                   90.
_cell_angle_gamma                  120.
_cell_volume                       4265.53
_cell_formula_units_Z              6
_symmetry_space_group_name_H-M     'R -3 c H'
_symmetry_Int_Tables_number        167
loop_
_symmetry_equiv_pos_site_id
_symmetry_equiv_pos_as_xyz
  1	'x-y, -y, -z+.5'
  2	'-x, -x+y, -z+.5'
  3	'y, x, -z+.5'
  4	'x-y, x, -z'
  5	'y, -x+y, -z'
  6	'-x, -y, -z'
  7	'-x+y, y, z+.5'
  8	'x, x-y, z+.5'
  9	'-y, -x, z+.5'
 10	'-x+y, -x, z'
 11	'-y, x-y, z'
 12	'x, y, z'
 13	'x-y+.6666, -y+.3333, -z+.8333'
 14	'x-y+.3333, -y+.6666, -z+.1666'
 15	'-x+.6666, -x+y+.3333, -z+.8333'
 16	'-x+.3333, -x+y+.6666, -z+.1666'
 17	'y+.6666, x+.3333, -z+.8333'
 18	'y+.3333, x+.6666, -z+.1666'
 19	'x-y+.6666, x+.3333, -z+.3333'
 20	'x-y+.3333, x+.6666, -z+.6666'
 21	'y+.6666, -x+y+.3333, -z+.3333'
 22	'y+.3333, -x+y+.6666, -z+.6666'
 23	'-x+.6666, -y+.3333, -z+.3333'
 24	'-x+.3333, -y+.6666, -z+.6666'
 25	'-x+y+.6666, y+.3333, z+.8333'
 26	'-x+y+.3333, y+.6666, z+.1666'
 27	'x+.6666, x-y+.3333, z+.8333'
 28	'x+.3333, x-y+.6666, z+.1666'
 29	'-y+.6666, -x+.3333, z+.8333'
 30	'-y+.3333, -x+.6666, z+.1666'
 31	'-x+y+.6666, -x+.3333, z+.3333'
 32	'-x+y+.3333, -x+.6666, z+.6666'
 33	'-y+.6666, x-y+.3333, z+.3333'
 34	'-y+.3333, x-y+.6666, z+.6666'
 35	'x+.6666, y+.3333, z+.3333'
 36	'x+.3333, y+.6666, z+.6666'
loop_
_atom_type_symbol
_atom_type_oxidation_number
K1+	1
Mo2.4+	2.4
S2-	-2
loop_
_atom_site_label
_atom_site_type_symbol
_atom_site_symmetry_multiplicity
_atom_site_Wyckoff_symbol
_atom_site_fract_x
_atom_site_fract_y
_atom_site_fract_z
_atom_site_occupancy
_atom_site_attached_hydrogens
K1 K1+ 12 c 0 0 0.113 1. 0 
Mo1 Mo2.4+ 36 f 0.173 0.154 0.020 1. 0 
Mo2 Mo2.4+ 36 f 0.160 0.169 0.210 1. 0 
Mo3 Mo2.4+ 18 e 0.166 0 0.25 1. 0 
S1 S2- 36 f 0.036 0.317 0.016 1. 0 
S2 S2- 36 f 0.310 0.022 0.214 1. 0 
S3 S2- 18 e 0.697 0 0.25 1. 0 
S4 S2- 12 c 0 0 0.054 1. 0 
S5 S2- 12 c 0 0 0.177 1. 0 

#End of data_641243-ICSD


