data_416296-ICSD
#?2014 by Fachinformationszentrum Karlsruhe, and the U.S. Secretary of 
#Commerce on behalf of the United States.  All rights reserved.
_database_code_ICSD                416296
_audit_creation_date               2007/08/01
_chemical_name_systematic
;
Tripotassium Yttrium(III) Hexafluoride
;
_chemical_formula_structural       'K3 Y F6'
_chemical_formula_sum              'F6 K3 Y1'
_publ_section_title
;
Crystal structure and vibrational properties of new luminescent hosts 
K3 Y F6 and K3 Gd f6
;
loop_
_citation_id
_citation_journal_abbrev
_citation_year
_citation_journal_volume
_citation_journal_issue
_citation_page_first
_citation_page_last
_citation_journal_id_ASTM
primary 'Journal of Solid State Chemistry' 2006 179 10 3145 3150 JSSCBI
_publ_author_name
;
Gusowski, M.A.;Gagor, A.;Trzebiatowska-Gusowska, M.;Ryba-Romanowski, 
W.
;
_cell_length_a                     6.3376(13)
_cell_length_b                     6.5435(13)
_cell_length_c                     9.0390(18)
_cell_angle_alpha                  90.00
_cell_angle_beta                   90.65(3)
_cell_angle_gamma                  90.00
_cell_volume                       374.82
_cell_formula_units_Z              2
_symmetry_space_group_name_H-M     'P 1 21/n 1'
_symmetry_Int_Tables_number        14
_refine_ls_R_factor_all            .0575
loop_
_symmetry_equiv_pos_site_id
_symmetry_equiv_pos_as_xyz
  1	'-x+.5, y+.5, -z+.5'
  2	'-x, -y, -z'
  3	'x+.5, -y+.5, z+.5'
  4	'x, y, z'
loop_
_atom_type_symbol
_atom_type_oxidation_number
F1-	-1
K1+	1
Y3+	3
loop_
_atom_site_label
_atom_site_type_symbol
_atom_site_symmetry_multiplicity
_atom_site_Wyckoff_symbol
_atom_site_fract_x
_atom_site_fract_y
_atom_site_fract_z
_atom_site_occupancy
_atom_site_attached_hydrogens
_atom_site_U_iso_or_equiv
Y1 Y3+ 2 a 0.0000 0.0000 0.0000 1 0 0.01564(16) 
K1 K1+ 2 b 0.5000 0.5000 0.0000 1 0 0.0203(2) 
K2 K1+ 4 e 0.01253(14) 0.54757(11) -0.25335(10) 1 0 0.0313(2) 
F1 F1- 4 e 0.2205(3) 0.3255(3) 0.5466(2) 1 0 0.0415(6) 
F2 F1- 4 e 0.3332(3) 0.7726(3) 0.5682(2) 1 0 0.0416(6) 
F3 F1- 4 e 0.3905(3) 0.5574(3) 0.2763(2) 1 0 0.0364(6) 

loop_
_atom_site_aniso_label
_atom_site_aniso_type_symbol
_atom_site_aniso_U_11
_atom_site_aniso_U_22
_atom_site_aniso_U_33
_atom_site_aniso_U_12
_atom_site_aniso_U_13
_atom_site_aniso_U_23
Y1 Y3+ 0.0160(3) 0.0156(3) 0.0152(3) 0.0007(3) -0.00024(18) 0.0005(3)
K1 K1+ 0.0207(5) 0.0199(6) 0.0202(6) 0.0025(6) -0.0010(4) -0.0020(6)
K2 K1+ 0.0293(4) 0.0292(5) 0.0355(5) 0.0045(4) -0.0012(3) -0.0012(4)
F1 F1- 0.0335(12) 0.0369(14) 0.0544(16) -0.0184(10) 0.0134(11) -0.0116(10)
F2 F1- 0.0359(13) 0.0330(14) 0.0555(17) 0.0135(10) -0.0086(12) -0.0156(11)
F3 F1- 0.0431(13) 0.0453(15) 0.0207(12) -0.0066(10) -0.0037(10) 0.0054(9)
#End of data_416296-ICSD


