data_180336-ICSD
#?2014 by Fachinformationszentrum Karlsruhe, and the U.S. Secretary of 
#Commerce on behalf of the United States.  All rights reserved.
_database_code_ICSD                180336
_audit_creation_date               2011/08/01
_chemical_name_systematic
;
Lead Calcium Aluminium Fluoride (1/2/1/9)
;
_chemical_formula_structural       'Pb Ca2 Al F9'
_chemical_formula_sum              'Al1 Ca2 F9 Pb1'
_chemical_name_mineral             Calcioaravaipaite
_publ_section_title
;
The crystal structures and Raman spectra of aravaipaite and 
calcioaravaipaite
;
loop_
_citation_id
_citation_journal_abbrev
_citation_year
_citation_journal_volume
_citation_page_first
_citation_page_last
_citation_journal_id_ASTM
primary 'American Mineralogist' 2011 96 402 407 AMMIAY
_publ_author_name
;
Kampf, A.R.;Yang, He Xiong;Downs, R.T.;Pinch, W.W.
;
_cell_length_a                     5.3815(3)
_cell_length_b                     5.3846(3)
_cell_length_c                     12.2034(6)
_cell_angle_alpha                  91.364(2)
_cell_angle_beta                   101.110(3)
_cell_angle_gamma                  91.525(3)
_cell_volume                       346.72
_cell_formula_units_Z              2
_symmetry_space_group_name_H-M     'P -1'
_symmetry_Int_Tables_number        2
_refine_ls_R_factor_all            .0195
loop_
_symmetry_equiv_pos_site_id
_symmetry_equiv_pos_as_xyz
  1	'-x, -y, -z'
  2	'x, y, z'
loop_
_atom_type_symbol
_atom_type_oxidation_number
Al3+	3
Ca2+	2
F1-	-1
Pb2+	2
loop_
_atom_site_label
_atom_site_type_symbol
_atom_site_symmetry_multiplicity
_atom_site_Wyckoff_symbol
_atom_site_fract_x
_atom_site_fract_y
_atom_site_fract_z
_atom_site_occupancy
_atom_site_attached_hydrogens
_atom_site_U_iso_or_equiv
Pb1 Pb2+ 2 i 0.27238(3) 0.28211(2) 0.107209(10) 1. 0 0.01678(5) 
Ca1 Ca2+ 2 i 0.04213(11) 0.75777(10) 0.61450(5) 1. 0 0.00876(11) 
Ca2 Ca2+ 2 i 0.44851(11) 0.73503(10) 0.38616(5) 1. 0 0.00891(11) 
Al1 Al3+ 2 i 0.20387(18) 0.20662(16) 0.81864(8) 1. 0 0.00910(16) 
F1 F1- 2 i 0.8481(5) 0.0489(4) 0.09603(19) 1. 0 0.0234(5) 
F2 F1- 2 i 0.7419(4) 0.5504(3) 0.27419(17) 1. 0 0.0165(4) 
F3 F1- 2 i 0.3698(4) 0.0017(3) 0.73490(16) 1. 0 0.0141(4) 
F4 F1- 2 i 0.0419(4) 0.4057(4) 0.90021(17) 1. 0 0.0180(4) 
F5 F1- 2 i 0.9168(4) 0.1103(4) 0.72148(18) 1. 0 0.0169(4) 
F6 F1- 2 i 0.5004(4) 0.2955(4) 0.90746(19) 1. 0 0.0226(4) 
F7 F1- 2 i 0.2517(4) 0.0076(3) 0.50112(16) 1. 0 0.0118(3) 
F8 F1- 2 i 0.2503(4) 0.5117(3) 0.50560(16) 1. 0 0.0116(3) 
F9 F1- 2 i 0.2567(4) 0.3857(3) 0.29105(17) 1. 0 0.0154(4) 

loop_
_atom_site_aniso_label
_atom_site_aniso_type_symbol
_atom_site_aniso_U_11
_atom_site_aniso_U_22
_atom_site_aniso_U_33
_atom_site_aniso_U_12
_atom_site_aniso_U_13
_atom_site_aniso_U_23
Pb1 Pb2+ 0.01998(8) 0.01783(7) 0.01279(7) 0.00242(4) 0.00367(5) -0.00039(4)
Ca1 Ca2+ 0.0094(3) 0.0074(2) 0.0095(2) 0.00025(19) 0.0019(2) 0.00039(19)
Ca2 Ca2+ 0.0092(3) 0.0077(2) 0.0097(2) -0.00027(19) 0.0016(2) 0.00065(19)
Al1 Al3+ 0.0098(4) 0.0092(4) 0.0083(4) -0.0003(3) 0.0017(3) 0.0006(3)
F1 F1- 0.0285(12) 0.0199(10) 0.0233(11) 0.0002(8) 0.0080(10) 0.0075(8)
F2 F1- 0.0189(10) 0.0136(8) 0.0195(10) 0.0030(7) 0.0087(8) 0.0071(7)
F3 F1- 0.0152(9) 0.0125(8) 0.0154(9) 0.0030(7) 0.0045(8) 0.0003(7)
F4 F1- 0.0219(11) 0.0186(9) 0.0147(9) 0.0060(8) 0.0058(8) -0.0011(7)
F5 F1- 0.0117(9) 0.0169(9) 0.0198(10) 0.0011(7) -0.0025(8) -0.0042(7)
F6 F1- 0.0156(10) 0.0273(11) 0.0220(11) -0.0029(8) -0.0028(9) -0.0032(9)
F7 F1- 0.0122(9) 0.0098(8) 0.0136(9) 0.0012(6) 0.0024(7) 0.0011(6)
F8 F1- 0.0120(9) 0.0103(8) 0.0130(8) -0.0002(6) 0.0038(7) -0.0002(6)
F9 F1- 0.0185(10) 0.0154(8) 0.0126(9) -0.0043(7) 0.0051(8) -0.0035(7)
#End of data_180336-ICSD


