data_26409-ICSD
#?2014 by Fachinformationszentrum Karlsruhe, and the U.S. Secretary of 
#Commerce on behalf of the United States.  All rights reserved.
_database_code_ICSD                26409
_audit_creation_date               1981/12/31
_audit_update_record               2006/04/01
_chemical_name_systematic          'Potassium Chlorate(V)'
_chemical_formula_structural       'K (Cl O3)'
_chemical_formula_sum              'Cl1 K1 O3'
_publ_section_title
;
The structure of potassium chlorate at 77 and 298 K
;
loop_
_citation_id
_citation_journal_abbrev
_citation_year
_citation_journal_volume
_citation_page_first
_citation_page_last
_citation_journal_id_ASTM
primary 'Acta Crystallographica B (24,1968-38,1982)' 1981 37 913 915 ACBCAR
2 'Golden Book of Phase Transitions, Wroclaw' 2002 1 1 123 GBOPT5
_publ_author_name
;
Danielsen, J.;Hazell, A.;Larsen, F.K.
;
_cell_length_a                     4.6569
_cell_length_b                     5.59089
_cell_length_c                     7.0991
_cell_angle_alpha                  90.
_cell_angle_beta                   109.648
_cell_angle_gamma                  90.
_cell_volume                       174.07
_cell_formula_units_Z              2
_symmetry_space_group_name_H-M     'P 1 21/m 1'
_symmetry_Int_Tables_number        11
_refine_ls_R_factor_all            .02
loop_
_symmetry_equiv_pos_site_id
_symmetry_equiv_pos_as_xyz
  1	'x, -y+.5, z'
  2	'-x, -y, -z'
  3	'-x, y+.5, -z'
  4	'x, y, z'
loop_
_atom_type_symbol
_atom_type_oxidation_number
Cl5+	5
K1+	1
O2-	-2
loop_
_atom_site_label
_atom_site_type_symbol
_atom_site_symmetry_multiplicity
_atom_site_Wyckoff_symbol
_atom_site_fract_x
_atom_site_fract_y
_atom_site_fract_z
_atom_site_occupancy
_atom_site_attached_hydrogens
K1 K1+ 2 e 0.3537(1) 0.25 0.7091(1) 1. 0 
Cl1 Cl5+ 2 e 0.1216(1) 0.25 0.1756(1) 1. 0 
O1 O2- 2 e 0.3964(4) 0.25 0.1152(3) 1. 0 
O2 O2- 4 f 0.1465(3) 0.4614(2) 0.3050(2) 1. 0 

loop_
_atom_site_aniso_label
_atom_site_aniso_type_symbol
_atom_site_aniso_U_11
_atom_site_aniso_U_22
_atom_site_aniso_U_33
_atom_site_aniso_U_12
_atom_site_aniso_U_13
_atom_site_aniso_U_23
K1 K1+ 0.0294(3) 0.0257(3) 0.0292(3) 0 0.0144(2) 0
Cl1 Cl5+ 0.0251(3) 0.0235(3) 0.0250(3) 0 0.0081(2) 0
O1 O2- 0.0412(10) 0.0574(12) 0.0418(11) 0 0.0267(9) 0
O2 O2- 0.0444(7) 0.0238(6) 0.0509(8) 0.0011(5) 0.0200(6) -0.0082(5)
#End of data_26409-ICSD


