data_414637-ICSD
#?2014 by Fachinformationszentrum Karlsruhe, and the U.S. Secretary of 
#Commerce on behalf of the United States.  All rights reserved.
_database_code_ICSD                414637
_audit_creation_date               2005/10/01
_chemical_name_systematic
;
Barium Potassium Tetraselenophosphate
;
_chemical_formula_structural       'Ba K P Se4'
_chemical_formula_sum              'Ba1 K1 P1 Se4'
_publ_section_title
;
Neue Chalcogenophosphate: KBaPS4, KBaPSe4 und Ba3PO4PSe4
;
loop_
_citation_id
_citation_journal_abbrev
_citation_year
_citation_journal_volume
_citation_page_first
_citation_page_last
_citation_journal_id_ASTM
primary 'Zeitschrift fuer Naturforschung, B: Chemical Sciences'
 2005 60 431 436 ZNBSEN
_publ_author_name                  'Joergens, S.;Mewis, A.'
_cell_length_a                     11.972(2)
_cell_length_b                     6.9730(10)
_cell_length_c                     10.388(2)
_cell_angle_alpha                  90.
_cell_angle_beta                   90.
_cell_angle_gamma                  90.
_cell_volume                       867.2
_cell_formula_units_Z              4
_symmetry_space_group_name_H-M     'P n m a'
_symmetry_Int_Tables_number        62
_refine_ls_R_factor_all            .0941
loop_
_symmetry_equiv_pos_site_id
_symmetry_equiv_pos_as_xyz
  1	'x+.5, y, -z+.5'
  2	'x, -y+.5, z'
  3	'-x+.5, y+.5, z+.5'
  4	'-x, -y, -z'
  5	'-x+.5, -y, z+.5'
  6	'-x, y+.5, -z'
  7	'x+.5, -y+.5, -z+.5'
  8	'x, y, z'
loop_
_atom_type_symbol
_atom_type_oxidation_number
Ba2+	2
K1+	1
P5+	5
Se2-	-2
loop_
_atom_site_label
_atom_site_type_symbol
_atom_site_symmetry_multiplicity
_atom_site_Wyckoff_symbol
_atom_site_fract_x
_atom_site_fract_y
_atom_site_fract_z
_atom_site_occupancy
_atom_site_attached_hydrogens
_atom_site_U_iso_or_equiv
Ba1 Ba2+ 4 c 0.14756(5) 0.2500 0.88856(6) 1 0 0.01644(16) 
K1 K1+ 4 c 0.1057(4) 0.2500 0.3368(4) 1 0 0.0586(10) 
P1 P5+ 4 c 0.8165(2) 0.2500 0.8962(3) 1 0 0.0153(5) 
Se1 Se2- 4 c 0.41901(11) 0.2500 0.77905(11) 1 0 0.0346(4) 
Se2 Se2- 8 d 0.28956(8) 1.00409(12) 0.10959(9) 1 0 0.0346(3) 
Se3 Se2- 4 c 0.91658(9) 0.2500 0.07451(10) 1 0 0.0196(3) 

loop_
_atom_site_aniso_label
_atom_site_aniso_type_symbol
_atom_site_aniso_U_11
_atom_site_aniso_U_22
_atom_site_aniso_U_33
_atom_site_aniso_U_12
_atom_site_aniso_U_13
_atom_site_aniso_U_23
Ba1 Ba2+ 0.0154(3) 0.0204(3) 0.0135(3) 0.000 0.0001(3) 0.000
K1 K1+ 0.080(3) 0.046(2) 0.049(2) 0.000 -0.024(2) 0.000
P1 P5+ 0.0175(11) 0.0160(11) 0.0124(11) 0.000 -0.0032(11) 0.000
Se1 Se2- 0.0191(6) 0.0717(10) 0.0131(5) 0.000 0.0012(5) 0.000
Se2 Se2- 0.0455(5) 0.0214(4) 0.0369(5) -0.0150(4) -0.0220(5) 0.0114(4)
Se3 Se2- 0.0228(6) 0.0255(5) 0.0107(5) 0.000 -0.0034(4) 0.000
#End of data_414637-ICSD


