data_164865-ICSD
#?2014 by Fachinformationszentrum Karlsruhe, and the U.S. Secretary of 
#Commerce on behalf of the United States.  All rights reserved.
_database_code_ICSD                164865
_audit_creation_date               2010/02/01
_audit_update_record               2013/08/01
_chemical_name_systematic
;
Tetrapotassium Barium Hexakis(vanadate)
;
_chemical_formula_structural       'K4 Ba (V O3)6'
_chemical_formula_sum              'Ba1 K4 O18 V6'
_publ_section_title
;
Synthesis and crystal structure of A4 Ba (V O3)6 compounds
;
loop_
_citation_id
_citation_journal_abbrev
_citation_year
_citation_journal_volume
_citation_journal_issue
_citation_page_first
_citation_page_last
_citation_journal_id_ASTM
primary 'Doklady Akad. Nauk' 2008 421 4 506 510 DAKNEQ
2 'Doklady Physical Chemistry' 2008 421 2 211 215 DKPCAG
_publ_author_name
;
Zubkov, V.G.;Tyutyunnik, A.P.;Berger, I.F.;Surat, L.L.;Tarakina, 
N.V.;Slobodin, B.V.;Bamburov, V.G.
;
_cell_length_a                     13.5402(1)
_cell_length_b                     13.5402(1)
_cell_length_c                     18.8558(2)
_cell_angle_alpha                  90.
_cell_angle_beta                   90.
_cell_angle_gamma                  120.
_cell_volume                       2993.82
_cell_formula_units_Z              6
_symmetry_space_group_name_H-M     'R 3 c H'
_symmetry_Int_Tables_number        161
_refine_ls_R_factor_all            .0118
loop_
_symmetry_equiv_pos_site_id
_symmetry_equiv_pos_as_xyz
  1	'-x+y, y, z+.5'
  2	'x, x-y, z+.5'
  3	'-y, -x, z+.5'
  4	'-x+y, -x, z'
  5	'-y, x-y, z'
  6	'x, y, z'
  7	'-x+y+.6666, y+.3333, z+.8333'
  8	'-x+y+.3333, y+.6666, z+.1666'
  9	'x+.6666, x-y+.3333, z+.8333'
 10	'x+.3333, x-y+.6666, z+.1666'
 11	'-y+.6666, -x+.3333, z+.8333'
 12	'-y+.3333, -x+.6666, z+.1666'
 13	'-x+y+.6666, -x+.3333, z+.3333'
 14	'-x+y+.3333, -x+.6666, z+.6666'
 15	'-y+.6666, x-y+.3333, z+.3333'
 16	'-y+.3333, x-y+.6666, z+.6666'
 17	'x+.6666, y+.3333, z+.3333'
 18	'x+.3333, y+.6666, z+.6666'
loop_
_atom_type_symbol
_atom_type_oxidation_number
Ba2+	2
K1+	1
O2-	-2
V5+	5
loop_
_atom_site_label
_atom_site_type_symbol
_atom_site_symmetry_multiplicity
_atom_site_Wyckoff_symbol
_atom_site_fract_x
_atom_site_fract_y
_atom_site_fract_z
_atom_site_occupancy
_atom_site_attached_hydrogens
_atom_site_U_iso_or_equiv
K1 K1+ 6 a 0 0 0.0007(8) 1. 0 0.031(2) 
K2 K1+ 18 b 0.4148(6) -0.001(1) 0.0062(4) 1. 0 0.031(1) 
Ba1 Ba2+ 6 a 0 0 0.7571(3) 1. 0 0.0332(7) 
V1 V5+ 18 b 0.2681(5) 0.4134(6) 0.0202(3) 1. 0 0.022(2) 
V2 V5+ 18 b 0.0589(6) 0.2469(6) 0.1392(3) 1. 0 0.043(3) 
O1 O2- 18 b 0.330(1) 0.0101(6) 0.1529(5) 1. 0 0.058(2) 
O2 O2- 18 b 0.554(1) 0.0938(7) 0.1158(5) 1. 0 0.031(3) 
O3 O2- 18 b 0.1924(9) 0.3558(9) 0.0951(5) 1. 0 0.092(4) 
O4 O2- 18 b 0.355(1) 0.536(1) 0.0557(5) 1. 0 0.096(5) 
O5 O2- 18 b 0.4369(8) 0.213(1) 0.0422(5) 1. 0 0.048(3) 
O6 O2- 18 b -0.0360(8) 0.1139(9) 0.1187(4) 1. 0 0.053(4) 

#End of data_164865-ICSD


