data_156155-ICSD
#?2014 by Fachinformationszentrum Karlsruhe, and the U.S. Secretary of 
#Commerce on behalf of the United States.  All rights reserved.
_database_code_ICSD                156155
_audit_creation_date               2007/08/01
_chemical_name_systematic          'Trimagnesium Bis(vanadate)'
_chemical_formula_structural       'Mg3 (V O4)2'
_chemical_formula_sum              'Mg3 O8 V2'
_publ_section_title
;
An experimental study of the oxidation state of vanadium in spinel 
and basaltic melt with implications for the origin of planetary 
basalt
;
loop_
_citation_id
_citation_journal_abbrev
_citation_year
_citation_journal_volume
_citation_page_first
_citation_page_last
_citation_journal_id_ASTM
primary 'American Mineralogist' 2006 91 1643 1656 AMMIAY
_publ_author_name
;
Righter, K.;Sutton, S.R.;Newville, M.;Le, L.;Schwandt, C.S.;Uchida, 
H.;Lavina, B.;Downs, R.T.
;
_cell_length_a                     6.0814(7)
_cell_length_b                     11.4686(10)
_cell_length_c                     8.3366(10)
_cell_angle_alpha                  90.
_cell_angle_beta                   90.
_cell_angle_gamma                  90.
_cell_volume                       581.44
_cell_formula_units_Z              4
_symmetry_space_group_name_H-M     'C m c a'
_symmetry_Int_Tables_number        64
loop_
_symmetry_equiv_pos_site_id
_symmetry_equiv_pos_as_xyz
  1	'-x, -y+.5, z+.5'
  2	'-x, y+.5, -z+.5'
  3	'-x, y, z'
  4	'-x, -y, -z'
  5	'x, y+.5, -z+.5'
  6	'x, -y+.5, z+.5'
  7	'x, -y, -z'
  8	'x, y, z'
  9	'-x+.5, -y, z+.5'
 10	'-x+.5, y, -z+.5'
 11	'-x+.5, y+.5, z'
 12	'-x+.5, -y+.5, -z'
 13	'x+.5, y, -z+.5'
 14	'x+.5, -y, z+.5'
 15	'x+.5, -y+.5, -z'
 16	'x+.5, y+.5, z'
loop_
_atom_type_symbol
_atom_type_oxidation_number
Mg2+	2
O2-	-2
V5+	5
loop_
_atom_site_label
_atom_site_type_symbol
_atom_site_symmetry_multiplicity
_atom_site_Wyckoff_symbol
_atom_site_fract_x
_atom_site_fract_y
_atom_site_fract_z
_atom_site_occupancy
_atom_site_attached_hydrogens
Mg1 Mg2+ 4 a 0 0 0 1. 0 
Mg2 Mg2+ 8 e 0.250 0.13544(3) 0.250 1. 0 
V1 V5+ 8 f 0 0.37981(1) 0.12103(2) 1. 0 
O1 O2- 8 f 0 0.25145(6) 0.22707(11) 1. 0 
O2 O2- 8 f 0 0.00381(16) 0.24426(11) 1. 0 
O3 O2- 16 g 0.27293(12) 0.11783(4) 0.99733(8) 1. 0 

loop_
_atom_site_aniso_label
_atom_site_aniso_type_symbol
_atom_site_aniso_U_11
_atom_site_aniso_U_22
_atom_site_aniso_U_33
_atom_site_aniso_U_12
_atom_site_aniso_U_13
_atom_site_aniso_U_23
Mg1 Mg2+ 0.00645(30) 0.01010(20) 0.00539(28) -0.00110(17) 0. 0.
Mg2 Mg2+ 0.00523(20) 0.00710(13) 0.00754(20) 0. 0. -0.00085(15)
V1 V5+ 0.00501(8) 0.00438(6) 0.00400(8) 0.00007(4) 0. 0.
O1 O2- 0.00730(39) 0.00684(24) 0.00766(39) 0.00225(21) 0. 0.
O2 O2- 0.00628(38) 0.00685(23) 0.00525(36) 0.00046(21) 0. 0.
O3 O2- 0.00724(28) 0.00841(18) 0.00722(28) -0.00024(15) -0.00088(16) 
0.00095(19)
#End of data_156155-ICSD


