data_162785-ICSD
#?2014 by Fachinformationszentrum Karlsruhe, and the U.S. Secretary of 
#Commerce on behalf of the United States.  All rights reserved.
_database_code_ICSD                162785
_audit_creation_date               2009/08/01
_audit_update_record               2011/02/01
_chemical_name_systematic
;
Lithium Dysprosium Tetrakis(phosphate(V))
;
_chemical_formula_structural       'Li Dy (P O3)4'
_chemical_formula_sum              'Dy1 Li1 O12 P4'
_publ_section_title
;
Syntheses, crystal structures and characterizations of Li M (P O3)4 
(M= Y, Dy)
;
loop_
_citation_id
_citation_journal_abbrev
_citation_year
_citation_journal_volume
_citation_page_first
_citation_page_last
_citation_journal_id_ASTM
primary 'Journal of Molecular Structure' 2008 892 8 12 JMOSB4
_publ_author_name
;
Zhao Dan;Zhang Hao;Huang Shu Ping;Fang Ming;Zhang Wei Long;Yang Song 
Ling;Cheng Wen Dan
;
_cell_length_a                     16.2600(14)
_cell_length_b                     7.0259(6)
_cell_length_c                     9.5783(8)
_cell_angle_alpha                  90.
_cell_angle_beta                   126.0180(10)
_cell_angle_gamma                  90.
_cell_volume                       885.05
_cell_formula_units_Z              4
_symmetry_space_group_name_H-M     'C 1 2/c 1'
_symmetry_Int_Tables_number        15
_refine_ls_R_factor_all            .0161
loop_
_symmetry_equiv_pos_site_id
_symmetry_equiv_pos_as_xyz
  1	'x, -y, z+.5'
  2	'-x, -y, -z'
  3	'-x, y, -z+.5'
  4	'x, y, z'
  5	'x+.5, -y+.5, z+.5'
  6	'-x+.5, -y+.5, -z'
  7	'-x+.5, y+.5, -z+.5'
  8	'x+.5, y+.5, z'
loop_
_atom_type_symbol
_atom_type_oxidation_number
Dy3+	3
Li1+	1
O2-	-2
P5+	5
loop_
_atom_site_label
_atom_site_type_symbol
_atom_site_symmetry_multiplicity
_atom_site_Wyckoff_symbol
_atom_site_fract_x
_atom_site_fract_y
_atom_site_fract_z
_atom_site_occupancy
_atom_site_attached_hydrogens
_atom_site_U_iso_or_equiv
Li1 Li1+ 4 e 0.5 0.2941(14) 0.750 1. 0 0.016(2) 
Dy1 Dy3+ 4 e 0.5 0.20284(3) 0.250 1. 0 0.00537(14) 
P1 P5+ 8 f 0.35320(7) 0.15119(14) 0.40302(12) 1. 0 0.0058(2) 
P2 P5+ 8 f 0.36231(7) 0.55240(14) 0.33977(12) 1. 0 0.0055(2) 
O1 O2- 8 f 0.3865(2) 0.7167(4) 0.4557(4) 1. 0 0.0107(6) 
O2 O2- 8 f 0.4288(2) 0.0859(4) 0.5831(3) 1. 0 0.0094(6) 
O3 O2- 8 f 0.43470(19) 0.5026(4) 0.2974(3) 1. 0 0.0087(5) 
O4 O2- 8 f 0.25537(19) 0.5786(4) 0.1575(3) 1. 0 0.0090(6) 
O5 O2- 8 f 0.3717(2) 0.1155(4) 0.2708(3) 1. 0 0.0105(6) 
O6 O2- 8 f 0.3427(2) 0.3748(4) 0.4192(3) 1. 0 0.0094(5) 

#End of data_162785-ICSD


