data_97426-ICSD
#?2014 by Fachinformationszentrum Karlsruhe, and the U.S. Secretary of 
#Commerce on behalf of the United States.  All rights reserved.
_database_code_ICSD                97426
_audit_creation_date               2004/10/01
_audit_update_record               2011/02/01
_chemical_name_systematic          'Dicesium Dibismuth Zinc Sulfide'
_chemical_formula_structural       'Cs2 Bi2 Zn S5'
_chemical_formula_sum              'Bi2 Cs2 S5 Zn1'
_publ_section_title
;
Syntheses, structures, optical properties and theoretical 
calculations of Cs2 Bi2 Zn S5, Cs2 Bi2 Cd S5 and Cs2 Bi2 Mn S5
;
loop_
_citation_id
_citation_journal_abbrev
_citation_year
_citation_journal_volume
_citation_page_first
_citation_page_last
_citation_journal_id_ASTM
primary 'Journal of Solid State Chemistry' 2003 174 334 341 JSSCBI
_publ_author_name
;
Huang Fu qiang;Somers, R.C.;McFarland, A.D.;van Duyne, R.P.;Ibers, 
J.A.
;
_cell_length_a                     15.763(3)
_cell_length_b                     4.0965(9)
_cell_length_c                     18.197(4)
_cell_angle_alpha                  90
_cell_angle_beta                   90
_cell_angle_gamma                  90
_cell_volume                       1175.04
_cell_formula_units_Z              4
_symmetry_space_group_name_H-M     'P n m a'
_symmetry_Int_Tables_number        62
_refine_ls_R_factor_all            .0238
loop_
_symmetry_equiv_pos_site_id
_symmetry_equiv_pos_as_xyz
  1	'x+.5, y, -z+.5'
  2	'x, -y+.5, z'
  3	'-x+.5, y+.5, z+.5'
  4	'-x, -y, -z'
  5	'-x+.5, -y, z+.5'
  6	'-x, y+.5, -z'
  7	'x+.5, -y+.5, -z+.5'
  8	'x, y, z'
loop_
_atom_type_symbol
_atom_type_oxidation_number
Bi3+	3
Cs1+	1
S2-	-2
Zn2+	2
loop_
_atom_site_label
_atom_site_type_symbol
_atom_site_symmetry_multiplicity
_atom_site_Wyckoff_symbol
_atom_site_fract_x
_atom_site_fract_y
_atom_site_fract_z
_atom_site_occupancy
_atom_site_attached_hydrogens
_atom_site_U_iso_or_equiv
Cs1 Cs1+ 4 c 0.00651(3) 0.250 0.62205(3) 1. 0 0.0122(1) 
Cs2 Cs1+ 4 c 0.46014(3) 0.250 0.38123(3) 1. 0 0.0153(1) 
Bi1 Bi3+ 4 c 0.25125(2) 0.250 0.01730(2) 1. 0 0.01126(9) 
Bi2 Bi3+ 4 c 0.29337(2) 0.250 0.69783(2) 1. 0 0.00978(9) 
Zn1 Zn2+ 4 c 0.20610(5) 0.250 0.35545(5) 1. 0 0.0092(2) 
S1 S2- 4 c 0.1063(1) 0.250 0.2571(1) 1. 0 0.0103(4) 
S2 S2- 4 c 0.1402(1) 0.250 0.4718(1) 1. 0 0.0096(4) 
S3 S2- 4 c 0.2140(1) 0.250 0.8438(1) 1. 0 0.0117(4) 
S4 S2- 4 c 0.3189(1) 0.250 0.1481(1) 1. 0 0.0100(4) 
S5 S2- 4 c 0.3684(1) 0.250 0.5627(1) 1. 0 0.0120(4) 

#End of data_97426-ICSD


