data_4255-ICSD
#?2014 by Fachinformationszentrum Karlsruhe, and the U.S. Secretary of 
#Commerce on behalf of the United States.  All rights reserved.
_database_code_ICSD                4255
_audit_creation_date               1980/01/01
_chemical_name_systematic          'Potassium Beryllium Phosphate'
_chemical_formula_structural       'K Be P O4'
_chemical_formula_sum              'Be1 K1 O4 P1'
_publ_section_title
;
Zur Kenntnis von Alkaliberyllophosphaten
;
loop_
_citation_id
_citation_journal_abbrev
_citation_year
_citation_journal_volume
_citation_page_first
_citation_page_last
_citation_journal_id_ASTM
primary 'Zeitschrift fuer Anorganische und Allgemeine Chemie (1950) (DE)'
 1975 417 11 18 ZAACAB
_publ_author_name                  'Nitsch, G.;Schaefer, H.'
_cell_length_a                     8.30(2)
_cell_length_b                     8.47(2)
_cell_length_c                     5.00(2)
_cell_angle_alpha                  90.
_cell_angle_beta                   90.
_cell_angle_gamma                  90.
_cell_volume                       351.51
_cell_formula_units_Z              4
_symmetry_space_group_name_H-M     'P n a 21'
_symmetry_Int_Tables_number        33
_refine_ls_R_factor_all            .111
loop_
_symmetry_equiv_pos_site_id
_symmetry_equiv_pos_as_xyz
  1	'x+.5, -y+.5, z'
  2	'-x+.5, y+.5, z+.5'
  3	'-x, -y, z+.5'
  4	'x, y, z'
loop_
_atom_type_symbol
_atom_type_oxidation_number
Be2+	2
K1+	1
O2-	-2
P5+	5
loop_
_atom_site_label
_atom_site_type_symbol
_atom_site_symmetry_multiplicity
_atom_site_Wyckoff_symbol
_atom_site_fract_x
_atom_site_fract_y
_atom_site_fract_z
_atom_site_occupancy
_atom_site_attached_hydrogens
K1 K1+ 4 a 0.997 0.21 0.215 1. 0 
Be1 Be2+ 4 a 0.363 0.167 0.781 1. 0 
P1 P5+ 4 a 0.188 0.414 0.731 1. 0 
O1 O2- 4 a 0.245 0.258 0.8 1. 0 
O2 O2- 4 a 0.011 0.42 0.7 1. 0 
O3 O2- 4 a 0.251 0.044 0.408 1. 0 
O4 O2- 4 a 0.223 0.444 0.426 1. 0 

#End of data_4255-ICSD


