data_65794-ICSD
#?2014 by Fachinformationszentrum Karlsruhe, and the U.S. Secretary of 
#Commerce on behalf of the United States.  All rights reserved.
_database_code_ICSD                65794
_audit_creation_date               1990/12/27
_audit_update_record               1998/06/26
_chemical_name_systematic          'Magnesium Titanium Oxide'
_chemical_formula_structural       'Mg Ti O3'
_chemical_formula_sum              'Mg1 O3 Ti1'
_chemical_name_mineral             Geikielite
_publ_section_title
;
Structure refinements of Mg2 Ti O4, Mg Ti O3 and Mg Ti2 O5 by time-of-
flight neutron powder diffraction
;
loop_
_citation_id
_citation_journal_abbrev
_citation_year
_citation_journal_volume
_citation_page_first
_citation_page_last
_citation_journal_id_ASTM
primary 'Acta Crystallographica, Section B: Structural Science'
 1989 45 542 549 ASBSDK
_publ_author_name                  'Wechsler, B.A.;von Dreele, R.B.'
_cell_length_a                     5.05478(26)
_cell_length_b                     5.05478(26)
_cell_length_c                     13.8992(7)
_cell_angle_alpha                  90.
_cell_angle_beta                   90.
_cell_angle_gamma                  120.
_cell_volume                       307.56
_cell_formula_units_Z              6
_symmetry_space_group_name_H-M     'R -3 H'
_symmetry_Int_Tables_number        148
_refine_ls_R_factor_all            .0257
loop_
_symmetry_equiv_pos_site_id
_symmetry_equiv_pos_as_xyz
  1	'x-y, x, -z'
  2	'y, -x+y, -z'
  3	'-x, -y, -z'
  4	'-x+y, -x, z'
  5	'-y, x-y, z'
  6	'x, y, z'
  7	'x-y+.6666, x+.3333, -z+.3333'
  8	'x-y+.3333, x+.6666, -z+.6666'
  9	'y+.6666, -x+y+.3333, -z+.3333'
 10	'y+.3333, -x+y+.6666, -z+.6666'
 11	'-x+.6666, -y+.3333, -z+.3333'
 12	'-x+.3333, -y+.6666, -z+.6666'
 13	'-x+y+.6666, -x+.3333, z+.3333'
 14	'-x+y+.3333, -x+.6666, z+.6666'
 15	'-y+.6666, x-y+.3333, z+.3333'
 16	'-y+.3333, x-y+.6666, z+.6666'
 17	'x+.6666, y+.3333, z+.3333'
 18	'x+.3333, y+.6666, z+.6666'
loop_
_atom_type_symbol
_atom_type_oxidation_number
Mg2+	2
O2-	-2
Ti4+	4
loop_
_atom_site_label
_atom_site_type_symbol
_atom_site_symmetry_multiplicity
_atom_site_Wyckoff_symbol
_atom_site_fract_x
_atom_site_fract_y
_atom_site_fract_z
_atom_site_occupancy
_atom_site_attached_hydrogens
Mg1 Mg2+ 6 c 0 0 0.35570(5) 1. 0 
Ti1 Ti4+ 6 c 0 0 0.14510(7) 1. 0 
O1 O2- 18 f 0.31591(8) 0.02146(8) 0.24635(3) 1. 0 

loop_
_atom_site_aniso_label
_atom_site_aniso_type_symbol
_atom_site_aniso_U_11
_atom_site_aniso_U_22
_atom_site_aniso_U_33
_atom_site_aniso_U_12
_atom_site_aniso_U_13
_atom_site_aniso_U_23
Mg1 Mg2+ 0.0050(2) 0.0050(2) 0.0055(2) 0.0025(1) 0 0
Ti1 Ti4+ 0.0035(2) 0.0035(2) 0.0042(3) 0.0018(1) 0 0
O1 O2- 0.0040(2) 0.0041(2) 0.0059(2) 0.0016(1) 0.0010(1) 0.0013(1)
#End of data_65794-ICSD


