data_72385-ICSD
#?2014 by Fachinformationszentrum Karlsruhe, and the U.S. Secretary of 
#Commerce on behalf of the United States.  All rights reserved.
_database_code_ICSD                72385
_audit_creation_date               1994/01/19
_audit_update_record               2011/02/01
_chemical_name_systematic
;
Tetrapotassium Tetraselenidostannate
;
_chemical_formula_structural       'K4 (Sn Se4)'
_chemical_formula_sum              'K4 Se4 Sn1'
_publ_section_title
;
Na4 Sn Se4 und K4 Sn Se4, zwei neue Selenostannate mit isolierten 
Anionen
;
loop_
_citation_id
_citation_journal_abbrev
_citation_year
_citation_journal_volume
_citation_page_first
_citation_page_last
_citation_journal_id_ASTM
primary 'Zeitschrift fuer Naturforschung, B: Chemical Sciences'
 1992 47 411 417 ZNBSEN
_publ_author_name                  'Klepp, K.O.'
_cell_length_a                     14.714(27)
_cell_length_b                     10.323(3)
_cell_length_c                     8.248(6)
_cell_angle_alpha                  90.
_cell_angle_beta                   90.
_cell_angle_gamma                  90.
_cell_volume                       1252.81
_cell_formula_units_Z              4
_symmetry_space_group_name_H-M     'P n m a'
_symmetry_Int_Tables_number        62
_refine_ls_R_factor_all            .031
loop_
_symmetry_equiv_pos_site_id
_symmetry_equiv_pos_as_xyz
  1	'x+.5, y, -z+.5'
  2	'x, -y+.5, z'
  3	'-x+.5, y+.5, z+.5'
  4	'-x, -y, -z'
  5	'-x+.5, -y, z+.5'
  6	'-x, y+.5, -z'
  7	'x+.5, -y+.5, -z+.5'
  8	'x, y, z'
loop_
_atom_type_symbol
_atom_type_oxidation_number
K1+	1
Se2-	-2
Sn4+	4
loop_
_atom_site_label
_atom_site_type_symbol
_atom_site_symmetry_multiplicity
_atom_site_Wyckoff_symbol
_atom_site_fract_x
_atom_site_fract_y
_atom_site_fract_z
_atom_site_occupancy
_atom_site_attached_hydrogens
K1 K1+ 4 a 0 0 0 1. 0 
K2 K1+ 4 c 0.4259(3) 0.25 0.0048(4) 1. 0 
K3 K1+ 8 d 0.2748(3) 0.9512(2) 0.1576(3) 1. 0 
Sn1 Sn4+ 4 c 0.1660(1) 0.25 0.2581(1) 1. 0 
Se1 Se2- 8 d 0.08523(7) 0.44852(9) 0.3523(1) 1. 0 
Se2 Se2- 4 c 0.3253(1) 0.25 0.3746(2) 1. 0 
Se3 Se2- 4 c 0.1758(2) 0.25 -.0452(2) 1. 0 

loop_
_atom_site_aniso_label
_atom_site_aniso_type_symbol
_atom_site_aniso_U_11
_atom_site_aniso_U_22
_atom_site_aniso_U_33
_atom_site_aniso_U_12
_atom_site_aniso_U_13
_atom_site_aniso_U_23
K1 K1+ 0.067(2) 0.096(3) 0.040(2) -.023(3) -.020(2) 0.002(2)
K2 K1+ 0.041(2) 0.024(1) 0.047(2) 0 -.006(1) 0
K3 K1+ 0.058(1) 0.030(1) 0.032(1) 0.009(1) 0.011(1) 0.000(1)
Sn1 Sn4+ 0.0281(3) 0.0144(3) 0.0215(4) 0 0.0041(4) 0
Se1 Se2- 0.0321(4) 0.0190(4) 0.0306(4) 0.0030(5) 0.0005(5) -.0059(4)
Se2 Se2- 0.0261(7) 0.0329(7) 0.0399(8) 0 -.0004(7) 0
Se3 Se2- 0.076(1) 0.0301(1) 0.0216(6) 0 0.0096(9) 0
#End of data_72385-ICSD


