data_36311-ICSD
#?2014 by Fachinformationszentrum Karlsruhe, and the U.S. Secretary of 
#Commerce on behalf of the United States.  All rights reserved.
_database_code_ICSD                36311
_audit_creation_date               1980/01/01
_audit_update_record               2005/10/01
_chemical_name_systematic          'Calcium Catena-silicate'
_chemical_formula_structural       'Ca (Si O3)'
_chemical_formula_sum              'Ca1 O3 Si1'
_chemical_name_mineral             'Wollastonite 2M'
_publ_section_title
;
Strukturuntersuchungen des natuerlichen Wollastonits
;
loop_
_citation_id
_citation_journal_abbrev
_citation_year
_citation_journal_volume
_citation_page_first
_citation_page_last
_citation_journal_id_ASTM
primary 'Diss. Univ. Berlin' 1936 1936 1 43 THEBEF
_publ_author_name                  'Barnick, M.'
_cell_length_a                     15.36
_cell_length_b                     7.295
_cell_length_c                     7.084
_cell_angle_alpha                  90.
_cell_angle_beta                   95.41
_cell_angle_gamma                  90.
_cell_volume                       790.23
_cell_formula_units_Z              12
_symmetry_space_group_name_H-M     'P 1 21/a 1'
_symmetry_Int_Tables_number        14
loop_
_symmetry_equiv_pos_site_id
_symmetry_equiv_pos_as_xyz
  1	'x+.5, -y+.5, z'
  2	'-x, -y, -z'
  3	'-x+.5, y+.5, -z'
  4	'x, y, z'
loop_
_atom_type_symbol
_atom_type_oxidation_number
Ca2+	2
O2-	-2
Si4+	4
loop_
_atom_site_label
_atom_site_type_symbol
_atom_site_symmetry_multiplicity
_atom_site_Wyckoff_symbol
_atom_site_fract_x
_atom_site_fract_y
_atom_site_fract_z
_atom_site_occupancy
_atom_site_attached_hydrogens
O1 O2- 4 e 0.2861 0.125 0.6722 1. 0 
O2 O2- 4 e 0.2861 0.125 0.3083 1. 0 
O3 O2- 4 e 0.4083 0.3056 0.4667 1. 0 
O4 O2- 4 e 0.15 0.3056 0.8333 1. 0 
O5 O2- 4 e 0.15 0.3056 0.2028 1. 0 
O6 O2- 4 e 0.1361 0.125 0.5222 1. 0 
O7 O2- 4 e 0.4083 -.0556 0.4667 1. 0 
O8 O2- 4 e 0.15 -.0556 0.8333 1. 0 
O9 O2- 4 e 0.15 -.0556 0.2028 1. 0 
Si1 Si4+ 4 e 0.3444 0.125 0.4778 1. 0 
Si2 Si4+ 4 e 0.1833 0.125 0.7139 1. 0 
Si3 Si4+ 4 e 0.1833 0.125 0.3028 1. 0 
Ca1 Ca2+ 4 e 0.2361 0.125 0 1. 0 
Ca2 Ca2+ 4 e 0.0527 0.125 0.775 1. 0 
Ca3 Ca2+ 4 e 0.4444 0.125 0.1889 1. 0 

#End of data_36311-ICSD


