data_420287-ICSD
#?2014 by Fachinformationszentrum Karlsruhe, and the U.S. Secretary of 
#Commerce on behalf of the United States.  All rights reserved.
_database_code_ICSD                420287
_audit_creation_date               2010/08/01
_chemical_name_systematic
;
Aluminium Aqua Tris(dihydrogenphosphate(III)) Hydrate
;
_chemical_formula_structural       '(Al (H2 P O3)3 (H2 O)) (H2 O)'
_chemical_formula_sum              'H10 Al1 O11 P3'
_publ_section_title
;
The crystal structure of aluminium, iron(III), and gallium acid 
phosphites
;
loop_
_citation_id
_citation_journal_abbrev
_citation_year
_citation_journal_volume
_citation_journal_issue
_citation_page_first
_citation_page_last
_citation_journal_id_ASTM
primary Kristallografiya 2010 55 1 18 21 KRISAJ
2 'Crystallography Reports' 2010 55 1 15 18 CYSTE3
_publ_author_name                  'Zakharova, B.S.;Ilyukhin, A.B.'
_cell_length_a                     8.1217(12)
_cell_length_b                     18.725(2)
_cell_length_c                     6.6014(9)
_cell_angle_alpha                  90
_cell_angle_beta                   90
_cell_angle_gamma                  90
_cell_volume                       1003.93
_cell_formula_units_Z              4
_symmetry_space_group_name_H-M     'P n a 21'
_symmetry_Int_Tables_number        33
_refine_ls_R_factor_all            .0485
loop_
_symmetry_equiv_pos_site_id
_symmetry_equiv_pos_as_xyz
  1	'x+.5, -y+.5, z'
  2	'-x+.5, y+.5, z+.5'
  3	'-x, -y, z+.5'
  4	'x, y, z'
loop_
_atom_type_symbol
_atom_type_oxidation_number
Al3+	3
H1+	1
O2-	-2
P3+	3
loop_
_atom_site_label
_atom_site_type_symbol
_atom_site_symmetry_multiplicity
_atom_site_Wyckoff_symbol
_atom_site_fract_x
_atom_site_fract_y
_atom_site_fract_z
_atom_site_occupancy
_atom_site_attached_hydrogens
_atom_site_U_iso_or_equiv
P1 P3+ 4 a 0.44677(18) 0.42959(7) 0 1 0 0.0089(4) 
H1 H1+ 4 a 0.3186 0.3862 -0.0115 1 0 0.011 
P2 P3+ 4 a -0.11475(17) 0.54407(8) 0.0013(7) 1 0 0.0075(4) 
H2 H1+ 4 a -0.1652 0.5049 0.1602 1 0 0.009 
P3 P3+ 4 a 0.1298(2) 0.67887(8) 0.4992(7) 1 0 0.0143(4) 
H3 H1+ 4 a 0.2875 0.7033 0.4961 1 0 0.017 
Al1 Al3+ 4 a 0.2510(3) 0.55807(13) 0.1925(7) 1 0 0.0198(6) 
O1 O2- 4 a 0.3810(5) 0.5055(2) 0.0134(13) 1 0 0.0055(9) 
O2 O2- 4 a 0.5431(7) 0.4116(3) 0.2042(11) 1 0 0.0140(14) 
H4 H1+ 4 a 0.5183 0.4625 0.3007 1 0 0.021 
O3 O2- 4 a 0.5532(7) 0.4142(3) -0.1768(10) 1 0 0.0117(13) 
O4 O2- 4 a 0.0679(5) 0.5386(2) 0.0000(15) 1 0 0.0203(11) 
O5 O2- 4 a -0.2291(8) 0.5260(4) -0.1614(13) 1 0 0.043(2) 
O6 O2- 4 a -0.1534(6) 0.6227(3) 0.0694(12) 1 0 0.0289(17) 
H5 H1+ 4 a -0.2546 0.6372 0.03 1 0 0.043 
O7 O2- 4 a 0.1305(7) 0.6075(4) 0.3882(13) 1 0 0.0365(17) 
O8 O2- 4 a 0.0752(8) 0.6777(3) 0.7161(12) 1 0 0.0312(16) 
O9 O2- 4 a 0.0208(10) 0.7351(4) 0.3787(14) 1 0 0.055(2) 
H6 H1+ 4 a 0.0566 0.7583 0.2478 1 0 0.082 
O10 O2- 4 a 0.2778(5) 0.6418(2) 0.0060(13) 1 0 0.0162(11) 
H7 H1+ 4 a 0.3352 0.6136 -0.1095 1 0 0.024 
H8 H1+ 4 a 0.2235 0.6603 -0.0667 1 0 0.024 
O11 O2- 4 a 0.5660(5) 0.7123(2) 0.0032(14) 1 0 0.0143(10) 
H9 H1+ 4 a 0.5787 0.7535 -0.0423 1 0 0.021 
H10 H1+ 4 a 0.458 0.6885 0.0035 1 0 0.021 

loop_
_atom_site_aniso_label
_atom_site_aniso_type_symbol
_atom_site_aniso_U_11
_atom_site_aniso_U_22
_atom_site_aniso_U_33
_atom_site_aniso_U_12
_atom_site_aniso_U_13
_atom_site_aniso_U_23
P1 P3+ 0.0088(7) 0.0062(7) 0.0116(9) 0.0016(6) -0.0028(14) -0.0047(12)
P2 P3+ 0.0072(7) 0.0078(7) 0.0077(8) -0.0011(5) -0.0006(13) -0.0012(14)
P3 P3+ 0.0191(9) 0.0076(7) 0.0161(10) 0.0013(6) 0.0060(15) -0.0028(15)
Al1 Al3+ 0.0181(12) 0.0282(12) 0.0131(13) 0.0028(11) -0.0030(11) 
-0.0051(13)
O1 O2- 0.005(2) 0.0103(19) 0.001(2) -0.0001(14) 0.008(3) 0.000(3)
O2 O2- 0.020(3) 0.018(3) 0.004(3) 0.004(2) 0.001(3) 0.008(3)
O3 O2- 0.010(3) 0.020(3) 0.005(3) 0.007(2) 0.000(3) 0.002(3)
O4 O2- 0.010(2) 0.016(2) 0.034(3) 0.0033(18) -0.005(5) 0.001(4)
O5 O2- 0.037(4) 0.053(4) 0.040(5) -0.002(3) -0.008(4) -0.002(4)
O6 O2- 0.017(3) 0.023(3) 0.046(5) 0.007(2) -0.005(3) -0.006(3)
O7 O2- 0.028(3) 0.037(4) 0.045(4) -0.007(3) 0.001(3) -0.003(3)
O8 O2- 0.043(4) 0.025(3) 0.026(4) 0.004(3) 0.013(4) 0.014(3)
O9 O2- 0.054(5) 0.058(5) 0.053(6) 0.016(4) 0.002(5) 0.013(4)
O10 O2- 0.008(2) 0.010(2) 0.030(3) 0.0037(15) 0.006(4) -0.014(4)
O11 O2- 0.016(2) 0.0064(19) 0.021(3) -0.0056(15) 0.000(4) 0.006(4)
#End of data_420287-ICSD


