data_173942-ICSD
#?2014 by Fachinformationszentrum Karlsruhe, and the U.S. Secretary of 
#Commerce on behalf of the United States.  All rights reserved.
_database_code_ICSD                173942
_audit_creation_date               2010/02/01
_audit_update_record               2011/02/01
_chemical_name_systematic          'Potassium Cyanide'
_chemical_formula_structural       'K C N'
_chemical_formula_sum              'C1 K1 N1'
_publ_section_title
;
Elastic neutron scattering investigations of new high-pressure phases 
of K C N
;
loop_
_citation_id
_citation_journal_abbrev
_citation_year
_citation_journal_volume
_citation_journal_issue
_citation_page_first
_citation_page_last
_citation_journal_id_ASTM
primary 'Physical Review, Serie 3. B - Condensed Matter (18,1978-)'
 1981 24 3 1287 1291 PRBMDO
_publ_author_name
;
Dultz, W.;Otto, H.H.;Krause, H.;Buevoz, J.L.
;
_cell_length_a                     9.103(6)
_cell_length_b                     4.606(3)
_cell_length_c                     7.433(4)
_cell_angle_alpha                  90.
_cell_angle_beta                   122.22(12)
_cell_angle_gamma                  90.
_cell_volume                       263.66
_cell_formula_units_Z              4
_symmetry_space_group_name_H-M     'A 1 a 1'
_symmetry_Int_Tables_number        9
_refine_ls_R_factor_all            .058
loop_
_symmetry_equiv_pos_site_id
_symmetry_equiv_pos_as_xyz
  1	'x+.5, -y, z'
  2	'x, y, z'
  3	'x+.5, -y+.5, z+.5'
  4	'x, y+.5, z+.5'
loop_
_atom_type_symbol
_atom_type_oxidation_number
C2+	2
K1+	1
N3-	-3
loop_
_atom_site_label
_atom_site_type_symbol
_atom_site_symmetry_multiplicity
_atom_site_Wyckoff_symbol
_atom_site_fract_x
_atom_site_fract_y
_atom_site_fract_z
_atom_site_occupancy
_atom_site_attached_hydrogens
_atom_site_U_iso_or_equiv
K1 K1+ 4 a 0.0000 -0.082(6) 0.0000 1. 0 0.002(7) 
C1 C2+ 4 a 0.143(4) -0.086(8) 0.429(5) 1. 0 0.065(8) 
N1 N3- 4 a 0.254(3) 0.082(6) 0.495(5) 1. 0 0.068(6) 

#End of data_173942-ICSD


