data_96939-ICSD
#?2014 by Fachinformationszentrum Karlsruhe, and the U.S. Secretary of 
#Commerce on behalf of the United States.  All rights reserved.
_database_code_ICSD                96939
_audit_creation_date               2004/10/01
_chemical_name_systematic
;
Heptalithium Tetranitridovanadate - Gamma
;
_chemical_formula_structural       'Li7 (V N4)'
_chemical_formula_sum              'Li7 N4 V1'
_publ_section_title
;
Polymorphism of heptalithium nitridovanadate(V) Li7 (V N4)
;
loop_
_citation_id
_citation_journal_abbrev
_citation_year
_citation_journal_volume
_citation_page_first
_citation_page_last
_citation_journal_id_ASTM
primary 'Inorganic Chemistry' 2003 42 2538 2544 INOCAJ
_publ_author_name                  'Niewa, R.;Zherebtsov, D.;Hu, Z.'
_cell_length_a                     9.6064(1)
_cell_length_b                     9.6064(1)
_cell_length_c                     9.6064(1)
_cell_angle_alpha                  90
_cell_angle_beta                   90
_cell_angle_gamma                  90
_cell_volume                       886.51
_cell_formula_units_Z              8
_symmetry_space_group_name_H-M     'P -4 3 n'
_symmetry_Int_Tables_number        218
_refine_ls_R_factor_all            .023
loop_
_symmetry_equiv_pos_site_id
_symmetry_equiv_pos_as_xyz
  1	'-z+.5, y+.5, -x+.5'
  2	'-y+.5, x+.5, -z+.5'
  3	'-x+.5, z+.5, -y+.5'
  4	'z+.5, -y+.5, -x+.5'
  5	'y+.5, -x+.5, -z+.5'
  6	'x+.5, -z+.5, -y+.5'
  7	'-z+.5, -y+.5, x+.5'
  8	'-y+.5, -x+.5, z+.5'
  9	'-x+.5, -z+.5, y+.5'
 10	'z+.5, y+.5, x+.5'
 11	'y+.5, x+.5, z+.5'
 12	'x+.5, z+.5, y+.5'
 13	'-z, -x, y'
 14	'-y, -z, x'
 15	'-x, -y, z'
 16	'z, -x, -y'
 17	'y, -z, -x'
 18	'x, -y, -z'
 19	'-z, x, -y'
 20	'-y, z, -x'
 21	'-x, y, -z'
 22	'z, x, y'
 23	'y, z, x'
 24	'x, y, z'
loop_
_atom_type_symbol
_atom_type_oxidation_number
Li1+	1
N3-	-3
V5+	5
loop_
_atom_site_label
_atom_site_type_symbol
_atom_site_symmetry_multiplicity
_atom_site_Wyckoff_symbol
_atom_site_fract_x
_atom_site_fract_y
_atom_site_fract_z
_atom_site_occupancy
_atom_site_attached_hydrogens
_atom_site_B_iso_or_equiv
V1 V5+ 2 a 0 0 0 1. 0 3.06(6) 
V2 V5+ 6 c 0.250 0.5 0 1. 0 3.51(4) 
N1 N3- 8 e 0.3907(4) 0.3907(4) 0.3907(4) 1. 0 1.28(5) 
N2 N3- 24 i 0.1150(3) 0.1384(2) 0.3959(5) 1. 0 1.28(5) 
Li1 Li1+ 12 f 0.257(6) 0.5 0.5 1. 0 3.7(1) 
Li2 Li1+ 6 d 0.250 0 0.5 1. 0 3.7(1) 
Li3 Li1+ 6 b 0 0 0.5 1. 0 3.7(1) 
Li4 Li1+ 8 e 0.255(2) 0.255(2) 0.255(2) 1. 0 3.7(1) 
Li5 Li1+ 24 i 0.028(2) 0.244(3) 0.243(3) 1. 0 3.7(1) 

#End of data_96939-ICSD


