data_32532-ICSD
#?2014 by Fachinformationszentrum Karlsruhe, and the U.S. Secretary of 
#Commerce on behalf of the United States.  All rights reserved.
_database_code_ICSD                32532
_audit_creation_date               1984/09/10
_audit_update_record               2012/08/01
_chemical_name_systematic
;
Dimagnesium Diphosphate(V) Dihydrate
;
_chemical_formula_structural       'Mg2 (P2 O7) (H2 O)2'
_chemical_formula_sum              'H4 Mg2 O9 P2'
_publ_section_title
;
The structure of synthetic dimagnesium diphosphate(V) dihydrate
;
loop_
_citation_id
_citation_journal_abbrev
_citation_year
_citation_journal_volume
_citation_page_first
_citation_page_last
_citation_journal_id_ASTM
primary 'Acta Crystallographica B (24,1968-38,1982)' 1982 38 3 5 ACBCAR
_publ_author_name                  'Oka, J.;Kawahara, A.'
_cell_length_a                     7.367(1)
_cell_length_b                     13.906(3)
_cell_length_c                     6.277(1)
_cell_angle_alpha                  90.
_cell_angle_beta                   94.37(3)
_cell_angle_gamma                  90.
_cell_volume                       641.18
_cell_formula_units_Z              4
_symmetry_space_group_name_H-M     'P 1 21/n 1'
_symmetry_Int_Tables_number        14
_refine_ls_R_factor_all            .043
loop_
_symmetry_equiv_pos_site_id
_symmetry_equiv_pos_as_xyz
  1	'-x+.5, y+.5, -z+.5'
  2	'-x, -y, -z'
  3	'x+.5, -y+.5, z+.5'
  4	'x, y, z'
loop_
_atom_type_symbol
_atom_type_oxidation_number
H1+	1
Mg2+	2
O2-	-2
P5+	5
loop_
_atom_site_label
_atom_site_type_symbol
_atom_site_symmetry_multiplicity
_atom_site_Wyckoff_symbol
_atom_site_fract_x
_atom_site_fract_y
_atom_site_fract_z
_atom_site_occupancy
_atom_site_attached_hydrogens
_atom_site_B_iso_or_equiv
P1 P5+ 4 e 0.4324(2) 0.1881(1) 0.5622(2) 1. 0 0 
P2 P5+ 4 e 0.1522(2) 0.0852(1) 0.7570(2) 1. 0 0 
Mg1 Mg2+ 4 e 0.3537(2) 0.2512(1) 0.0474(2) 1. 0 0 
Mg2 Mg2+ 4 e 0.0831(2) 0.1122(1) 0.2627(2) 1. 0 0 
O1 O2- 4 e 0.2734(5) 0.0037(3) 0.2599(6) 1. 0 0 
O2 O2- 4 e 0.8771(4) 0.0192(2) 0.2095(5) 1. 0 0 
O3 O2- 4 e 0.3493(4) 0.0933(2) 0.6642(5) 1. 0 0 
O4 O2- 4 e 0.1645(4) 0.1423(2) 0.9635(5) 1. 0 0 
O5 O2- 4 e 0.5656(5) 0.1478(3) 0.0625(7) 1. 0 0 
O6 O2- 4 e 0.6266(4) 0.1618(2) 0.5275(5) 1. 0 0 
O7 O2- 4 e 0.3150(4) 0.2089(2) 0.3580(5) 1. 0 0 
O8 O2- 4 e 0.9144(4) 0.2322(2) 0.2263(5) 1. 0 0 
O9 O2- 4 e 0.0239(4) 0.1311(2) 0.5852(5) 1. 0 0 
H1 H1+ 4 e 0.0586(13) 0.0118(7) 0.0146(15) 1. 0 5. 
H2 H1+ 4 e 0.0658(12) 0.0165(7) 0.0039(16) 1. 0 5. 
H3 H1+ 4 e 0.0703(10) 0.0011(5) 0.0842(12) 1. 0 2. 
H4 H1+ 4 e 0.0697(9) 0.0050(5) 0.0626(11) 1. 0 2. 

#End of data_32532-ICSD


