data_155528-ICSD
#?2014 by Fachinformationszentrum Karlsruhe, and the U.S. Secretary of 
#Commerce on behalf of the United States.  All rights reserved.
_database_code_ICSD                155528
_audit_creation_date               2007/08/01
_chemical_name_systematic          'Potassium Oxotitanium Phosphate(V)'
_chemical_formula_structural       'K (Ti O) (P O4)'
_chemical_formula_sum              'K1 O5 P1 Ti1'
_publ_section_title
;
Electronic and structural properties of orthorhombic K Ti O P O4 and 
related isomorphic materials
;
loop_
_citation_id
_citation_journal_abbrev
_citation_year
_citation_journal_volume
_citation_journal_issue
_citation_page_first
_citation_page_last
_citation_journal_id_ASTM
primary 'Physica Status Solidi B - Basic Solid State Physics'
 2005 242 7 1392 1398 PSSBBD
_publ_author_name
;
Lowther, J.E.;Manyum, P.;Suebka, P.
;
_cell_length_a                     12.807
_cell_length_b                     6.400
_cell_length_c                     10.566
_cell_angle_alpha                  90.
_cell_angle_beta                   90.
_cell_angle_gamma                  90.
_cell_volume                       866.04
_cell_formula_units_Z              8
_symmetry_space_group_name_H-M     'P n a 21'
_symmetry_Int_Tables_number        33
loop_
_symmetry_equiv_pos_site_id
_symmetry_equiv_pos_as_xyz
  1	'x+.5, -y+.5, z'
  2	'-x+.5, y+.5, z+.5'
  3	'-x, -y, z+.5'
  4	'x, y, z'
loop_
_atom_type_symbol
_atom_type_oxidation_number
K1+	1
O2-	-2
P5+	5
Ti4+	4
loop_
_atom_site_label
_atom_site_type_symbol
_atom_site_symmetry_multiplicity
_atom_site_Wyckoff_symbol
_atom_site_fract_x
_atom_site_fract_y
_atom_site_fract_z
_atom_site_occupancy
_atom_site_attached_hydrogens
Ti1 Ti4+ 4 a 0.372 0.499 0.995 1. 0 
Ti2 Ti4+ 4 a 0.245 0.263 0.745 1. 0 
P1 P5+ 4 a 0.498 0.335 0.739 1. 0 
P2 P5+ 4 a 0.180 0.503 0.488 1. 0 
K1 K1+ 4 a 0.379 0.780 0.686 1. 0 
K2 K1+ 4 a 0.106 0.692 0.932 1. 0 
O1 O2- 4 a 0.488 0.487 0.851 1. 0 
O2 O2- 4 a 0.508 0.464 0.615 1. 0 
O3 O2- 4 a 0.400 0.195 0.721 1. 0 
O4 O2- 4 a 0.593 0.189 0.760 1. 0 
O5 O2- 4 a 0.110 0.312 0.459 1. 0 
O6 O2- 4 a 0.109 0.692 0.515 1. 0 
O7 O2- 4 a 0.254 0.538 0.373 1. 0 
O8 O2- 4 a 0.253 0.464 0.602 1. 0 
O9 O2- 4 a 0.753 0.035 0.602 1. 0 
O10 O2- 4 a 0.223 0.966 0.359 1. 0 

#End of data_155528-ICSD


