data_88989-ICSD
#?2014 by Fachinformationszentrum Karlsruhe, and the U.S. Secretary of 
#Commerce on behalf of the United States.  All rights reserved.
_database_code_ICSD                88989
_audit_creation_date               2001/07/16
_audit_update_record               2005/10/01
_chemical_name_systematic          'Dicalcium Diiron(III) Oxide'
_chemical_formula_structural       'Ca2 Fe2 O5'
_chemical_formula_sum              'Ca2 Fe2 O5'
_publ_section_title
;
A neutron diffraction study of the temperature dependence of Ca2 Fe2 
O5
;
loop_
_citation_id
_citation_journal_abbrev
_citation_year
_citation_journal_volume
_citation_journal_issue
_citation_page_first
_citation_page_last
_citation_journal_id_ASTM
primary 'Materials Research Bulletin' 1999 34 2 303 314 MRBUAC
2 'Golden Book of Phase Transitions, Wroclaw' 2002 1- 1 123 GBOPT5
_publ_author_name
;
Berastegui, P.;Eriksson, S.G.;Hull, S.
;
_cell_length_a                     5.6262(1)
_cell_length_b                     14.9836(3)
_cell_length_c                     5.4636(1)
_cell_angle_alpha                  90.
_cell_angle_beta                   90.
_cell_angle_gamma                  90.
_cell_volume                       460.59
_cell_formula_units_Z              4
_symmetry_space_group_name_H-M     'P c m n'
_symmetry_Int_Tables_number        62
_refine_ls_R_factor_all            .029
loop_
_symmetry_equiv_pos_site_id
_symmetry_equiv_pos_as_xyz
  1	'-x+.5, y, z+.5'
  2	'x, -y+.5, z'
  3	'x+.5, y+.5, -z+.5'
  4	'-x, -y, -z'
  5	'x+.5, -y, -z+.5'
  6	'-x, y+.5, -z'
  7	'-x+.5, -y+.5, z+.5'
  8	'x, y, z'
loop_
_atom_type_symbol
_atom_type_oxidation_number
Ca2+	2
Fe3+	3
O2-	-2
loop_
_atom_site_label
_atom_site_type_symbol
_atom_site_symmetry_multiplicity
_atom_site_Wyckoff_symbol
_atom_site_fract_x
_atom_site_fract_y
_atom_site_fract_z
_atom_site_occupancy
_atom_site_attached_hydrogens
_atom_site_U_iso_or_equiv
Ca1 Ca2+ 8 d 0.0218(5) 0.1078(2) 0.4910(7) 1. 0 0.0256(6) 
Fe1 Fe3+ 4 a 0 0 0 1. 0 0.0110(4) 
Fe2 Fe3+ 4 c -.0659(3) 0.25 -.0516(4) 1. 0 0.0134(5) 
O1 O2- 8 d 0.2433(5) -.0146(1) 0.2558(9) 1. 0 0.0148(5) 
O2 O2- 8 d 0.0706(4) 0.1417(1) 0.0194(6) 1. 0 0.0213(6) 
O3 O2- 4 c 0.8769(6) 0.25 0.6003(6) 1. 0 0.0142(8) 

#End of data_88989-ICSD


