data_153289-ICSD
#?2014 by Fachinformationszentrum Karlsruhe, and the U.S. Secretary of 
#Commerce on behalf of the United States.  All rights reserved.
_database_code_ICSD                153289
_audit_creation_date               2006/10/01
_chemical_name_systematic          'Lithium Dihydridoborate(I)'
_chemical_formula_structural       'Li (B H2)'
_chemical_formula_sum              'H2 B1 Li1'
_publ_section_title
;
A candidate Li B H4 for hydrogen storage: crystal structures and 
reaction mechanisms of intermediate phases
;
loop_
_citation_id
_citation_journal_abbrev
_citation_year
_citation_journal_volume
_citation_page_first
_citation_page_last
_citation_journal_id_ASTM
primary 'Applied Physics Letters' 2005 87 111904-1 111904-3 APPLAB
_publ_author_name
;
Kang Jeung Ku;Kim Se Yun;Han Young Soo;Muller, R.P.;Goddard, W.A.
;
_cell_length_a                     8.1
_cell_length_b                     3.0
_cell_length_c                     5.9
_cell_angle_alpha                  90.
_cell_angle_beta                   90.
_cell_angle_gamma                  90.
_cell_volume                       143.37
_cell_formula_units_Z              4
_symmetry_space_group_name_H-M     'P n m a'
_symmetry_Int_Tables_number        62
loop_
_symmetry_equiv_pos_site_id
_symmetry_equiv_pos_as_xyz
  1	'x+.5, y, -z+.5'
  2	'x, -y+.5, z'
  3	'-x+.5, y+.5, z+.5'
  4	'-x, -y, -z'
  5	'-x+.5, -y, z+.5'
  6	'-x, y+.5, -z'
  7	'x+.5, -y+.5, -z+.5'
  8	'x, y, z'
loop_
_atom_type_symbol
_atom_type_oxidation_number
B1+	1
H1-	-1
Li1+	1
loop_
_atom_site_label
_atom_site_type_symbol
_atom_site_symmetry_multiplicity
_atom_site_Wyckoff_symbol
_atom_site_fract_x
_atom_site_fract_y
_atom_site_fract_z
_atom_site_occupancy
_atom_site_attached_hydrogens
Li1 Li1+ 4 c 0.24 0.25 0.14 1. 0 
B1 B1+ 4 c 0.45 0.25 0.42 1. 0 
H1 H1- 4 c 0.07 0.25 0.94 1. 0 
H2 H1- 4 c 0.51 0.25 0.23 1. 0 

#End of data_153289-ICSD


