data_63533-ICSD
#?2014 by Fachinformationszentrum Karlsruhe, and the U.S. Secretary of 
#Commerce on behalf of the United States.  All rights reserved.
_database_code_ICSD                63533
_audit_creation_date               1988/12/19
_audit_update_record               2007/08/01
_chemical_name_systematic          'Dimagnesium Germanate - Ht'
_chemical_formula_structural       'Mg2 (Ge O4)'
_chemical_formula_sum              'Ge1 Mg2 O4'
_publ_section_title
;
Crystal structures of quartz and magnesium germanate by profile 
analysis of synchrotron-radiation high-resolution powder data.
;
loop_
_citation_id
_citation_journal_abbrev
_citation_year
_citation_journal_volume
_citation_journal_issue
_citation_page_first
_citation_page_last
_citation_journal_id_ASTM
primary 'Journal of Applied Crystallography' 1988 21 2 182 191 JACGAR
2 'Phase Transition' 1992 38- 127 220 PHTRDP
3 'Powder Diffraction' 1986 1- 77 99 PODIE2
_publ_author_name
;
Will, G.;Bellotto, M.;Parrish, W.;Hart, M.
;
_cell_length_a                     10.2917(6)
_cell_length_b                     6.0234(5)
_cell_length_c                     4.9059(2)
_cell_angle_alpha                  90.
_cell_angle_beta                   90.
_cell_angle_gamma                  90.
_cell_volume                       304.12
_cell_formula_units_Z              4
_symmetry_space_group_name_H-M     'P n m a'
_symmetry_Int_Tables_number        62
_refine_ls_R_factor_all            .0485
loop_
_symmetry_equiv_pos_site_id
_symmetry_equiv_pos_as_xyz
  1	'x+.5, y, -z+.5'
  2	'x, -y+.5, z'
  3	'-x+.5, y+.5, z+.5'
  4	'-x, -y, -z'
  5	'-x+.5, -y, z+.5'
  6	'-x, y+.5, -z'
  7	'x+.5, -y+.5, -z+.5'
  8	'x, y, z'
loop_
_atom_type_symbol
_atom_type_oxidation_number
Ge4+	4
Mg2+	2
O2-	-2
loop_
_atom_site_label
_atom_site_type_symbol
_atom_site_symmetry_multiplicity
_atom_site_Wyckoff_symbol
_atom_site_fract_x
_atom_site_fract_y
_atom_site_fract_z
_atom_site_occupancy
_atom_site_attached_hydrogens
_atom_site_B_iso_or_equiv
Mg1 Mg2+ 4 a 0 0 0 1. 0 -0.03(6) 
Mg2 Mg2+ 4 c 0.279(1) 0.25 0.986(2) 1. 0 -0.06(2) 
Ge1 Ge4+ 4 c 0.0951(4) 0.25 0.4346(7) 1. 0 0.9(2) 
O1 O2- 4 c 0.090(2) 0.25 0.793(3) 1. 0 -0.2(5) 
O2 O2- 4 c 0.440(2) 0.25 0.238(4) 1. 0 1.6(6) 
O3 O2- 8 d 0.163(1) 0.023(2) 0.266(4) 1. 0 1.6(4) 

#End of data_63533-ICSD


