data_174097-ICSD
#?2014 by Fachinformationszentrum Karlsruhe, and the U.S. Secretary of 
#Commerce on behalf of the United States.  All rights reserved.
_database_code_ICSD                174097
_audit_creation_date               2010/02/01
_chemical_name_systematic          'Trisilver Sulfide Bromide - Gamma'
_chemical_formula_structural       'Ag3 S Br'
_chemical_formula_sum              'Ag3 Br1 S1'
_publ_section_title
;
The phase transition and the structures of superionic conductor Ag3 S 
Br
;
loop_
_citation_id
_citation_journal_abbrev
_citation_year
_citation_journal_volume
_citation_journal_issue
_citation_page_first
_citation_page_last
_citation_journal_id_ASTM
primary 'Journal of the Physical Society of Japan' 1980 49 2 678 683 JUPSAU
_publ_author_name                  'Sakuma, T.;Hoshino, S.'
_cell_length_a                     9.423(8)
_cell_length_b                     9.423(8)
_cell_length_c                     9.711(9)
_cell_angle_alpha                  90.
_cell_angle_beta                   90.
_cell_angle_gamma                  90.
_cell_volume                       862.27
_cell_formula_units_Z              8
_symmetry_space_group_name_H-M     'C m c m'
_symmetry_Int_Tables_number        63
_refine_ls_R_factor_all            .141
loop_
_symmetry_equiv_pos_site_id
_symmetry_equiv_pos_as_xyz
  1	'-x, y, -z+.5'
  2	'-x, -y, z+.5'
  3	'-x, y, z'
  4	'-x, -y, -z'
  5	'x, -y, z+.5'
  6	'x, y, -z+.5'
  7	'x, -y, -z'
  8	'x, y, z'
  9	'-x+.5, y+.5, -z+.5'
 10	'-x+.5, -y+.5, z+.5'
 11	'-x+.5, y+.5, z'
 12	'-x+.5, -y+.5, -z'
 13	'x+.5, -y+.5, z+.5'
 14	'x+.5, y+.5, -z+.5'
 15	'x+.5, -y+.5, -z'
 16	'x+.5, y+.5, z'
loop_
_atom_type_symbol
_atom_type_oxidation_number
Ag1+	1
Br1-	-1
S2-	-2
loop_
_atom_site_label
_atom_site_type_symbol
_atom_site_symmetry_multiplicity
_atom_site_Wyckoff_symbol
_atom_site_fract_x
_atom_site_fract_y
_atom_site_fract_z
_atom_site_occupancy
_atom_site_attached_hydrogens
_atom_site_B_iso_or_equiv
Ag1 Ag1+ 8 g 0.296(7) 0.263(7) 0.25 1. 0 0.26 
Ag2 Ag1+ 8 f 0 0.263(7) -0.025(3) 1. 0 0.26 
Ag3 Ag1+ 8 e 0.294(3) 0 0 1. 0 0.26 
S1 S2- 8 d 0.25 0.25 0 1. 0 0.33 
Br1 Br1- 4 c 0 -0.046(13) 0.25 1. 0 0.13 
Br2 Br1- 4 c 0 0.493(20) 0.25 1. 0 0.13 

#End of data_174097-ICSD


