data_83534-ICSD
#?2014 by Fachinformationszentrum Karlsruhe, and the U.S. Secretary of 
#Commerce on behalf of the United States.  All rights reserved.
_database_code_ICSD                83534
_audit_creation_date               1998/06/26
_chemical_name_systematic          'Potassium Tecto-alumotrisilicate'
_chemical_formula_structural       'K (Al Si3 O8)'
_chemical_formula_sum              'Al1 K1 O8 Si3'
_chemical_name_mineral             'Microcline (ordered)'
_publ_section_title
;
A high-pressure structural study of microcline (K Al Si3 O8) to 7 GPa
;
loop_
_citation_id
_citation_journal_abbrev
_citation_year
_citation_journal_volume
_citation_page_first
_citation_page_last
_citation_journal_id_ASTM
primary 'European Journal of Mineralogy' 1997 9 263 275 EJMIER
_publ_author_name                  'Allan, D.R.;Angel, R.J.'
_cell_length_a                     8.276(2)
_cell_length_b                     12.878(2)
_cell_length_c                     7.0936(15)
_cell_angle_alpha                  90.38(3)
_cell_angle_beta                   116.372(15)
_cell_angle_gamma                  87.89(3)
_cell_volume                       676.84
_cell_formula_units_Z              4
_symmetry_space_group_name_H-M     'C -1'
_symmetry_Int_Tables_number        2
_refine_ls_R_factor_all            .073
loop_
_symmetry_equiv_pos_site_id
_symmetry_equiv_pos_as_xyz
  1	'-x, -y, -z'
  2	'x, y, z'
  3	'-x+.5, -y+.5, -z'
  4	'x+.5, y+.5, z'
loop_
_atom_type_symbol
_atom_type_oxidation_number
Al3+	3
K1+	1
O2-	-2
Si4+	4
loop_
_atom_site_label
_atom_site_type_symbol
_atom_site_symmetry_multiplicity
_atom_site_Wyckoff_symbol
_atom_site_fract_x
_atom_site_fract_y
_atom_site_fract_z
_atom_site_occupancy
_atom_site_attached_hydrogens
_atom_site_B_iso_or_equiv
K1 K1+ 4 i 0.2698(4) -.0058(7) 0.1387(4) 1. 0 1.91(9) 
Al1 Al3+ 4 i -.0014(6) 0.1884(9) 0.2166(6) 1. 0 1.31(8) 
Si2 Si4+ 4 i -.0011(5) 0.8207(9) 0.2297(6) 1. 0 1.44(7) 
Si3 Si4+ 4 i 0.6969(5) 0.1208(8) 0.3376(5) 1. 0 1.42(7) 
Si4 Si4+ 4 i 0.6931(6) 0.8865(9) 0.3475(5) 1. 0 1.48(7) 
O1 O2- 4 i 0.0002(13) 0.1454(20) -.0141(13) 1. 0 1.99(18) 
O2 O2- 4 i 0.6164(14) 0.0087(22) 0.2887(14) 1. 0 2.03(19) 
O3 O2- 4 i 0.8014(13) 0.1445(19) 0.2038(14) 1. 0 1.81(18) 
O4 O2- 4 i 0.8124(14) 0.859(2) 0.2180(14) 1. 0 2.15(20) 
O5 O2- 4 i 0.0182(15) 0.3182(23) 0.2592(15) 1. 0 2.2(2) 
O6 O2- 4 i 0.0227(14) 0.6919(22) 0.2768(14) 1. 0 1.91(19) 
O7 O2- 4 i 0.1807(13) 0.1242(20) 0.4063(13) 1. 0 1.86(18) 
O8 O2- 4 i 0.1695(14) 0.876(2) 0.4119(14) 1. 0 2.04(19) 

#End of data_83534-ICSD


