data_66998-ICSD
#?2014 by Fachinformationszentrum Karlsruhe, and the U.S. Secretary of 
#Commerce on behalf of the United States.  All rights reserved.
_database_code_ICSD                66998
_audit_creation_date               1999/01/19
_audit_update_record               2007/08/01
_chemical_name_systematic          'Aluminium Phosphate(V) - Beta'
_chemical_formula_structural       'Al (P O4)'
_chemical_formula_sum              'Al1 O4 P1'
_chemical_name_mineral             Berlinite
_publ_section_title
;
Thew temperature dependence of the crystal structure of berlinite, a 
quartz-type form of Al P O4
;
loop_
_citation_id
_citation_journal_abbrev
_citation_year
_citation_journal_volume
_citation_page_first
_citation_page_last
_citation_journal_id_ASTM
primary 'Physics and Chemistry of Minerals' 1997 24 243 253 PCMIDU
2 'Phase Transition' 1992 38 127 220 PHTRDP
_publ_author_name                  'Muraoka, Y.;Kihara, K.'
_cell_length_a                     5.040(2)
_cell_length_b                     5.040(2)
_cell_length_c                     11.061(3)
_cell_angle_alpha                  90.
_cell_angle_beta                   90.
_cell_angle_gamma                  120.
_cell_volume                       243.32
_cell_formula_units_Z              3
_symmetry_space_group_name_H-M     'P 64 2 2'
_symmetry_Int_Tables_number        181
_refine_ls_R_factor_all            .036
loop_
_symmetry_equiv_pos_site_id
_symmetry_equiv_pos_as_xyz
  1	'x, x-y, -z+.6667'
  2	'-x+y, y, -z'
  3	'-y, -x, -z+.3333'
  4	'-x, -x+y, -z+.6667'
  5	'x-y, -y, -z'
  6	'y, x, -z+.3333'
  7	'x-y, x, z+.6667'
  8	'y, -x+y, z+.3333'
  9	'-x, -y, z'
 10	'-x+y, -x, z+.6667'
 11	'-y, x-y, z+.3333'
 12	'x, y, z'
loop_
_atom_type_symbol
_atom_type_oxidation_number
Al3+	3
O2-	-2
P5+	5
loop_
_atom_site_label
_atom_site_type_symbol
_atom_site_symmetry_multiplicity
_atom_site_Wyckoff_symbol
_atom_site_fract_x
_atom_site_fract_y
_atom_site_fract_z
_atom_site_occupancy
_atom_site_attached_hydrogens
_atom_site_U_iso_or_equiv
Al1 Al3+ 3 d 0.5 0 0.5 1. 0 0.029(1) 
P1 P5+ 3 c 0.5 0 0 1. 0 0.029(1) 
O1 O2- 12 k 0.4200(8) 0.2280(7) 0.2441(3) 1. 0 0.068(2) 

#End of data_66998-ICSD


