data_28416-ICSD
#?2014 by Fachinformationszentrum Karlsruhe, and the U.S. Secretary of 
#Commerce on behalf of the United States.  All rights reserved.
_database_code_ICSD                28416
_audit_creation_date               1980/01/01
_audit_update_record               2012/08/01
_chemical_name_systematic          'Disodium Tricadmium Trisilicate'
_chemical_formula_structural       'Na2 Cd3 Si3 O10'
_chemical_formula_sum              'Cd3 Na2 O10 Si3'
_publ_section_title
;
Crystal Structure of Na, Cd - Triorthosilicate Na2 Cd3 (Si3 O10)
;
loop_
_citation_id
_citation_journal_abbrev
_citation_year
_citation_journal_volume
_citation_page_first
_citation_page_last
_citation_journal_id_ASTM
primary 'Doklady Akademii Nauk SSSR' 1968 181 92 95 DANKAS
_publ_author_name
;
Simonov, M.A.;Egorov Tismenko, Yu.K.;Belov, N.V.
;
_cell_length_a                     16.29(2)
_cell_length_b                     5.083(3)
_cell_length_c                     10.85(2)
_cell_angle_alpha                  90.
_cell_angle_beta                   86.
_cell_angle_gamma                  90.
_cell_volume                       896.21
_cell_formula_units_Z              4
_symmetry_space_group_name_H-M     'C 1 2/c 1'
_symmetry_Int_Tables_number        15
_refine_ls_R_factor_all            .133
loop_
_symmetry_equiv_pos_site_id
_symmetry_equiv_pos_as_xyz
  1	'x, -y, z+.5'
  2	'-x, -y, -z'
  3	'-x, y, -z+.5'
  4	'x, y, z'
  5	'x+.5, -y+.5, z+.5'
  6	'-x+.5, -y+.5, -z'
  7	'-x+.5, y+.5, -z+.5'
  8	'x+.5, y+.5, z'
loop_
_atom_type_symbol
_atom_type_oxidation_number
Cd2+	2
Na1+	1
O2-	-2
Si4+	4
loop_
_atom_site_label
_atom_site_type_symbol
_atom_site_symmetry_multiplicity
_atom_site_Wyckoff_symbol
_atom_site_fract_x
_atom_site_fract_y
_atom_site_fract_z
_atom_site_occupancy
_atom_site_attached_hydrogens
_atom_site_U_iso_or_equiv
Na1 Na1+ 8 f 0.045 0.232 0.031 1. 0 0.04 
Cd1 Cd2+ 4 c 0.25 0.25 0 1. 0 0.04 
Cd2 Cd2+ 8 f 0.342 0.709 0.206 1. 0 0.04 
Si1 Si4+ 4 e 0 0.827 0.25 1. 0 0.04 
Si2 Si4+ 8 f 0.15 0.688 0.1 1. 0 0.04 
O1 O2- 8 f 0.352 0.953 0.028 1. 0 0.04 
O2 O2- 8 f 0.451 0.479 0.156 1. 0 0.04 
O3 O2- 8 f 0.062 0.635 0.172 1. 0 0.04 
O4 O2- 8 f 0.224 0.538 0.169 1. 0 0.04 
O5 O2- 8 f 0.159 0.015 0.101 1. 0 0.04 

#End of data_28416-ICSD


