data_421461-ICSD
#?2014 by Fachinformationszentrum Karlsruhe, and the U.S. Secretary of 
#Commerce on behalf of the United States.  All rights reserved.
_database_code_ICSD                421461
_audit_creation_date               2011/02/01
_audit_update_record               2013/02/01
_chemical_name_systematic          'Potassium Tetrafluoroargentate(II)'
_chemical_formula_structural       'K2 (Ag F4)'
_chemical_formula_sum              'Ag1 F4 K2'
_publ_section_title
;
Polymorphism of fluoroargentates(II): Facile collapse of a layered 
network of alpha-K2AgF4 due to insufficient size of potassium cation
;
loop_
_citation_id
_citation_journal_abbrev
_citation_year
_citation_journal_volume
_citation_journal_issue
_citation_page_first
_citation_page_last
_citation_journal_id_ASTM
primary 'European Journal of Inorganic Chemistry  (online)'
 2010 2010 19 2919 2925 EJICFO
_publ_author_name
;
Kurzydlowski, D.;Derzsi, M.;Budzianowski, A.;Jaglicic, Z.;Kozminski, 
W.;Mazej, Z.;Grochala, W.
;
_cell_length_a                     3.71740(6)
_cell_length_b                     10.2736(2)
_cell_length_c                     6.3856(1)
_cell_angle_alpha                  90
_cell_angle_beta                   91.745(1)
_cell_angle_gamma                  90
_cell_volume                       243.76
_cell_formula_units_Z              2
_symmetry_space_group_name_H-M     'P 1 21/c 1'
_symmetry_Int_Tables_number        14
_refine_ls_R_factor_all            .0281
loop_
_symmetry_equiv_pos_site_id
_symmetry_equiv_pos_as_xyz
  1	'x, -y+.5, z+.5'
  2	'-x, -y, -z'
  3	'-x, y+.5, -z+.5'
  4	'x, y, z'
loop_
_atom_type_symbol
_atom_type_oxidation_number
Ag2+	2
F1-	-1
K1+	1
loop_
_atom_site_label
_atom_site_type_symbol
_atom_site_symmetry_multiplicity
_atom_site_Wyckoff_symbol
_atom_site_fract_x
_atom_site_fract_y
_atom_site_fract_z
_atom_site_occupancy
_atom_site_attached_hydrogens
_atom_site_B_iso_or_equiv
K1 K1+ 4 e 0.51830(75) 0.18245(21) 0.41886(32) 1 0 0.229(56) 
Ag1 Ag2+ 2 a 0 0 0 1 0 0.089(20) 
F1 F1- 4 e 0.4059(13) -0.05259(52) 0.22065(85) 1 0 0.51(15) 
F2 F1- 4 e 0.0197(16) 0.18610(51) 0.11944(83) 1 0 0.16(13) 

#End of data_421461-ICSD


