data_410869-ICSD
#?2014 by Fachinformationszentrum Karlsruhe, and the U.S. Secretary of 
#Commerce on behalf of the United States.  All rights reserved.
_database_code_ICSD                410869
_audit_creation_date               2000/07/15
_chemical_name_systematic          'Potassium Zincoborodiphosphate(V)'
_chemical_formula_structural       'K (Zn B P2 O8)'
_chemical_formula_sum              'B1 K1 O8 P2 Zn1'
_publ_section_title
;
K (Zn B P2 O8) and A (Zn B P2 O8) (A= NH4+, Rb+, Cs+): 
Zincoborophosphates as a new class of compounds with tetrahedral 
framework structures
;
loop_
_citation_id
_citation_journal_abbrev
_citation_year
_citation_journal_volume
_citation_page_first
_citation_page_last
_citation_journal_id_ASTM
primary 'Angewandte Chemie. International Edition' 1999 38 3642 3644 ACIEF5
_publ_author_name
;
Kniep, R.;Schaefer, G.;Engelmann, H.;Boy, I.
;
_cell_length_a                     12.617(5)
_cell_length_b                     12.773(6)
_cell_length_c                     8.415(3)
_cell_angle_alpha                  90.
_cell_angle_beta                   91.25(3)
_cell_angle_gamma                  90.
_cell_volume                       1355.81
_cell_formula_units_Z              8
_symmetry_space_group_name_H-M     'C 1 2/c 1'
_symmetry_Int_Tables_number        15
_refine_ls_R_factor_all            .0415
loop_
_symmetry_equiv_pos_site_id
_symmetry_equiv_pos_as_xyz
  1	'x, -y, z+.5'
  2	'-x, -y, -z'
  3	'-x, y, -z+.5'
  4	'x, y, z'
  5	'x+.5, -y+.5, z+.5'
  6	'-x+.5, -y+.5, -z'
  7	'-x+.5, y+.5, -z+.5'
  8	'x+.5, y+.5, z'
loop_
_atom_type_symbol
_atom_type_oxidation_number
B3+	3
K1+	1
O2-	-2
P5+	5
Zn2+	2
loop_
_atom_site_label
_atom_site_type_symbol
_atom_site_symmetry_multiplicity
_atom_site_Wyckoff_symbol
_atom_site_fract_x
_atom_site_fract_y
_atom_site_fract_z
_atom_site_occupancy
_atom_site_attached_hydrogens
K1 K1+ 4 e 0 0.03062(8) 0.25 1. 0 
K2 K1+ 4 e 0 0.40198(9) 0.25 1. 0 
Zn1 Zn2+ 8 f 0.12484(3) 0.18863(3) 0.56156(4) 1. 0 
B1 B3+ 8 f 0.3154(3) 0.1095(2) 0.0743(4) 1. 0 
P1 P5+ 8 f 0.30763(6) 0.08122(6) 0.40736(8) 1. 0 
P2 P5+ 8 f 0.37135(5) 0.31902(6) 0.05911(8) 1. 0 
O1 O2- 8 f 0.13677(17) 0.33267(16) 0.4971(2) 1. 0 
O2 O2- 8 f 0.14957(15) 0.47485(16) 0.0303(2) 1. 0 
O3 O2- 8 f 0.18852(16) 0.08959(16) 0.4144(2) 1. 0 
O4 O2- 8 f 0.20168(16) 0.12725(16) 0.0681(2) 1. 0 
O5 O2- 8 f 0.33073(18) 0.33899(17) 0.2226(2) 1. 0 
O6 O2- 8 f 0.34843(17) 0.08187(18) 0.2357(2) 1. 0 
O7 O2- 8 f 0.37547(17) 0.20068(16) 0.0189(3) 1. 0 
O8 O2- 8 f 0.48067(16) 0.36310(16) 0.0311(3) 1. 0 

loop_
_atom_site_aniso_label
_atom_site_aniso_type_symbol
_atom_site_aniso_U_11
_atom_site_aniso_U_22
_atom_site_aniso_U_33
_atom_site_aniso_U_12
_atom_site_aniso_U_13
_atom_site_aniso_U_23
K1 K1+ 0.0343(6) 0.0167(5) 0.0145(5) 0 -.0061(4) 0
K2 K1+ 0.0192(5) 0.0272(5) 0.0179(5) 0 0.0014(4) 0
Zn1 Zn2+ 0.00949(16) 0.01089(16) 0.00923(16) -.00075(13) 0.00015(11) 
-.00056(12)
B1 B3+ 0.0108(14) 0.0083(14) 0.0066(13) 0.0011(11) -.0001(11) -.0009(11)
P1 P5+ 0.0075(3) 0.0078(3) 0.0067(3) 0.0002(2) 0.0000(2) 0.0012(2)
P2 P5+ 0.0062(3) 0.0070(3) 0.0075(3) -.0002(3) -.0008(2) 0.0004(3)
O1 O2- 0.0194(11) 0.0091(10) 0.0142(10) -.0042(8) -.0039(8) 0.0008(8)
O2 O2- 0.0103(10) 0.0085(9) 0.0161(10) -.0008(8) 0.0039(8) -.0062(8)
O3 O2- 0.0082(10) 0.0135(10) 0.0128(10) 0.0021(8) 0.0007(8) -.0027(8)
O4 O2- 0.0086(9) 0.016(1) 0.0073(9) 0.0026(8) 0.0001(7) 0.0023(8)
O5 O2- 0.0190(11) 0.0205(11) 0.0065(9) 0.0035(9) -.0004(8) 0.0010(8)
O6 O2- 0.0108(10) 0.0277(12) 0.0071(9) 0.0052(9) 0.0001(8) 0.0056(9)
O7 O2- 0.0141(10) 0.0076(9) 0.0178(11) -.0002(8) 0.0072(8) 0.0012(8)
O8 O2- 0.0050(9) 0.0119(10) 0.0225(11) -.0012(8) -.0023(8) 0.0017(8)
#End of data_410869-ICSD


