data_653637-ICSD
#?2014 by Fachinformationszentrum Karlsruhe, and the U.S. Secretary of 
#Commerce on behalf of the United States.  All rights reserved.
_database_code_ICSD                653637
_audit_creation_date               2008/07/07
_audit_update_record               2014/08/01
_chemical_name_systematic          'Disodium Trithiogermanate'
_chemical_formula_structural       'Ge Na2 S3'
_chemical_formula_sum              'Ge1 Na2 S3'
_publ_section_title
;
Chimie Min?rale. Etude radiocristallographique des thiogermanates de 
sodium
;
loop_
_citation_id
_citation_journal_abbrev
_citation_year
_citation_journal_volume
_citation_page_first
_citation_page_last
_citation_journal_id_ASTM
primary 'Revue de Chimie Minerale' 1972 9 757 770 RVCMA8
2
;
Comptes Rendus Hebdomadaires des Seances de l`Academie des Sciences, 
Serie C, Sciences Chimiques (1966-)
;
 1972 274 1185 1187 CHDCAQ
_publ_author_name
;
Olivier Fourcade, J.;Philippot, E.;Ribes, M.;Maurin, M.
;
_cell_length_a                     6.952(7)
_cell_length_b                     15.230(9)
_cell_length_c                     5.720(5)
_cell_angle_alpha                  90.0
_cell_angle_beta                   115.24
_cell_angle_gamma                  90.0
_cell_volume                       547.81
_cell_formula_units_Z              4
_symmetry_space_group_name_H-M     'P 1 21/c 1'
_symmetry_Int_Tables_number        14
_refine_ls_R_factor_all            .119
loop_
_symmetry_equiv_pos_site_id
_symmetry_equiv_pos_as_xyz
  1	'x, -y+.5, z+.5'
  2	'-x, -y, -z'
  3	'-x, y+.5, -z+.5'
  4	'x, y, z'
loop_
_atom_type_symbol
_atom_type_oxidation_number
Ge4+	4
Na1+	1
S2-	-2
loop_
_atom_site_label
_atom_site_type_symbol
_atom_site_symmetry_multiplicity
_atom_site_Wyckoff_symbol
_atom_site_fract_x
_atom_site_fract_y
_atom_site_fract_z
_atom_site_occupancy
_atom_site_attached_hydrogens
Ge1 Ge4+ 4 e 0.0387 0.1714 0.3450 1 0 
Na1 Na1+ 4 e 0.7801 0.4685 0.1650 1 0 
Na2 Na1+ 4 e 0.4435 0.3361 0.4793 1 0 
S1 S2- 4 e 0.8202 0.0655 0.1680 1 0 
S2 S2- 4 e 0.9619 0.3061 0.1840 1 0 
S3 S2- 4 e 0.3731 0.1449 0.4455 1 0 

loop_
_atom_site_aniso_label
_atom_site_aniso_type_symbol
_atom_site_aniso_U_11
_atom_site_aniso_U_22
_atom_site_aniso_U_33
_atom_site_aniso_U_12
_atom_site_aniso_U_13
_atom_site_aniso_U_23
Ge1 Ge4+ .024 .028 .031 0 .015 -.001
Na1 Na1+ .039 .041 .041 -.004 .022 -.002
Na2 Na1+ .051 .063 .046 -.015 .025 .001
S1 S2- .026 .028 .034 -.004 .015 -.005
S2 S2- .044 .030 .040 .008 .027 .007
S3 S2- .022 .032 .034 .002 .015 .002
#End of data_653637-ICSD


