data_86154-ICSD
#?2014 by Fachinformationszentrum Karlsruhe, and the U.S. Secretary of 
#Commerce on behalf of the United States.  All rights reserved.
_database_code_ICSD                86154
_audit_creation_date               1999/11/30
_audit_update_record               2011/02/01
_chemical_name_systematic
;
Dipotassium Tetrafluoroberyllate - Ht
;
_chemical_formula_structural       'K2 Be F4'
_chemical_formula_sum              'Be1 F4 K2'
_publ_section_title
;
X-ray and thermal study of beta-(K2 S O4)-type K2 Be F4
;
loop_
_citation_id
_citation_journal_abbrev
_citation_year
_citation_journal_volume
_citation_page_first
_citation_page_last
_citation_journal_id_ASTM
primary 'Journal of the Korean Physical Society' 1998 32 73 76 JKPSDV
2 'Phase Transition' 1992 38 127 220 PHTRDP
_publ_author_name
;
Onodera, A.;Sawada, T.;Kawamura, Y.;Takama, T.;Fujita, M.;Yamashita, 
H.
;
_cell_length_a                     7.316(4)
_cell_length_b                     9.888(3)
_cell_length_c                     5.699(2)
_cell_angle_alpha                  90.
_cell_angle_beta                   90.
_cell_angle_gamma                  90.
_cell_volume                       412.27
_cell_formula_units_Z              4
_symmetry_space_group_name_H-M     'P n a m'
_symmetry_Int_Tables_number        62
_refine_ls_R_factor_all            .036
loop_
_symmetry_equiv_pos_site_id
_symmetry_equiv_pos_as_xyz
  1	'x+.5, -y+.5, z'
  2	'x, y, -z+.5'
  3	'-x+.5, y+.5, z+.5'
  4	'-x, -y, -z'
  5	'-x+.5, y+.5, -z'
  6	'-x, -y, z+.5'
  7	'x+.5, -y+.5, -z+.5'
  8	'x, y, z'
loop_
_atom_type_symbol
_atom_type_oxidation_number
Be2+	2
F1-	-1
K1+	1
loop_
_atom_site_label
_atom_site_type_symbol
_atom_site_symmetry_multiplicity
_atom_site_Wyckoff_symbol
_atom_site_fract_x
_atom_site_fract_y
_atom_site_fract_z
_atom_site_occupancy
_atom_site_attached_hydrogens
K1 K1+ 4 c 0.6601(1) 0.5916(1) 0.25 1. 0 
K2 K1+ 4 c 0.9882(1) 0.3061(1) 0.25 1. 0 
Be1 Be2+ 4 c 0.2332(3) 0.5798(3) 0.25 1. 0 
F1 F1- 4 c 0.0236(2) 0.5823(2) 0.25 1. 0 
F2 F1- 4 c 0.3080(2) 0.4337(1) 0.25 1. 0 
F3 F1- 8 d 0.3069(1) 0.6525(1) 0.0289(2) 1. 0 

loop_
_atom_site_aniso_label
_atom_site_aniso_type_symbol
_atom_site_aniso_U_11
_atom_site_aniso_U_22
_atom_site_aniso_U_33
_atom_site_aniso_U_12
_atom_site_aniso_U_13
_atom_site_aniso_U_23
K1 K1+ 0.01680(18) 0.02530(21) 0.02129(20) 0.00069(16) 0 0
K2 K1+ 0.01371(15) 0.01417(15) 0.02122(18) -0.00031(13) 0 0
Be1 Be2+ 0.01387(88) 0.01620(98) 0.01659(99) -0.00085(76) 0 0
F1 F1- 0.0113(5) 0.02595(68) 0.04322(94) 0.00215(49) 0 0
F2 F1- 0.01918(56) 0.01252(50) 0.03375(76) 0.00371(44) 0 0
F3 F1- 0.02717(45) 0.03049(48) 0.01790(43) -0.00587(40) 0.00141(38) 
0.00925(40)
#End of data_86154-ICSD


