data_202526-ICSD
#?2014 by Fachinformationszentrum Karlsruhe, and the U.S. Secretary of 
#Commerce on behalf of the United States.  All rights reserved.
_database_code_ICSD                202526
_audit_creation_date               1988/12/19
_chemical_name_systematic          'Dipotassium Plutonium(IV) Chloride'
_chemical_formula_structural       'K2 Pu Cl6'
_chemical_formula_sum              'Cl6 K2 Pu1'
_publ_section_title
;
Preparation and crystal structures of plutonium(IV) hexachloro 
complexes, Rb2 Pu Cl6 and K2 Pu Cl6
;
loop_
_citation_id
_citation_journal_abbrev
_citation_year
_citation_journal_volume
_citation_page_first
_citation_page_last
_citation_journal_id_ASTM
primary 'Journal of Solid State Chemistry' 1988 72 338 352 JSSCBI
_publ_author_name                  'Morss, L.R.;Fujino, T.'
_cell_length_a                     7.218(5)
_cell_length_b                     7.611(6)
_cell_length_c                     10.208(7)
_cell_angle_alpha                  90.
_cell_angle_beta                   91.59(4)
_cell_angle_gamma                  90.
_cell_volume                       560.57
_cell_formula_units_Z              2
_symmetry_space_group_name_H-M     'P 1 2/m 1'
_symmetry_Int_Tables_number        10
loop_
_symmetry_equiv_pos_site_id
_symmetry_equiv_pos_as_xyz
  1	'-x, y, -z'
  2	'-x, -y, -z'
  3	'x, -y, z'
  4	'x, y, z'
loop_
_atom_type_symbol
_atom_type_oxidation_number
Cl1-	-1
K1+	1
Pu4+	4
loop_
_atom_site_label
_atom_site_type_symbol
_atom_site_symmetry_multiplicity
_atom_site_Wyckoff_symbol
_atom_site_fract_x
_atom_site_fract_y
_atom_site_fract_z
_atom_site_occupancy
_atom_site_attached_hydrogens
K1 K1+ 2 m 0.4913 0 0.2772 1. 0 
K2 K1+ 2 n -.0088 0.5 0.7772 1. 0 
Pu1 Pu4+ 1 a 0 0 0 1. 0 
Pu2 Pu4+ 1 h 0.5 0.5 0.5 1. 0 
Cl1 Cl1- 2 m 0.0099 0 0.2519 1. 0 
Cl2 Cl1- 2 n 0.5099 0.5 0.7519 1. 0 
Cl3 Cl1- 4 o 0.2278 0.2595 0 1. 0 
Cl4 Cl1- 4 o 0.7278 0.7595 0.5 1. 0 

#End of data_202526-ICSD


