data_421531-ICSD
#?2014 by Fachinformationszentrum Karlsruhe, and the U.S. Secretary of 
#Commerce on behalf of the United States.  All rights reserved.
_database_code_ICSD                421531
_audit_creation_date               2011/02/01
_chemical_name_systematic
;
Sodium Dititanium Tris(arsenate(V))
;
_chemical_formula_structural       'Na Ti2 (As O4)3'
_chemical_formula_sum              'As3 Na1 O12 Ti2'
_publ_section_title
;
Crystal structure of the arsenate(V) Na Ti2 [As O4]3
;
loop_
_citation_id
_citation_journal_abbrev
_citation_year
_citation_journal_volume
_citation_journal_issue
_citation_page_first
_citation_page_last
_citation_journal_id_ASTM
primary 'Zeitschrift fuer Naturforschung, B: Chemical Sciences'
 2010 65 5 639 642 ZNBSEN
_publ_author_name
;
Ben Yahia, H.;Rodewald, U.C.;Poettgen, R.
;
_cell_length_a                     8.8057(5)
_cell_length_b                     8.8057(5)
_cell_length_c                     22.2406(15)
_cell_angle_alpha                  90
_cell_angle_beta                   90
_cell_angle_gamma                  120
_cell_volume                       1493.5
_cell_formula_units_Z              6
_symmetry_space_group_name_H-M     'R -3 c H'
_symmetry_Int_Tables_number        167
_refine_ls_R_factor_all            .0315
loop_
_symmetry_equiv_pos_site_id
_symmetry_equiv_pos_as_xyz
  1	'x-y, -y, -z+.5'
  2	'-x, -x+y, -z+.5'
  3	'y, x, -z+.5'
  4	'x-y, x, -z'
  5	'y, -x+y, -z'
  6	'-x, -y, -z'
  7	'-x+y, y, z+.5'
  8	'x, x-y, z+.5'
  9	'-y, -x, z+.5'
 10	'-x+y, -x, z'
 11	'-y, x-y, z'
 12	'x, y, z'
 13	'x-y+.6666, -y+.3333, -z+.8333'
 14	'x-y+.3333, -y+.6666, -z+.1666'
 15	'-x+.6666, -x+y+.3333, -z+.8333'
 16	'-x+.3333, -x+y+.6666, -z+.1666'
 17	'y+.6666, x+.3333, -z+.8333'
 18	'y+.3333, x+.6666, -z+.1666'
 19	'x-y+.6666, x+.3333, -z+.3333'
 20	'x-y+.3333, x+.6666, -z+.6666'
 21	'y+.6666, -x+y+.3333, -z+.3333'
 22	'y+.3333, -x+y+.6666, -z+.6666'
 23	'-x+.6666, -y+.3333, -z+.3333'
 24	'-x+.3333, -y+.6666, -z+.6666'
 25	'-x+y+.6666, y+.3333, z+.8333'
 26	'-x+y+.3333, y+.6666, z+.1666'
 27	'x+.6666, x-y+.3333, z+.8333'
 28	'x+.3333, x-y+.6666, z+.1666'
 29	'-y+.6666, -x+.3333, z+.8333'
 30	'-y+.3333, -x+.6666, z+.1666'
 31	'-x+y+.6666, -x+.3333, z+.3333'
 32	'-x+y+.3333, -x+.6666, z+.6666'
 33	'-y+.6666, x-y+.3333, z+.3333'
 34	'-y+.3333, x-y+.6666, z+.6666'
 35	'x+.6666, y+.3333, z+.3333'
 36	'x+.3333, y+.6666, z+.6666'
loop_
_atom_type_symbol
_atom_type_oxidation_number
As5+	5
Na1+	1
O2-	-2
Ti4+	4
loop_
_atom_site_label
_atom_site_type_symbol
_atom_site_symmetry_multiplicity
_atom_site_Wyckoff_symbol
_atom_site_fract_x
_atom_site_fract_y
_atom_site_fract_z
_atom_site_occupancy
_atom_site_attached_hydrogens
_atom_site_U_iso_or_equiv
Na1 Na1+ 6 b 0 0 0 1 0 0.0283(9) 
Ti1 Ti4+ 12 c 0 0 0.14354(3) 1 0 0.00755(18) 
As1 As5+ 18 e 0.28614(4) 0 0.25 1 0 0.00772(13) 
O1 O2- 36 f 0.1664(4) -0.0269(4) 0.18842(10) 1 0 0.0246(10) 
O2 O2- 36 f 0.1827(3) 0.1548(3) 0.08635(9) 1 0 0.0177(7) 

loop_
_atom_site_aniso_label
_atom_site_aniso_type_symbol
_atom_site_aniso_U_11
_atom_site_aniso_U_22
_atom_site_aniso_U_33
_atom_site_aniso_U_12
_atom_site_aniso_U_13
_atom_site_aniso_U_23
Na1 Na1+ 0.0381(13) 0.0381(13) 0.0086(11) 0.0191(6) 0 0
Ti1 Ti4+ 0.0074(2) 0.0074(2) 0.0079(3) 0.00369(12) 0 0
As1 As5+ 0.00652(16) 0.00745(19) 0.00949(18) 0.00373(10) 0.00099(6) 
0.00198(11)
O1 O2- 0.0240(12) 0.0331(13) 0.0226(9) 0.0187(10) -0.0131(9) -0.0012(10)
O2 O2- 0.0107(9) 0.0143(9) 0.0158(8) -0.0032(8) 0.0041(7) 0.0006(7)
#End of data_421531-ICSD


