data_423894-ICSD
#?2014 by Fachinformationszentrum Karlsruhe, and the U.S. Secretary of 
#Commerce on behalf of the United States.  All rights reserved.
_database_code_ICSD                423894
_audit_creation_date               2014/02/01
_chemical_name_systematic
;
Lithium Dirubidium Iron Trimolybdate
;
_chemical_formula_structural       'Li Rb2 Fe (Mo O4)3'
_chemical_formula_sum              'Fe1 Li1 Mo3 O12 Rb2'
_publ_section_title
;
Phase formation in the Li2 Mo O4 - Rb2 Mo O4 - Fe2 (Mo O4)3 system 
and crystal structure of a novel triple molybdate Li Rb2 Fe (Mo O4)3
;
loop_
_citation_id
_citation_journal_abbrev
_citation_year
_citation_journal_volume
_citation_page_first
_citation_page_last
_citation_journal_id_ASTM
primary 'Journal of Solid State Chemistry' 2013 203 227 231 JSSCBI
_publ_author_name
;
Khal'baeva, Klara M.;Solodovnikov, Sergey F.;Khaikina, Elena 
G.;Kadyrova, Yuliya M.;Solodovnikova, Zoya A.;Basovich, Olga M.
;
_cell_length_a                     24.3956(6)
_cell_length_b                     5.83060(10)
_cell_length_c                     8.4368(2)
_cell_angle_alpha                  90.00
_cell_angle_beta                   90.00
_cell_angle_gamma                  90.00
_cell_volume                       1200.06
_cell_formula_units_Z              4
_symmetry_space_group_name_H-M     'P n m a'
_symmetry_Int_Tables_number        62
_refine_ls_R_factor_all            .0211
loop_
_symmetry_equiv_pos_site_id
_symmetry_equiv_pos_as_xyz
  1	'x+.5, y, -z+.5'
  2	'x, -y+.5, z'
  3	'-x+.5, y+.5, z+.5'
  4	'-x, -y, -z'
  5	'-x+.5, -y, z+.5'
  6	'-x, y+.5, -z'
  7	'x+.5, -y+.5, -z+.5'
  8	'x, y, z'
loop_
_atom_type_symbol
_atom_type_oxidation_number
Fe3+	3
Li1+	1
Mo6+	6
O2-	-2
Rb1+	1
loop_
_atom_site_label
_atom_site_type_symbol
_atom_site_symmetry_multiplicity
_atom_site_Wyckoff_symbol
_atom_site_fract_x
_atom_site_fract_y
_atom_site_fract_z
_atom_site_occupancy
_atom_site_attached_hydrogens
_atom_site_U_iso_or_equiv
Mo1 Mo6+ 4 c 0.479316(11) 0.2500 0.29713(3) 1 0 0.01031(5) 
Mo2 Mo6+ 4 c 0.678257(11) 0.7500 0.06129(3) 1 0 0.01201(6) 
Mo3 Mo6+ 4 c 0.639529(12) 0.2500 0.43702(4) 1 0 0.01647(6) 
Rb1 Rb1+ 4 c 0.710270(17) 0.7500 0.62197(5) 1 0 0.02357(8) 
Rb2 Rb1+ 4 c 0.418594(16) 0.7500 0.04716(5) 1 0 0.02393(8) 
Fe1 Fe3+ 4 c 0.558565(19) 0.7500 0.29956(6) 1 0 0.01085(8) 
O1 O2- 4 c 0.41070(11) 0.2500 0.2518(4) 1 0 0.0260(6) 
O2 O2- 4 c 0.48913(11) 0.2500 0.5042(3) 1 0 0.0156(4) 
O3 O2- 8 d 0.50918(8) -0.0020(3) 0.2084(2) 1 0 0.0185(3) 
O4 O2- 4 c 0.72059(15) 0.7500 0.2265(4) 1 0 0.0348(8) 
O5 O2- 8 d 0.69172(8) 0.5066(3) -0.0543(2) 1 0 0.0231(4) 
O6 O2- 4 c 0.60662(11) 0.7500 0.1146(3) 1 0 0.0221(5) 
O7 O2- 4 c 0.6954(2) 0.2500 0.3223(10) 1 0 0.100(3) 
O8 O2- 4 c 0.6612(3) 0.2500 0.6328(6) 1 0 0.079(2) 
O9 O2- 8 d 0.60228(10) 0.5039(4) 0.3997(3) 1 0 0.0333(5) 
Li1 Li1+ 4 c 0.7076(3) 0.2500 0.8140(8) 1 0 0.0187(12) 

loop_
_atom_site_aniso_label
_atom_site_aniso_type_symbol
_atom_site_aniso_U_11
_atom_site_aniso_U_22
_atom_site_aniso_U_33
_atom_site_aniso_U_12
_atom_site_aniso_U_13
_atom_site_aniso_U_23
Mo1 Mo6+ 0.01116(10) 0.00881(10) 0.01096(10) 0.000 0.00056(8) 0.000
Mo2 Mo6+ 0.01161(11) 0.00995(11) 0.01446(11) 0.000 0.00045(9) 0.000
Mo3 Mo6+ 0.01248(11) 0.01044(11) 0.02649(15) 0.000 -0.00621(11) 0.000
Rb1 Rb1+ 0.02723(18) 0.01999(16) 0.02349(17) 0.000 0.00128(14) 0.000
Rb2 Rb1+ 0.01802(15) 0.02578(18) 0.02798(19) 0.000 -0.00126(13) 0.000
Fe1 Fe3+ 0.01236(18) 0.00825(17) 0.01195(18) 0.000 0.00186(15) 0.000
O1 O2- 0.0120(11) 0.0379(17) 0.0281(14) 0.000 -0.0008(10) 0.000
O2 O2- 0.0211(12) 0.0137(10) 0.0119(10) 0.000 0.0033(9) 0.000
O3 O2- 0.0274(9) 0.0144(8) 0.0138(7) 0.0080(7) 0.0003(6) 0.0001(6)
O4 O2- 0.0362(18) 0.0282(16) 0.0400(19) 0.000 -0.0225(15) 0.000
O5 O2- 0.0260(9) 0.0138(8) 0.0295(10) 0.0020(7) 0.0059(8) -0.0052(7)
O6 O2- 0.0168(11) 0.0324(15) 0.0172(11) 0.000 0.0069(9) 0.000
O7 O2- 0.062(3) 0.035(2) 0.205(8) 0.000 0.092(4) 0.000
O8 O2- 0.143(5) 0.032(2) 0.062(3) 0.000 -0.082(4) 0.000
O9 O2- 0.0360(12) 0.0285(11) 0.0353(12) 0.0178(10) 0.0003(9) 0.0103(10)
Li1 Li1+ 0.023(3) 0.014(3) 0.020(3) 0.000 -0.002(2) 0.000
#End of data_423894-ICSD


