data_50525-ICSD
#?2014 by Fachinformationszentrum Karlsruhe, and the U.S. Secretary of 
#Commerce on behalf of the United States.  All rights reserved.
_database_code_ICSD                50525
_audit_creation_date               1999/11/30
_chemical_name_systematic          'Potassium Bis(fluorosulfonyl)imide'
_chemical_formula_structural       'K N (S O2 F)2'
_chemical_formula_sum              'F2 K1 N1 O4 S2'
_publ_section_title
;
Structures of bis(fluorosulfonyl)imide H N (S O2 F)2, 
bis(trifluoromethylsulfonyl)imide H N (S O2 C F3)2, and their 
potassium salts at 150 K
;
loop_
_citation_id
_citation_journal_abbrev
_citation_year
_citation_journal_volume
_citation_page_first
_citation_page_last
_citation_journal_id_ASTM
primary 'Zeitschrift fuer Kristallographie (1979-2010)' 1998 213 217 222 ZEKRDZ
_publ_author_name                  'Zak, Z.;Ruzicka, A.;Michot, C.'
_cell_length_a                     13.959(5)
_cell_length_b                     11.958(4)
_cell_length_c                     14.362(6)
_cell_angle_alpha                  90.
_cell_angle_beta                   90.(5)
_cell_angle_gamma                  90.
_cell_volume                       2397.33
_cell_formula_units_Z              16
_symmetry_space_group_name_H-M     'P b c a'
_symmetry_Int_Tables_number        61
_refine_ls_R_factor_all            .0368
loop_
_symmetry_equiv_pos_site_id
_symmetry_equiv_pos_as_xyz
  1	'x+.5, y, -z+.5'
  2	'x, -y+.5, z+.5'
  3	'-x+.5, y+.5, z'
  4	'-x, -y, -z'
  5	'-x+.5, -y, z+.5'
  6	'-x, y+.5, -z+.5'
  7	'x+.5, -y+.5, -z'
  8	'x, y, z'
loop_
_atom_type_symbol
_atom_type_oxidation_number
F1-	-1
K1+	1
N3-	-3
O2-	-2
S6+	6
loop_
_atom_site_label
_atom_site_type_symbol
_atom_site_symmetry_multiplicity
_atom_site_Wyckoff_symbol
_atom_site_fract_x
_atom_site_fract_y
_atom_site_fract_z
_atom_site_occupancy
_atom_site_attached_hydrogens
_atom_site_U_iso_or_equiv
K1 K1+ 8 c 0.6088(1) -.1282(1) 0.2796(1) 1. 0 0.019(1) 
K2 K1+ 8 c 0.8404(1) 0.0045(1) 0.0531(1) 1. 0 0.017(1) 
N1 N3- 8 c 0.3940(2) -.3846(2) 0.2498(2) 1. 0 0.016(1) 
N2 N3- 8 c 0.6384(2) -.1458(2) 0.8662(2) 1. 0 0.015(1) 
S1 S6+ 8 c 0.3606(1) -.2983(1) 0.3263(1) 1. 0 0.015(1) 
S2 S6+ 8 c 0.4479(1) -.3504(1) 0.1589(1) 1. 0 0.014(1) 
S3 S6+ 8 c 0.6659(1) -.0247(1) 0.8353(1) 1. 0 0.013(1) 
S4 S6+ 8 c 0.6246(1) -.1818(1) 0.9705(1) 1. 0 0.014(1) 
O1 O2- 8 c 0.4245(2) -.2081(2) 0.3441(2) 1. 0 0.020(1) 
O2 O2- 8 c 0.3212(2) -.3582(2) 0.4019(2) 1. 0 0.025(1) 
O3 O2- 8 c 0.4669(2) -.4508(2) 0.1085(2) 1. 0 0.021(1) 
O4 O2- 8 c 0.5229(2) -.2716(2) 0.1678(2) 1. 0 0.021(1) 
O5 O2- 8 c 0.7401(2) 0.0281(2) 0.8869(2) 1. 0 0.023(1) 
O6 O2- 8 c 0.6729(2) -.0218(2) 0.7371(2) 1. 0 0.025(1) 
O7 O2- 8 c 0.6862(2) -.1319(2) 0.0371(2) 1. 0 0.024(1) 
O8 O2- 8 c 0.6130(2) -.2997(2) 0.9705(2) 1. 0 0.020(1) 
F1 F1- 8 c 0.2731(2) -.2398(2) 0.2781(1) 1. 0 0.026(1) 
F2 F1- 8 c 0.3704(2) -.2893(2) 0.0995(1) 1. 0 0.026(1) 
F3 F1- 8 c 0.5743(2) 0.0446(2) 0.8580(2) 1. 0 0.028(1) 
F4 F1- 8 c 0.5242(1) -.1340(2) 0.9934(1) 1. 0 0.024(1) 

#End of data_50525-ICSD


