data_16170-ICSD
#?2014 by Fachinformationszentrum Karlsruhe, and the U.S. Secretary of 
#Commerce on behalf of the United States.  All rights reserved.
_database_code_ICSD                16170
_audit_creation_date               1980/01/01
_audit_update_record               2012/08/01
_chemical_name_systematic          'Lithium Iron(III) Bis(tungstate)'
_chemical_formula_structural       'Li Fe (W O4)2'
_chemical_formula_sum              'Fe1 Li1 O8 W2'
_publ_section_title
;
Crystallographic investigation of a double tungstate, Li Fe (W O4)2
;
loop_
_citation_id
_citation_journal_abbrev
_citation_year
_citation_journal_volume
_citation_page_first
_citation_page_last
_citation_journal_id_ASTM
primary Kristallografiya 1970 15 294 298 KRISAJ
2 'Soviet Physics, Crystallography (= Kristallografiya)'
 1970 15 245 248 SPHCA6
_publ_author_name                  'Klevtsov, P.V.;Klevtsova, R.F.'
_cell_length_a                     9.26
_cell_length_b                     11.38
_cell_length_c                     4.91
_cell_angle_alpha                  90.
_cell_angle_beta                   90.3
_cell_angle_gamma                  90.
_cell_volume                       517.4
_cell_formula_units_Z              4
_symmetry_space_group_name_H-M     'C 1 2/c 1'
_symmetry_Int_Tables_number        15
_refine_ls_R_factor_all            .149
loop_
_symmetry_equiv_pos_site_id
_symmetry_equiv_pos_as_xyz
  1	'x, -y, z+.5'
  2	'-x, -y, -z'
  3	'-x, y, -z+.5'
  4	'x, y, z'
  5	'x+.5, -y+.5, z+.5'
  6	'-x+.5, -y+.5, -z'
  7	'-x+.5, y+.5, -z+.5'
  8	'x+.5, y+.5, z'
loop_
_atom_type_symbol
_atom_type_oxidation_number
Fe3+	3
Li1+	1
O2-	-2
W6+	6
loop_
_atom_site_label
_atom_site_type_symbol
_atom_site_symmetry_multiplicity
_atom_site_Wyckoff_symbol
_atom_site_fract_x
_atom_site_fract_y
_atom_site_fract_z
_atom_site_occupancy
_atom_site_attached_hydrogens
_atom_site_B_iso_or_equiv
W1 W6+ 8 f 0.2460(5) 0.0914(2) 0.2470(15) 1. 0 0.42 
Fe1 Fe3+ 4 e 0 0.336(2) 0.25 1. 0 0.74 
Li1 Li1+ 4 e 0.5 0.327 0.25 1. 0 2. 
O1 O2- 8 f 0.387(9) 0.062(8) 0.94(1) 1. 0 1. 
O2 O2- 8 f 0.392(8) 0.178(7) 0.420(12) 1. 0 1. 
O3 O2- 8 f 0.356(5) 0.552(4) 0.929(12) 1. 0 1. 
O4 O2- 8 f 0.378(6) 0.697(4) 0.389(13) 1. 0 1. 

#End of data_16170-ICSD


