data_281682-ICSD
#?2014 by Fachinformationszentrum Karlsruhe, and the U.S. Secretary of 
#Commerce on behalf of the United States.  All rights reserved.
_database_code_ICSD                281682
_audit_creation_date               2004/10/01
_chemical_name_systematic
;
Potassium Samarium Tetraselenogermanate
;
_chemical_formula_structural       'K Sm (Ge Se4)'
_chemical_formula_sum              'Ge1 K1 Se4 Sm1'
_publ_section_title
;
Molten flux synthesis of an analogous series of layered alkali 
samarium selenogermanate compounds
;
loop_
_citation_id
_citation_journal_abbrev
_citation_year
_citation_journal_volume
_citation_page_first
_citation_page_last
_citation_journal_id_ASTM
primary 'Inorganic Chemistry' 2004 43 385 391 INOCAJ
_publ_author_name                  'Martin, B.R.;Dorhout, P.K.'
_cell_length_a                     6.7744(12)
_cell_length_b                     6.9938(12)
_cell_length_c                     8.9602(16)
_cell_angle_alpha                  90.
_cell_angle_beta                   108.225(3)
_cell_angle_gamma                  90.
_cell_volume                       403.23
_cell_formula_units_Z              2
_symmetry_space_group_name_H-M     'P 1 21 1'
_symmetry_Int_Tables_number        4
_refine_ls_R_factor_all            .0414
loop_
_symmetry_equiv_pos_site_id
_symmetry_equiv_pos_as_xyz
  1	'-x, y+.5, -z'
  2	'x, y, z'
loop_
_atom_type_symbol
_atom_type_oxidation_number
Ge4+	4
K1+	1
Se2-	-2
Sm3+	3
loop_
_atom_site_label
_atom_site_type_symbol
_atom_site_symmetry_multiplicity
_atom_site_Wyckoff_symbol
_atom_site_fract_x
_atom_site_fract_y
_atom_site_fract_z
_atom_site_occupancy
_atom_site_attached_hydrogens
_atom_site_U_iso_or_equiv
Sm1 Sm3+ 2 a 0.26828(16) 0.29671(16) 0.44717(13) 1. 0 0.0162(3) 
Se1 Se2- 2 a 0.4918(4) 0.0366(3) 0.7121(3) 1. 0 0.0180(7) 
Se2 Se2- 2 a 0.5356(4) 0.5204(3) 0.7271(3) 1. 0 0.0179(6) 
Ge1 Ge4+ 2 a 0.2825(3) -.2377(3) 0.6787(3) 1. 0 0.0152(6) 
Se3 Se2- 2 a -.0827(3) 0.2600(4) 0.1540(3) 1. 0 0.0246(6) 
Se4 Se2- 2 a 0.0700(3) 0.7017(3) 0.4205(3) 1. 0 0.0183(6) 
K1 K1+ 2 a 0.7537(8) -.2136(12) 0.0623(6) 1. 0 0.0377(13) 

loop_
_atom_site_aniso_label
_atom_site_aniso_type_symbol
_atom_site_aniso_U_11
_atom_site_aniso_U_22
_atom_site_aniso_U_33
_atom_site_aniso_U_12
_atom_site_aniso_U_13
_atom_site_aniso_U_23
Sm1 Sm3+ 0.0161(6) 0.0089(6) 0.0242(7) 0.0000(6) 0.0073(5) 0.0006(6)
Se1 Se2- 0.0198(13) 0.0057(12) 0.0287(18) -.0011(10) 0.0078(12) 0.0002(11)
Se2 Se2- 0.0210(13) 0.0077(11) 0.0250(17) 0.0003(10) 0.0072(12) 0.0003(11)
Ge1 Ge4+ 0.0166(12) 0.0071(13) 0.0222(12) -.0009(10) 0.0065(10) -.0013(11)
Se3 Se2- 0.0212(12) 0.0309(16) 0.0234(13) -.0015(12) 0.0095(10) -.0030(13)
Se4 Se2- 0.0185(13) 0.0152(12) 0.0214(14) 0.0025(10) 0.0064(11) -.0007(10)
K1 K1+ 0.047(3) 0.038(3) 0.029(3) -.005(4) 0.013(3) -.001(4)
#End of data_281682-ICSD


