data_71970-ICSD
#?2014 by Fachinformationszentrum Karlsruhe, and the U.S. Secretary of 
#Commerce on behalf of the United States.  All rights reserved.
_database_code_ICSD                71970
_audit_creation_date               1993/08/22
_audit_update_record               2005/10/01
_chemical_name_systematic
;
Silver Gallium Hexaselenidodiphosphate - Alpha -lt
;
_chemical_formula_structural       'Ag Ga (P2 Se6)'
_chemical_formula_sum              'Ag1 Ga1 P2 Se6'
_publ_section_title
;
Quaternary selenodiphosphates(IV):M(I)M(III)(P2Se6), 
(M(I)=Cu,Ag;M(III)=Cr,Al,Ga,In)
;
loop_
_citation_id
_citation_journal_abbrev
_citation_year
_citation_journal_volume
_citation_page_first
_citation_page_last
_citation_journal_id_ASTM
primary 'Journal of Alloys and Compounds' 1992 186 111 133 JALCEU
_publ_author_name                  'Pfeiff, R.;Kniep, R.'
_cell_length_a                     12.169(5)
_cell_length_b                     22.484(6)
_cell_length_c                     7.473(2)
_cell_angle_alpha                  90.
_cell_angle_beta                   90.
_cell_angle_gamma                  90.
_cell_volume                       2044.67
_cell_formula_units_Z              8
_symmetry_space_group_name_H-M     'P b c a'
_symmetry_Int_Tables_number        61
_refine_ls_R_factor_all            .062
loop_
_symmetry_equiv_pos_site_id
_symmetry_equiv_pos_as_xyz
  1	'x+.5, y, -z+.5'
  2	'x, -y+.5, z+.5'
  3	'-x+.5, y+.5, z'
  4	'-x, -y, -z'
  5	'-x+.5, -y, z+.5'
  6	'-x, y+.5, -z+.5'
  7	'x+.5, -y+.5, -z'
  8	'x, y, z'
loop_
_atom_type_symbol
_atom_type_oxidation_number
Ag1+	1
Ga3+	3
P4+	4
Se2-	-2
loop_
_atom_site_label
_atom_site_type_symbol
_atom_site_symmetry_multiplicity
_atom_site_Wyckoff_symbol
_atom_site_fract_x
_atom_site_fract_y
_atom_site_fract_z
_atom_site_occupancy
_atom_site_attached_hydrogens
Ag1 Ag1+ 8 c 0.3997(4) 0.9839(2) 0.1593(6) 1. 0 
Ga1 Ga3+ 8 c 0.3652(3) 0.1583(2) 0.2708(6) 1. 0 
P1 P4+ 8 c 0.0995(7) 0.1567(4) 0.4557(15) 1. 0 
P2 P4+ 8 c 0.6269(9) 0.0877(4) 0.2586(15) 1. 0 
Se1 Se2- 8 c 0.2341(3) 0.1329(2) 0.0398(5) 1. 0 
Se2 Se2- 8 c 0.5063(3) 0.2274(2) 0.1885(6) 1. 0 
Se3 Se2- 8 c 0.3040(3) 0.9933(2) 0.8483(6) 1. 0 
Se4 Se2- 8 c 0.2636(3) 0.1918(2) 0.5293(6) 1. 0 
Se5 Se2- 8 c 0.4906(3) 0.8797(2) 0.1756(5) 1. 0 
Se6 Se2- 8 c 0.4636(3) 0.0695(2) 0.3754(5) 1. 0 

loop_
_atom_site_aniso_label
_atom_site_aniso_type_symbol
_atom_site_aniso_U_11
_atom_site_aniso_U_22
_atom_site_aniso_U_33
_atom_site_aniso_U_12
_atom_site_aniso_U_13
_atom_site_aniso_U_23
Ag1 Ag1+ 0.0791(31) 0.0332(21) 0.0435(24) 0.0174(22) -.0279(25) 0.0179(19)
Ga1 Ga3+ 0.0116(20) 0.0232(22) 0.0212(24) -.0037(19) -.0024(19) 0.0023(20)
P1 P4+ 0.0087(43) 0.0061(39) 0.0215(52) -.0004(38) 0.0010(42) 0.0026(41)
P2 P4+ 0.0266(56) 0.0110(48) 0.0176(52) -.0021(46) -.0051(48) 0.0125(45)
Se1 Se2- 0.0129(17) 0.0288(21) 0.0183(18) -.0031(19) 0.0045(18) 0.0060(19)
Se2 Se2- 0.0186(19) 0.0143(17) 0.0234(20) 0.0015(16) 0.0047(19) 0.0073(17)
Se3 Se2- 0.0214(19) 0.0216(21) 0.0249(22) 0.0063(17) -.0058(19) -.0069(19)
Se4 Se2- 0.0154(18) 0.0363(22) 0.023(2) -.0012(19) 0.0008(20) -.0125(21)
Se5 Se2- 0.0228(20) 0.0232(21) 0.0216(19) -.0010(18) -.0051(19) -.0056(20)
Se6 Se2- 0.0168(18) 0.0152(19) 0.0168(19) -.0050(15) -.0007(17) 0.0025(17)
#End of data_71970-ICSD


