data_62550-ICSD
#?2014 by Fachinformationszentrum Karlsruhe, and the U.S. Secretary of 
#Commerce on behalf of the United States.  All rights reserved.
_database_code_ICSD                62550
_audit_creation_date               1988/02/22
_chemical_name_systematic          'Tripotassium Heptaniobate(V)'
_chemical_formula_structural       'K3 Nb7 O19'
_chemical_formula_sum              'K3 Nb7 O19'
_publ_section_title
;
Studies of K3 Nb7 O19 by high-resolution electron microscopy and X-
ray powder diffraction.
;
loop_
_citation_id
_citation_journal_abbrev
_citation_year
_citation_journal_volume
_citation_page_first
_citation_page_last
_citation_journal_id_ASTM
primary 'Acta Crystallographica, Section B: Structural Science'
 1987 43 238 244 ASBSDK
2 'Journal of Solid State Chemistry' 1986 61 181 189 JSSCBI
_publ_author_name                  'Sundberg, M.R.;Lundberg, M.'
_cell_length_a                     13.777(2)
_cell_length_b                     6.431(1)
_cell_length_c                     18.897(6)
_cell_angle_alpha                  90.
_cell_angle_beta                   98.06(2)
_cell_angle_gamma                  90.
_cell_volume                       1657.73
_cell_formula_units_Z              4
_symmetry_space_group_name_H-M     'P -1'
_symmetry_Int_Tables_number        2
loop_
_symmetry_equiv_pos_site_id
_symmetry_equiv_pos_as_xyz
  1	'-x, -y, -z'
  2	'x, y, z'
loop_
_atom_type_symbol
_atom_type_oxidation_number
K1+	1
Nb5+	5
O2-	-2
loop_
_atom_site_label
_atom_site_type_symbol
_atom_site_symmetry_multiplicity
_atom_site_Wyckoff_symbol
_atom_site_fract_x
_atom_site_fract_y
_atom_site_fract_z
_atom_site_occupancy
_atom_site_attached_hydrogens
Nb1 Nb5+ 2 i -.014 0.32 0.444 1. 0 
Nb2 Nb5+ 2 i 0.865 -.31 0.367 1. 0 
Nb3 Nb5+ 2 i 0.765 0.27 0.388 1. 0 
Nb4 Nb5+ 2 i 0.29 -.2 0.33 1. 0 
Nb5 Nb5+ 2 i 0.391 0.24 0.304 1. 0 
Nb6 Nb5+ 2 i 0.072 -.25 0.415 1. 0 
Nb7 Nb5+ 2 i 0.543 0.22 0.489 1. 0 
Nb8 Nb5+ 2 i 0.014 0.18 0.053 1. 0 
Nb9 Nb5+ 2 i 0.136 -.18 0.138 1. 0 
Nb10 Nb5+ 2 i 0.235 0.26 0.115 1. 0 
Nb11 Nb5+ 2 i 0.696 -.29 0.181 1. 0 
Nb12 Nb5+ 2 i 0.603 0.29 0.205 1. 0 
Nb13 Nb5+ 2 i 0.899 -.24 0.077 1. 0 
Nb14 Nb5+ 2 i 0.433 0.31 0.011 1. 0 
K1 K1+ 2 i 0.413 0.75 0.16 1. 0 
K2 K1+ 2 i 0.72 0.22 0.03 1. 0 
K3 K1+ 2 i 0.25 0.28 0.48 1. 0 
K4 K1+ 2 i 0.57 0.76 0.35 1. 0 
K5 K1+ 2 i 0.13 0.47 0.27 1. 0 
K6 K1+ 2 i 0.83 0.09 0.24 1. 0 
O1 O2- 2 i 0.04 0.8 0.05 1. 0 
O2 O2- 2 i 0.16 0.09 0.02 1. 0 
O3 O2- 2 i 0.12 0.12 0.15 1. 0 
O4 O2- 2 i 0.01 0.75 0.18 1. 0 
O5 O2- 2 i 0.2 0.52 0.12 1. 0 
O6 O2- 2 i 0.21 0.81 0.23 1. 0 
O7 O2- 2 i 0.3 0.25 0.21 1. 0 
O8 O2- 2 i 0.35 0.27 0.06 1. 0 
O9 O2- 2 i 0.52 0.3 0.12 1. 0 
O10 O2- 2 i 0.43 0.61 0.02 1. 0 
O11 O2- 2 i 0.62 0.7 0.08 1. 0 
O12 O2- 2 i 0.8 0.75 0.13 1. 0 
O13 O2- 2 i 0.88 0.09 0.09 1. 0 
O14 O2- 2 i 0.96 0.47 0.06 1. 0 
O15 O2- 2 i 0.71 0.38 0.17 1. 0 
O16 O2- 2 i 0.65 0.97 0.19 1. 0 
O17 O2- 2 i 0.57 0.59 0.22 1. 0 
O18 O2- 2 i 0.5 0.28 0.25 1. 0 
O19 O2- 2 i 0.41 0.91 0.29 1. 0 
O20 O2- 2 i 0.29 0.5 0.31 1. 0 
O21 O2- 2 i 0.27 0.12 0.35 1. 0 
O22 O2- 2 i 0.17 0.75 0.37 1. 0 
O23 O2- 2 i 0.09 0.43 0.41 1. 0 
O24 O2- 2 i 0.02 0.04 0.44 1. 0 
O25 O2- 2 i 0.36 0.82 0.43 1. 0 
O26 O2- 2 i 0.46 0.23 0.4 1. 0 
O27 O2- 2 i 0.67 0.29 0.3 1. 0 
O28 O2- 2 i 0.78 0.71 0.28 1. 0 
O29 O2- 2 i 0.96 0.73 0.32 1. 0 
O30 O2- 2 i 0.88 0.36 0.36 1. 0 
O31 O2- 2 i 0.84 0.95 0.38 1. 0 
O32 O2- 2 i 0.74 0.57 0.39 1. 0 
O33 O2- 2 i 0.65 0.23 0.44 1. 0 
O34 O2- 2 i 0.57 0.89 0.47 1. 0 
O35 O2- 1 h 0.5 0.5 0.5 1. 0 
O36 O2- 2 i 0.86 0.27 0.49 1. 0 
O37 O2- 2 i 0.93 0.69 0.47 1. 0 
O38 O2- 2 i 0.26 0.93 0.11 1. 0 
O39 O2- 1 d 0.5 0 0 1. 0 

#End of data_62550-ICSD


