data_91313-ICSD
#?2014 by Fachinformationszentrum Karlsruhe, and the U.S. Secretary of 
#Commerce on behalf of the United States.  All rights reserved.
_database_code_ICSD                91313
_audit_creation_date               2002/10/01
_chemical_name_systematic
;
Hexapotassium Pentakis(dioxouranium(VI)) Bis(vanadate) Pentaoxide
;
_chemical_formula_structural       'K6 (U O2)5 (V O4)2 O5'
_chemical_formula_sum              'K6 O23 U5 V2'
_publ_section_title
;
Synthesis, crystal structure, and comparison of two new uranyl 
vanadate layered compounds: M6 (U O2)5 (V O4)2 O5 with M = Na, K
;
loop_
_citation_id
_citation_journal_abbrev
_citation_year
_citation_journal_volume
_citation_page_first
_citation_page_last
_citation_journal_id_ASTM
primary 'Journal of Solid State Chemistry' 2000 155 342 353 JSSCBI
_publ_author_name
;
Dion, C.;Obbade, S.;Raekelboom, E.;Abraham, F.;Saadi, M.
;
_cell_length_a                     6.856(1)
_cell_length_b                     24.797(3)
_cell_length_c                     7.135(1)
_cell_angle_alpha                  90.
_cell_angle_beta                   98.79(8)
_cell_angle_gamma                  90.
_cell_volume                       1198.76
_cell_formula_units_Z              2
_symmetry_space_group_name_H-M     'P 1 21/c 1'
_symmetry_Int_Tables_number        14
_refine_ls_R_factor_all            .037
loop_
_symmetry_equiv_pos_site_id
_symmetry_equiv_pos_as_xyz
  1	'x, -y+.5, z+.5'
  2	'-x, -y, -z'
  3	'-x, y+.5, -z+.5'
  4	'x, y, z'
loop_
_atom_type_symbol
_atom_type_oxidation_number
K1+	1
O2-	-2
U6+	6
V5+	5
loop_
_atom_site_label
_atom_site_type_symbol
_atom_site_symmetry_multiplicity
_atom_site_Wyckoff_symbol
_atom_site_fract_x
_atom_site_fract_y
_atom_site_fract_z
_atom_site_occupancy
_atom_site_attached_hydrogens
_atom_site_B_iso_or_equiv
U1 U6+ 4 e 0.40712(11) 0.58161(3) 0.48557(12) 1. 0 0 
U2 U6+ 4 e 0.65489(11) 0.35810(3) 0.02824(12) 1. 0 0 
U3 U6+ 2 d 0.5 0.5 0 1. 0 0 
V1 V5+ 4 e 0.7880(5) 0.2033(1) 0.0457(5) 1. 0 0 
K1 K1+ 4 e 0.8671(7) 0.6127(2) 0.2297(7) 1. 0 0 
K2 K1+ 4 e 0.9494(7) 0.9606(2) 0.2324(7) 1. 0 0 
K3 K1+ 4 e 0.7518(2) 0.7889(3) 0.2101(9) 1. 0 0 
O1 O2- 4 e 0.034(2) 0.207(1) 0.077(2) 1. 0 2.0(3) 
O2 O2- 4 e 0.687(2) 0.265(1) 0.036(2) 1. 0 1.8(3) 
O3 O2- 4 e 0.706(2) 0.162(1) 0.217(2) 1. 0 1.2(3) 
O4 O2- 4 e 0.690(2) 0.160(1) 0.848(2) 1. 0 1.4(3) 
O5 O2- 4 e 0.146(2) 0.560(1) 0.442(2) 1. 0 1.2(2) 
O6 O2- 4 e 0.661(2) 0.607(1) 0.531(2) 1. 0 1.4(3) 
O7 O2- 4 e 0.763(2) 0.521(1) 0.029(2) 1. 0 1.1(2) 
O8 O2- 4 e 0.397(2) 0.339(1) 0.002(2) 1. 0 1.4(3) 
O9 O2- 4 e 0.920(2) 0.372(1) 0.067(2) 1. 0 1.3(3) 
O10 O2- 2 b 0.5 0.5 0.5 1. 0 1.1(3) 
O11 O2- 4 e 0.406(2) 0.570(1) 0.796(2) 1. 0 0.7(2) 
O12 O2- 4 e 0.438(2) 0.573(1) 0.175(2) 1. 0 0.8(2) 

loop_
_atom_site_aniso_label
_atom_site_aniso_type_symbol
_atom_site_aniso_U_11
_atom_site_aniso_U_22
_atom_site_aniso_U_33
_atom_site_aniso_U_12
_atom_site_aniso_U_13
_atom_site_aniso_U_23
U1 U6+ 0.0090(4) 0.0041(3) 0.0085(4) 0.0012(3) 0.0013(3) -.00009(3)
U2 U6+ 0.0092(4) 0.0048(3) 0.0091(4) 0.0011(3) 0.0010(3) 0.0002(3)
U3 U6+ 0.0093(6) 0.0033(5) 0.0131(6) 0.0013(4) 0.0020(5) 0.0006(4)
V1 V5+ 0.0162(20) 0.0078(16) 0.0090(17) -.0029(13) 0.0022(16) -.0006(13)
K1 K1+ 0.0159(25) 0.0160(23) 0.0206(26) 0.0019(17) -.0013(21) 0.0001(19)
K2 K1+ 0.0209(26) 0.0164(21) 0.0197(26) 0.0033(18) 0.0045(22) 0.0023(18)
K3 K1+ 0.0827(57) 0.0536(40) 0.0359(37) 0.0489(39) 0.0327(40) 0.0197(32)
#End of data_91313-ICSD


