data_10430-ICSD
#?2014 by Fachinformationszentrum Karlsruhe, and the U.S. Secretary of 
#Commerce on behalf of the United States.  All rights reserved.
_database_code_ICSD                10430
_audit_creation_date               1980/12/31
_audit_update_record               2012/08/01
_chemical_name_systematic
;
Potassium Tantalum Fluoride (3/4/15)
;
_chemical_formula_structural       'K3 Ta4 (F15)'
_chemical_formula_sum              'F15 K3 Ta4'
_publ_section_title
;
Structure of the potassium tantalum fluoride oxide K3 Ta4 F7 O8
;
loop_
_citation_id
_citation_journal_abbrev
_citation_year
_citation_journal_volume
_citation_page_first
_citation_page_last
_citation_journal_id_ASTM
primary 'Acta Crystallographica B (24,1968-38,1982)' 1980 36 237 240 ACBCAR
_publ_author_name
;
Boukhari, A.;Chaminade, J.P.;Pouchard, M.;Vlasse, M.
;
_cell_length_a                     3.918(3)
_cell_length_b                     18.0720(70)
_cell_length_c                     19.0570(70)
_cell_angle_alpha                  90.
_cell_angle_beta                   90.
_cell_angle_gamma                  90.
_cell_volume                       1349.35
_cell_formula_units_Z              4
_symmetry_space_group_name_H-M     'P m n 21'
_symmetry_Int_Tables_number        31
_refine_ls_R_factor_all            .083
loop_
_symmetry_equiv_pos_site_id
_symmetry_equiv_pos_as_xyz
  1	'x+.5, -y, z+.5'
  2	'-x+.5, -y, z+.5'
  3	'-x, y, z'
  4	'x, y, z'
loop_
_atom_type_symbol
_atom_type_oxidation_number
F1-	-1
K1+	1
Ta3+	3
loop_
_atom_site_label
_atom_site_type_symbol
_atom_site_symmetry_multiplicity
_atom_site_Wyckoff_symbol
_atom_site_fract_x
_atom_site_fract_y
_atom_site_fract_z
_atom_site_occupancy
_atom_site_attached_hydrogens
_atom_site_B_iso_or_equiv
Ta1 Ta3+ 2 a 0 0.9587(3) 0.01 1. 0 0 
Ta2 Ta3+ 2 a 0.5 0.9613(2) 0.3330(2) 1. 0 0 
Ta3 Ta3+ 2 a 0.5 0.1654(2) 0.3593(3) 1. 0 0 
Ta4 Ta3+ 2 a 0.5 0.5395(2) 0.0334(3) 1. 0 0 
Ta5 Ta3+ 2 a 0.5 0.4617(2) 0.2050(2) 1. 0 0 
Ta6 Ta3+ 2 a 0.5 0.6629(2) 0.1812(3) 1. 0 0 
Ta7 Ta3+ 2 a 0.5 0.2513(2) 0.1806(3) 1. 0 0 
Ta8 Ta3+ 2 a 0.5 0.7527(2) 0.3572(4) 1. 0 0 
K1 K1+ 2 a 0 0.344(2) 0.331(2) 1. 0 1.29 
K2 K1+ 2 a 0 0.832(1) 0.221(2) 1. 0 1.06 
K3 K1+ 2 a 0.5 0.147(1) 0.011(2) 1. 0 1.29 
K4 K1+ 2 a 0 0.365(1) 0.036(2) 1. 0 1.15 
K5 K1+ 2 a 0 0.571(2) 0.340(3) 1. 0 1.51 
K6 K1+ 2 a 0 0.060(2) 0.201(2) 1. 0 1.26 
F1 F1- 2 a 0 0.904(9) 0.099(9) 1. 0 1.59 
F2 F1- 2 a 0 0.054(5) 0.070(6) 1. 0 1.52 
F3 F1- 2 a 0.5 0.855(8) 0.337(6) 1. 0 1.27 
F4 F1- 2 a 0.5 0.952(6) 0.236(5) 1. 0 1.52 
F5 F1- 2 a 0.5 0.065(6) 0.312(7) 1. 0 1.52 
F6 F1- 2 a 0.5 0.966(5) 0.436(5) 1. 0 0.9 
F7 F1- 2 a 0.5 0.221(9) 0.288(8) 1. 0 1.52 
F8 F1- 2 a 0.5 0.145(6) 0.146(7) 1. 0 1.52 
F9 F1- 2 a 0.5 0.271(7) 0.091(6) 1. 0 2.08 
F10 F1- 2 a 0.5 0.264(7) 0.411(6) 1. 0 1.52 
F11 F1- 2 a 0.5 0.350(9) 0.220(7) 1. 0 1.52 
F12 F1- 2 a 0.5 0.480(5) 0.113(5) 1. 0 1.09 
F13 F1- 2 a 0.5 0.458(7) 0.310(5) 1. 0 1.52 
F14 F1- 2 a 0.5 0.580(5) 0.238(6) 1. 0 1.52 
F15 F1- 2 a 0.5 0.622(5) 0.101(6) 1. 0 1.53 
F16 F1- 2 a 0.5 0.763(9) 0.128(9) 1. 0 1.25 
F17 F1- 2 a 0.5 0.718(9) 0.277(9) 1. 0 2.09 
F18 F1- 2 a 0 0.538(6) 0.475(6) 1. 0 1.81 
F19 F1- 2 a 0 0.401(9) 0.458(9) 1. 0 1.52 
F20 F1- 2 a 0.5 0.124(6) 0.450(6) 1. 0 1.52 
F21 F1- 2 a 0.5 0.775(6) 0.463(6) 1. 0 1.52 
F22 F1- 2 a 0.5 0.649(6) 0.398(7) 1. 0 1.52 
F23 F1- 2 a 0.5 0.967(6) -.001(5) 1. 0 1.52 
F24 F1- 2 a 0 0.243(6) 0.172(6) 1. 0 1.52 
F25 F1- 2 a 0 0.963(9) 0.325(9) 1. 0 1.52 
F26 F1- 2 a 0 0.169(5) 0.378(5) 1. 0 1.52 
F27 F1- 2 a 0 0.469(9) 0.230(9) 1. 0 1.52 
F28 F1- 2 a 0 0.677(5) 0.187(5) 1. 0 1.52 
F29 F1- 2 a 0 0.748(6) 0.358(7) 1. 0 1.52 
F30 F1- 2 a 0 0.537(5) 0.027(4) 1. 0 0.76 

#End of data_10430-ICSD


