data_169345-ICSD
#?2014 by Fachinformationszentrum Karlsruhe, and the U.S. Secretary of 
#Commerce on behalf of the United States.  All rights reserved.
_database_code_ICSD                169345
_audit_creation_date               2011/02/01
_audit_update_record               2014/08/01
_chemical_name_systematic          'Dicalcium Iron Cobalt Pentaoxide'
_chemical_formula_structural       'Ca2 Fe Co O5'
_chemical_formula_sum              'Ca2 Co1 Fe1 O5'
_publ_section_title
;
Interlayer cation ordering in a brownmillerite superstructure: 
synthesis, crystal and magnetic structures of Ca2 Fe Co O5
;
loop_
_citation_id
_citation_journal_abbrev
_citation_year
_citation_journal_volume
_citation_page_first
_citation_page_last
_citation_journal_id_ASTM
primary 'Chemistry of Materials' 2010 22 6008 6020 CMATEX
_publ_author_name
;
Ramezanipour, F.;Greedan, J.E.;Grosvenor, A.P.;Britten, 
J.F.;Cranswick, L.M.D.;Garlea, V.O.
;
_cell_length_a                     5.36750(10)
_cell_length_b                     11.1072(3)
_cell_length_c                     14.7787(3)
_cell_angle_alpha                  90.00
_cell_angle_beta                   90.00
_cell_angle_gamma                  90.00
_cell_volume                       881.07
_cell_formula_units_Z              8
_symmetry_space_group_name_H-M     'P b c m'
_symmetry_Int_Tables_number        57
_refine_ls_R_factor_all            .0329
loop_
_symmetry_equiv_pos_site_id
_symmetry_equiv_pos_as_xyz
  1	'x, -y+.5, z+.5'
  2	'-x, y+.5, z'
  3	'x, y, -z+.5'
  4	'-x, -y, -z'
  5	'-x, y+.5, -z+.5'
  6	'x, -y+.5, -z'
  7	'-x, -y, z+.5'
  8	'x, y, z'
loop_
_atom_type_symbol
_atom_type_oxidation_number
Ca2+	2
Co3+	3
Fe3+	3
O2-	-2
loop_
_atom_site_label
_atom_site_type_symbol
_atom_site_symmetry_multiplicity
_atom_site_Wyckoff_symbol
_atom_site_fract_x
_atom_site_fract_y
_atom_site_fract_z
_atom_site_occupancy
_atom_site_attached_hydrogens
_atom_site_U_iso_or_equiv
Ca1 Ca2+ 8 e -0.01196(7) 0.76115(6) 0.39239(4) 1 0 0.00978(10) 
Ca2 Ca2+ 8 e -0.48847(7) 0.51099(6) 0.60752(4) 1 0 0.00967(10) 
Fe1 Fe3+ 4 d 0.44810(8) 0.71773(3) 0.2500 1 0 0.00661(7) 
Fe2 Fe3+ 4 d -0.05003(8) 0.53219(3) 0.2500 1 0 0.00659(7) 
Co1 Co3+ 4 c -0.50320(5) 0.7500 0.5000 1 0 0.00754(11) 
Co2 Co3+ 4 a 0.0000 1.0000 0.5000 1 0 0.00657(11) 
O1 O2- 4 d 0.0937(3) 0.68961(17) 0.2500 1 0 0.0088(3) 
O2 O2- 4 d 0.5961(3) 0.56069(17) 0.2500 1 0 0.0090(3) 
O3 O2- 8 e -0.2538(3) 0.6240(2) 0.48463(9) 1 0 0.00883(18) 
O4 O2- 8 e -0.7545(3) 0.6260(2) 0.48888(9) 1 0 0.00978(19) 
O5 O2- 8 e 0.0207(3) 0.4672(2) 0.36023(15) 1 0 0.0120(4) 
O6 O2- 8 e 0.5125(3) 0.7823(3) 0.36033(17) 1 0 0.0135(4) 

loop_
_atom_site_aniso_label
_atom_site_aniso_type_symbol
_atom_site_aniso_U_11
_atom_site_aniso_U_22
_atom_site_aniso_U_33
_atom_site_aniso_U_12
_atom_site_aniso_U_13
_atom_site_aniso_U_23
Ca1 Ca2+ 0.01309(18) 0.0091(2) 0.0071(2) 0.00017(9) 0.00112(9) 0.00018(17)
Ca2 Ca2+ 0.01214(18) 0.0090(2) 0.0079(3) -0.00086(9) 0.00097(9) 
-0.00001(17)
Fe1 Fe3+ 0.00720(13) 0.00767(15) 0.00496(14) 0.00055(12) 0.000 0.000
Fe2 Fe3+ 0.00713(13) 0.00772(15) 0.00493(14) -0.00065(12) 0.000 0.000
Co1 Co3+ 0.0054(2) 0.0059(2) 0.0114(3) 0.000 0.000 0.00068(19)
Co2 Co3+ 0.0058(2) 0.0044(2) 0.0095(3) 0.00009(7) 0.00028(7) 0.00147(18)
O1 O2- 0.0089(7) 0.0092(7) 0.0083(7) -0.0015(5) 0.000 0.000
O2 O2- 0.0094(7) 0.0099(7) 0.0078(7) 0.0015(5) 0.000 0.000
O3 O2- 0.0078(4) 0.0085(4) 0.0102(4) 0.0017(3) 0.0007(6) -0.0006(7)
O4 O2- 0.0076(4) 0.0083(4) 0.0135(5) -0.0019(3) 0.0002(7) -0.0012(7)
O5 O2- 0.0167(6) 0.0112(8) 0.0079(8) 0.0002(5) -0.0022(4) 0.0024(6)
O6 O2- 0.0197(8) 0.0108(9) 0.0099(10) 0.0016(4) -0.0022(4) -0.0013(7)
#End of data_169345-ICSD


