data_98476-ICSD
#?2014 by Fachinformationszentrum Karlsruhe, and the U.S. Secretary of 
#Commerce on behalf of the United States.  All rights reserved.
_database_code_ICSD                98476
_audit_creation_date               2005/04/01
_audit_update_record               2008/02/01
_chemical_name_systematic
;
Sodium Phyllo-pentaselenocupro(I)dihafnate(IV)
;
_chemical_formula_structural       'Na (Cu Hf2 Se5)'
_chemical_formula_sum              'Cu1 Hf2 Na1 Se5'
_publ_section_title
;
Quaternary chalcogenides of the IVa metals with layered 
structures:preparation and crystal structure of Na Cu Hf2 Se5
;
loop_
_citation_id
_citation_journal_abbrev
_citation_year
_citation_journal_volume
_citation_page_first
_citation_page_last
_citation_journal_id_ASTM
primary 'Solid State Sciences' 2003 5 1027 1031 SSSCFJ
_publ_author_name                  'Kolb, A.;Klepp, K.O.'
_cell_length_a                     3.7816(3)
_cell_length_b                     13.566(4)
_cell_length_c                     16.207(3)
_cell_angle_alpha                  90
_cell_angle_beta                   90
_cell_angle_gamma                  90
_cell_volume                       831.44
_cell_formula_units_Z              4
_symmetry_space_group_name_H-M     'C m c m'
_symmetry_Int_Tables_number        63
_refine_ls_R_factor_all            .034
loop_
_symmetry_equiv_pos_site_id
_symmetry_equiv_pos_as_xyz
  1	'-x, y, -z+.5'
  2	'-x, -y, z+.5'
  3	'-x, y, z'
  4	'-x, -y, -z'
  5	'x, -y, z+.5'
  6	'x, y, -z+.5'
  7	'x, -y, -z'
  8	'x, y, z'
  9	'-x+.5, y+.5, -z+.5'
 10	'-x+.5, -y+.5, z+.5'
 11	'-x+.5, y+.5, z'
 12	'-x+.5, -y+.5, -z'
 13	'x+.5, -y+.5, z+.5'
 14	'x+.5, y+.5, -z+.5'
 15	'x+.5, -y+.5, -z'
 16	'x+.5, y+.5, z'
loop_
_atom_type_symbol
_atom_type_oxidation_number
Cu1+	1
Hf4+	4
Na1+	1
Se2-	-2
loop_
_atom_site_label
_atom_site_type_symbol
_atom_site_symmetry_multiplicity
_atom_site_Wyckoff_symbol
_atom_site_fract_x
_atom_site_fract_y
_atom_site_fract_z
_atom_site_occupancy
_atom_site_attached_hydrogens
_atom_site_B_iso_or_equiv
Na1 Na1+ 4 c 0 0.036(1) 0.250 1. 0 3.3(3) 
Cu1 Cu1+ 4 c 0 0.3234(3) 0.250 1. 0 1.68(7) 
Hf1 Hf4+ 8 f 0.5 0.29101(8) 0.09806(5) 1. 0 1.35(1) 
Se1 Se2- 4 c 0.5 0.2085(3) 0.250 1. 0 1.13(5) 
Se2 Se2- 8 f 0 0.1574(2) 0.0607(1) 1. 0 1.19(4) 
Se3 Se2- 8 f 0 0.4242(2) 0.1270(1) 1. 0 1.45(4) 

loop_
_atom_site_aniso_label
_atom_site_aniso_type_symbol
_atom_site_aniso_B_11
_atom_site_aniso_B_22
_atom_site_aniso_B_33
_atom_site_aniso_B_12
_atom_site_aniso_B_13
_atom_site_aniso_B_23
Na1 Na1+ 2.4(5) 1.9(7) 5.5(7) 0. 0. 0.
Cu1 Cu1+ 1.9(1) 1.6(2) 1.6(1) 0. 0. 0.
Hf1 Hf4+ 1.28(2) 1.45(3) 1.32(3) 0. 0.30(3) 0.
Se1 Se2- 1.43(9) 1.0(1) 0.92(8) 0. 0. 0.
Se2 Se2- 1.23(6) 1.13(9) 1.22(7) 0. 0.28(7) 0.
Se3 Se2- 1.17(7) 1.06(9) 2.12(7) 0. 0.26(7) 0.
#End of data_98476-ICSD


