data_202234-ICSD
#?2014 by Fachinformationszentrum Karlsruhe, and the U.S. Secretary of 
#Commerce on behalf of the United States.  All rights reserved.
_database_code_ICSD                202234
_audit_creation_date               1988/12/19
_audit_update_record               2002/04/01
_chemical_name_systematic
;
Calcium Uranium Molybdenum Oxide (1/1/4/16)
;
_chemical_formula_structural       'Ca U Mo4 O16'
_chemical_formula_sum              'Ca1 Mo4 O16 U1'
_publ_section_title
;
Nouvelle serie d'oxydes derives de la structure de alpha U3 U8: M(II) 
U Mo4 O16
;
loop_
_citation_id
_citation_journal_abbrev
_citation_year
_citation_journal_volume
_citation_page_first
_citation_page_last
_citation_journal_id_ASTM
primary 'Journal of Solid State Chemistry' 1987 67 364 368 JSSCBI
2 'Journal of Solid State Chemistry' 1988 73 577 578 JSSCBI
_publ_author_name                  'Lee, M.-R.;Jaulmes, S.'
_cell_length_a                     13.239(5)
_cell_length_b                     6.651(2)
_cell_length_c                     8.236(3)
_cell_angle_alpha                  90.00(4)
_cell_angle_beta                   90.38(4)
_cell_angle_gamma                  120.16(3)
_cell_volume                       627.01
_cell_formula_units_Z              2
_symmetry_space_group_name_H-M     'P -1'
_symmetry_Int_Tables_number        2
_refine_ls_R_factor_all            .049
loop_
_symmetry_equiv_pos_site_id
_symmetry_equiv_pos_as_xyz
  1	'-x, -y, -z'
  2	'x, y, z'
loop_
_atom_type_symbol
_atom_type_oxidation_number
Ca2+	2
Mo6+	6
O2-	-2
U6+	6
loop_
_atom_site_label
_atom_site_type_symbol
_atom_site_symmetry_multiplicity
_atom_site_Wyckoff_symbol
_atom_site_fract_x
_atom_site_fract_y
_atom_site_fract_z
_atom_site_occupancy
_atom_site_attached_hydrogens
_atom_site_B_iso_or_equiv
U1 U6+ 2 i 0.24999(6) 0.9541(1) 0.74997(9) 1. 0 0.41(2) 
Ca1 Ca2+ 2 i 0.2501(3) 0.9540(6) 0.2503(4) 1. 0 0.20(5) 
Mo1 Mo6+ 2 i 0.5963(1) 0.4263(7) 0.7957(2) 1. 0 0.49(3) 
Mo2 Mo6+ 2 i 0.9040(1) 0.7337(7) 0.7044(2) 1. 0 0.52(3) 
Mo3 Mo6+ 2 i 0.0927(1) 0.2614(2) 0.7959(2) 1. 0 0.45(3) 
Mo4 Mo6+ 2 i 0.4072(1) 0.5759(3) 0.7043(2) 1. 0 0.45(3) 
O1 O2- 2 i 0.9330(9) 0.084(2) 0.245(1) 1. 0 0.7(2) 
O2 O2- 2 i 0.9368(9) 0.084(2) 0.749(1) 1. 0 0.5(2) 
O3 O2- 2 i 0.4335(8) 0.283(2) 0.746(1) 1. 0 0.6(2) 
O4 O2- 2 i 0.096(1) 0.247(2) 0.505(1) 1. 0 1.2(2) 
O5 O2- 2 i 0.1290(9) 0.547(2) 0.757(1) 1. 0 1.1(2) 
O6 O2- 2 i 0.748(1) 0.044(2) 0.035(1) 1. 0 1.6(2) 
O7 O2- 2 i 0.756(1) 0.054(2) 0.465(1) 1. 0 1.4(2) 
O8 O2- 2 i 0.627(1) 0.209(2) 0.258(1) 1. 0 1.4(2) 
O9 O2- 2 i 0.097(1) 0.253(2) 0.004(1) 1. 0 1.0(2) 
O10 O2- 2 i 0.2512(9) 0.323(2) 0.250(1) 1. 0 0.5(2) 
O11 O2- 2 i 0.5977(9) 0.442(2) 0.506(1) 1. 0 1.1(2) 
O12 O2- 2 i 0.1246(9) 0.543(2) 0.261(1) 1. 0 0.9(2) 
O13 O2- 2 i 0.5961(9) 0.445(2) 0.003(1) 1. 0 1.1(2) 
O14 O2- 2 i 0.249(1) 0.312(2) 0.751(1) 1. 0 0.8(2) 
O15 O2- 2 i 0.625(1) 0.205(2) 0.765(1) 1. 0 1.3(2) 
O16 O2- 2 i 0.4377(8) 0.290(2) 0.249(1) 1. 0 0.7(2) 

#End of data_202234-ICSD


