data_79700-ICSD
#?2014 by Fachinformationszentrum Karlsruhe, and the U.S. Secretary of 
#Commerce on behalf of the United States.  All rights reserved.
_database_code_ICSD                79700
_audit_creation_date               1996/10/14
_audit_update_record               2014/08/01
_chemical_name_systematic
;
Tripotassium Bis(phosphato(V))nonafluorotetraaluminate
;
_chemical_formula_structural       'K3 (Al4 (P O4)2 F9)'
_chemical_formula_sum              'Al4 F9 K3 O8 P2'
_publ_section_title
;
A new type of mixed anionic framework in the structure of K3 (Al4 F9 
(P O4)2)
;
loop_
_citation_id
_citation_journal_abbrev
_citation_year
_citation_journal_volume
_citation_page_first
_citation_page_last
_citation_journal_id_ASTM
primary 'Acta Crystallographica, Section C: Crystal Structure Communications'
 1995 51 1246 1249 ACSCEE
_publ_author_name
;
Massa, W.;Yakubovich, O.V.;Karimova, O.V.;Dem'yanets, L.N.
;
_cell_length_a                     6.7214(6)
_cell_length_b                     13.8558(7)
_cell_length_c                     7.2764(4)
_cell_angle_alpha                  90.
_cell_angle_beta                   105.927(6)
_cell_angle_gamma                  90.
_cell_volume                       651.64
_cell_formula_units_Z              2
_symmetry_space_group_name_H-M     'P 1 21/m 1'
_symmetry_Int_Tables_number        11
_refine_ls_R_factor_all            .033
loop_
_symmetry_equiv_pos_site_id
_symmetry_equiv_pos_as_xyz
  1	'x, -y+.5, z'
  2	'-x, -y, -z'
  3	'-x, y+.5, -z'
  4	'x, y, z'
loop_
_atom_type_symbol
_atom_type_oxidation_number
Al3+	3
F1-	-1
K1+	1
O2-	-2
P5+	5
loop_
_atom_site_label
_atom_site_type_symbol
_atom_site_symmetry_multiplicity
_atom_site_Wyckoff_symbol
_atom_site_fract_x
_atom_site_fract_y
_atom_site_fract_z
_atom_site_occupancy
_atom_site_attached_hydrogens
K1 K1+ 4 f 0.18928(14) 0.50856(6) 0.79239(14) 1. 0 
K2 K1+ 2 e 0.0828(2) 0.25 0.5427(2) 1. 0 
Al1 Al3+ 4 f 0.32780(15) 0.62254(6) 0.31890(15) 1. 0 
Al2 Al3+ 2 e 0.4835(2) 0.75 -.0383(2) 1. 0 
Al3 Al3+ 2 e -.0260(2) 0.75 -.0511(2) 1. 0 
P1 P5+ 4 f 0.34670(13) 0.39792(5) 0.28523(13) 1. 0 
F1 F1- 4 f 0.1557(3) 0.59180(12) 0.4550(3) 1. 0 
F2 F1- 2 e 0.3235(4) 0.75 0.3907(4) 1. 0 
F3 F1- 4 f 0.0918(3) 0.65659(11) 0.1224(3) 1. 0 
F4 F1- 4 f 0.4727(3) 0.66154(12) 0.1470(3) 1. 0 
F5 F1- 2 e 0.2047(4) 0.75 0.8691(4) 1. 0 
F6 F1- 2 e 0.7654(4) 0.75 0.0645(4) 1. 0 
O1 O2- 4 f 0.1368(3) 0.34587(14) 0.2235(3) 1. 0 
O2 O2- 4 f 0.3159(4) 0.50163(14) 0.2110(3) 1. 0 
O3 O2- 4 f 0.4227(4) 0.39541(14) 0.5030(3) 1. 0 
O4 O2- 4 f 0.5014(3) 0.34930(14) 0.1964(4) 1. 0 

loop_
_atom_site_aniso_label
_atom_site_aniso_type_symbol
_atom_site_aniso_U_11
_atom_site_aniso_U_22
_atom_site_aniso_U_33
_atom_site_aniso_U_12
_atom_site_aniso_U_13
_atom_site_aniso_U_23
K1 K1+ 0.0319(6) 0.0311(5) 0.0216(7) -.0056(4) 0.0043(5) 0.0050(4)
K2 K1+ 0.0367(8) 0.0204(5) 0.0178(8) 0 0.0124(6) 0
Al1 Al3+ 0.0134(6) 0.0061(4) 0.0068(7) -.0002(3) 0.0018(5) 0.0003(4)
Al2 Al3+ 0.0121(8) 0.0069(6) 0.0086(9) 0 0.0027(6) 0
Al3 Al3+ 0.0084(8) 0.0081(6) 0.0077(9) 0 -.0001(9) 0
P1 P5+ 0.0128(5) 0.0065(4) 0.0067(6) -.0006(3) 0.0019(4) -.0011(3)
F1 F1- 0.0196(11) 0.0152(9) 0.0159(13) -.0013(8) 0.0073(9) 0.0017(8)
F2 F1- 0.023(2) 0.0072(11) 0.011(2) 0 0.0039(13) 0
F3 F1- 0.0152(11) 0.0099(8) 0.0141(13) -.0002(7) 0.0006(9) 0.0017(8)
F4 F1- 0.0189(11) 0.0096(9) 0.0123(12) 0.0002(7) 0.0068(9) 0.0024(8)
F5 F1- 0.014(2) 0.0127(12) 0.013(2) 0 0.0053(13) 0
F6 F1- 0.0141(15) 0.0147(12) 0.009(2) 0 0.0029(12) 0
O1 O2- 0.0088(13) 0.0121(10) 0.0135(15) -.0018(8) 0.0005(11) -.0020(9)
O2 O2- 0.022(2) 0.0074(10) 0.011(2) 0.0008(9) 0.0014(12) 0.0016(9)
O3 O2- 0.0152(12) 0.0109(10) 0.0063(14) -.0002(9) 0.0008(10) -.0003(9)
O4 O2- 0.0142(13) 0.012(1) 0.0121(15) 0.0016(9) 0.0050(11) -.0037(9)
#End of data_79700-ICSD


