data_6292-ICSD
#?2014 by Fachinformationszentrum Karlsruhe, and the U.S. Secretary of 
#Commerce on behalf of the United States.  All rights reserved.
_database_code_ICSD                6292
_audit_creation_date               1980/01/01
_audit_update_record               2011/02/01
_chemical_name_systematic
;
Potassium Closo-tetrahydroxohexaoxopentaborate Dihydrate
;
_chemical_formula_structural       'K (B5 O6 (O H)4) (H2 O)2'
_chemical_formula_sum              'H8 B5 K1 O12'
_chemical_name_mineral             Santite
_publ_section_title
;
Hydrogen positions in potassium pentaborate tetrahydrate as 
determined by neutron diffraction
;
loop_
_citation_id
_citation_journal_abbrev
_citation_year
_citation_journal_volume
_citation_page_first
_citation_page_last
_citation_journal_id_ASTM
primary 'Canadian Journal of Physics' 1970 48 1091 1097 CJPHAD
2 'Golden Book of Phase Transitions, Wroclaw' 2002 1 1 123 GBOPT5
_publ_author_name                  'Ashmore, J.P.;Petch, H.E.'
_cell_length_a                     11.062(3)
_cell_length_b                     11.175(3)
_cell_length_c                     9.041(3)
_cell_angle_alpha                  90.
_cell_angle_beta                   90.
_cell_angle_gamma                  90.
_cell_volume                       1117.63
_cell_formula_units_Z              4
_symmetry_space_group_name_H-M     'A b a 2'
_symmetry_Int_Tables_number        41
_refine_ls_R_factor_all            .06
loop_
_symmetry_equiv_pos_site_id
_symmetry_equiv_pos_as_xyz
  1	'x+.5, -y+.5, z'
  2	'-x+.5, y+.5, z'
  3	'-x, -y, z'
  4	'x, y, z'
  5	'x+.5, -y, z+.5'
  6	'-x+.5, y, z+.5'
  7	'-x, -y+.5, z+.5'
  8	'x, y+.5, z+.5'
loop_
_atom_type_symbol
_atom_type_oxidation_number
B3+	3
H1+	1
K1+	1
O2-	-2
loop_
_atom_site_label
_atom_site_type_symbol
_atom_site_symmetry_multiplicity
_atom_site_Wyckoff_symbol
_atom_site_fract_x
_atom_site_fract_y
_atom_site_fract_z
_atom_site_occupancy
_atom_site_attached_hydrogens
_atom_site_B_iso_or_equiv
H1 H1+ 8 b 0.985(1) 0.258(2) 0.771(2) 1. 0 2.9 
H2 H1+ 8 b 0.982(1) 0.150(1) 0.664(3) 1. 0 3. 
H3 H1+ 8 b 0.167(1) 0.188(1) 0.712(4) 1. 0 3.7 
H4 H1+ 8 b 0.243(1) 0.318(1) 0.127(3) 1. 0 2.3 
K1 K1+ 4 a 0 0 0 1. 0 0.5 
B1 B3+ 4 a 0 0 0.397(5) 1. 0 0.7 
B2 B3+ 8 b 0.1878(5) 0.0921(5) 0.297(1) 1. 0 0.73 
B3 B3+ 8 b 0.2031(5) 0.9425(4) 0.478(2) 1. 0 0.39 
O1 O2- 8 b 0.0659(6) 0.0830(5) 0.307(2) 1. 0 1.9 
O2 O2- 8 b 0.0852(5) 0.9294(5) 0.494(1) 1. 0 1.3 
O3 O2- 8 b 0.2546(8) 0.0261(5) 0.399(4) 1. 0 1.6 
O4 O2- 8 b 0.2457(7) 0.1750(5) 0.203(2) 1. 0 1.5 
O5 O2- 8 b 0.2797(6) 0.8800(6) 0.571(2) 1. 0 1.9 
O6 O2- 8 b 0.0165(5) 0.1774(5) 0.751(2) 1. 0 1.1 

#End of data_6292-ICSD


