data_419262-ICSD
#?2014 by Fachinformationszentrum Karlsruhe, and the U.S. Secretary of 
#Commerce on behalf of the United States.  All rights reserved.
_database_code_ICSD                419262
_audit_creation_date               2009/02/01
_chemical_name_systematic
;
Bis(potassium Sulfitobromomercurate(II)) Mercury(II) Dibromide 
Potassium Bromide
;
_chemical_formula_structural       '(K (Hg S O3 Br))2 (Hg Br2) (K Br)'
_chemical_formula_sum              'Br5 Hg3 K3 O6 S2'
_publ_section_title
;
Structural studies of new sulfito mercurates(II) with general formula 
xM [X Hg S O3] * y Hg X2 * z M X * n H2O (M = NH4, K; X = Cl, Br)
;
loop_
_citation_id
_citation_journal_abbrev
_citation_year
_citation_journal_volume
_citation_journal_issue
_citation_page_first
_citation_page_last
_citation_journal_id_ASTM
primary 'Zeitschrift fuer Anorganische und Allgemeine Chemie (1950) (DE)'
 2008 634 10 1742 1748 ZAACAB
_publ_author_name
;
Weil, M.;Baumann, S.;Breitinger, D.K.
;
_cell_length_a                     22.318(5)
_cell_length_b                     6.1537(14)
_cell_length_c                     12.565(3)
_cell_angle_alpha                  90.00
_cell_angle_beta                   90.00
_cell_angle_gamma                  90.00
_cell_volume                       1725.66
_cell_formula_units_Z              4
_symmetry_space_group_name_H-M     'P n m a'
_symmetry_Int_Tables_number        62
_refine_ls_R_factor_all            .0357
loop_
_symmetry_equiv_pos_site_id
_symmetry_equiv_pos_as_xyz
  1	'x+.5, y, -z+.5'
  2	'x, -y+.5, z'
  3	'-x+.5, y+.5, z+.5'
  4	'-x, -y, -z'
  5	'-x+.5, -y, z+.5'
  6	'-x, y+.5, -z'
  7	'x+.5, -y+.5, -z+.5'
  8	'x, y, z'
loop_
_atom_type_symbol
_atom_type_oxidation_number
Br1-	-1
Hg2+	2
K1+	1
O2-	-2
S4+	4
loop_
_atom_site_label
_atom_site_type_symbol
_atom_site_symmetry_multiplicity
_atom_site_Wyckoff_symbol
_atom_site_fract_x
_atom_site_fract_y
_atom_site_fract_z
_atom_site_occupancy
_atom_site_attached_hydrogens
_atom_site_U_iso_or_equiv
Hg1 Hg2+ 4 c 0.31797(2) 0.2500 0.14504(4) 1 0 0.01708(12) 
Hg2 Hg2+ 4 c 0.691084(18) -0.2500 0.37943(4) 1 0 0.01411(11) 
Hg3 Hg2+ 4 c 0.69014(2) 0.2500 0.62062(4) 1 0 0.02210(13) 
K1 K1+ 4 c 0.49628(13) 0.2500 0.3742(2) 1 0 0.0216(6) 
K2 K1+ 4 c 0.49033(11) -0.2500 0.13425(19) 1 0 0.0139(5) 
K3 K1+ 4 c 0.38434(14) -0.2500 -0.1321(2) 1 0 0.0227(6) 
S1 S4+ 4 c 0.58631(12) -0.2500 0.3406(2) 1 0 0.0095(5) 
S2 S4+ 4 c 0.41933(12) 0.2500 0.0797(2) 1 0 0.0098(5) 
Br1 Br1- 4 c 0.80406(5) -0.2500 0.38808(9) 1 0 0.0140(2) 
Br2 Br1- 4 c 0.79996(5) 0.2500 0.62383(9) 1 0 0.0177(2) 
Br3 Br1- 4 c 0.20263(5) 0.2500 0.13517(9) 1 0 0.0133(2) 
Br4 Br1- 4 c 0.58070(5) 0.2500 0.62311(10) 1 0 0.0223(3) 
Br5 Br1- 4 c 0.31305(7) 0.2500 0.37237(9) 1 0 0.0243(3) 
O1 O2- 8 d 0.4270(3) 0.0530(9) 0.0147(4) 1 0 0.0145(12) 
O2 O2- 4 c 0.4614(4) 0.2500 0.1675(6) 1 0 0.0204(19) 
O3 O2- 8 d 0.5730(3) -0.0554(10) 0.2782(5) 1 0 0.0210(13) 
O4 O2- 4 c 0.5541(4) -0.2500 0.4413(8) 1 0 0.042(3) 

loop_
_atom_site_aniso_label
_atom_site_aniso_type_symbol
_atom_site_aniso_U_11
_atom_site_aniso_U_22
_atom_site_aniso_U_33
_atom_site_aniso_U_12
_atom_site_aniso_U_13
_atom_site_aniso_U_23
Hg1 Hg2+ 0.0122(2) 0.0147(2) 0.0243(2) 0.000 0.00732(17) 0.000
Hg2 Hg2+ 0.0078(2) 0.0149(2) 0.0196(2) 0.000 -0.00239(15) 0.000
Hg3 Hg2+ 0.0109(2) 0.0328(3) 0.0226(2) 0.000 0.00024(17) 0.000
K1 K1+ 0.0318(16) 0.0225(14) 0.0105(11) 0.000 0.0063(10) 0.000
K2 K1+ 0.0124(12) 0.0196(13) 0.0098(11) 0.000 -0.0015(8) 0.000
K3 K1+ 0.0379(16) 0.0178(13) 0.0125(13) 0.000 -0.0031(11) 0.000
S1 S4+ 0.0074(12) 0.0195(13) 0.0017(10) 0.000 0.0003(9) 0.000
S2 S4+ 0.0094(12) 0.0146(13) 0.0052(11) 0.000 -0.0009(9) 0.000
Br1 Br1- 0.0084(5) 0.0134(5) 0.0203(6) 0.000 -0.0025(4) 0.000
Br2 Br1- 0.0104(5) 0.0285(6) 0.0143(5) 0.000 -0.0007(4) 0.000
Br3 Br1- 0.0104(5) 0.0121(5) 0.0174(5) 0.000 0.0023(4) 0.000
Br4 Br1- 0.0111(6) 0.0275(6) 0.0283(7) 0.000 0.0022(5) 0.000
Br5 Br1- 0.0449(8) 0.0173(6) 0.0107(5) 0.000 -0.0003(5) 0.000
O1 O2- 0.017(3) 0.015(3) 0.011(3) -0.001(2) -0.001(2) -0.004(2)
O2 O2- 0.022(5) 0.027(5) 0.013(4) 0.000 -0.004(3) 0.000
O3 O2- 0.021(3) 0.014(3) 0.028(3) 0.006(3) -0.007(3) 0.001(3)
O4 O2- 0.014(5) 0.093(10) 0.019(5) 0.000 0.008(4) 0.000
#End of data_419262-ICSD


