data_408826-ICSD
#?2014 by Fachinformationszentrum Karlsruhe, and the U.S. Secretary of 
#Commerce on behalf of the United States.  All rights reserved.
_database_code_ICSD                408826
_audit_creation_date               2000/07/15
_chemical_name_systematic          'Zinc Phyllo-tetraphosphate(V)'
_chemical_formula_structural       'Zn (P4 O11)'
_chemical_formula_sum              'O11 P4 Zn1'
_publ_section_title
;
Crystallization of ultraphosphates via the gas phase. The crystal 
structures of Fe P4 O11, Zn P4 O11 and Cd P4 O11
;
loop_
_citation_id
_citation_journal_abbrev
_citation_year
_citation_journal_volume
_citation_page_first
_citation_page_last
_citation_journal_id_ASTM
primary 'European Journal of Solid State Inorganic Chemistry'
 1998 35 495 508 EJSCE5
_publ_author_name                  'Weil, M.;Glaum, R.'
_cell_length_a                     12.882(3)
_cell_length_b                     13.049(3)
_cell_length_c                     10.609(3)
_cell_angle_alpha                  89.36(2)
_cell_angle_beta                   117.19(2)
_cell_angle_gamma                  90.359(15)
_cell_volume                       1586.18
_cell_formula_units_Z              8
_symmetry_space_group_name_H-M     'C -1'
_symmetry_Int_Tables_number        2
_refine_ls_R_factor_all            .0448
loop_
_symmetry_equiv_pos_site_id
_symmetry_equiv_pos_as_xyz
  1	'-x, -y, -z'
  2	'x, y, z'
  3	'-x+.5, -y+.5, -z'
  4	'x+.5, y+.5, z'
loop_
_atom_type_symbol
_atom_type_oxidation_number
O2-	-2
P5+	5
Zn2+	2
loop_
_atom_site_label
_atom_site_type_symbol
_atom_site_symmetry_multiplicity
_atom_site_Wyckoff_symbol
_atom_site_fract_x
_atom_site_fract_y
_atom_site_fract_z
_atom_site_occupancy
_atom_site_attached_hydrogens
Zn1 Zn2+ 4 i -.00053(3) 0.22821(3) 0.50235(4) 1. 0 
Zn2 Zn2+ 4 i -.76753(3) 0.51358(3) -.02120(4) 1. 0 
P1 P5+ 4 i -.01125(6) 0.59792(6) 0.71383(8) 1. 0 
P2 P5+ 4 i 0.01986(6) 1.07014(6) 0.75377(8) 1. 0 
P3 P5+ 4 i -.15738(6) 0.91876(6) 0.61201(8) 1. 0 
P4 P5+ 4 i -.26539(6) 0.82233(6) 0.77347(8) 1. 0 
P5 P5+ 4 i -.08812(6) 1.18362(6) 0.91036(8) 1. 0 
P6 P5+ 4 i -.09058(6) 0.65799(6) 0.92663(8) 1. 0 
P7 P5+ 4 i -.16131(6) 0.42380(6) 0.55677(8) 1. 0 
P8 P5+ 4 i -.25049(6) 1.34612(6) 0.75866(8) 1. 0 
O1 O2- 4 i -.3743(2) 1.3186(2) 0.6902(2) 1. 0 
O2 O2- 4 i -.6444(2) 0.4555(2) 0.1774(2) 1. 0 
O3 O2- 4 i 0.3860(2) 0.9057(2) 1.1910(2) 1. 0 
O4 O2- 4 i -.2729(2) 1.0872(2) 0.3532(3) 1. 0 
O5 O2- 4 i -.3009(2) 0.6710(2) 0.3245(2) 1. 0 
O6 O2- 4 i -.4600(2) 1.3791(2) 0.3858(2) 1. 0 
O7 O2- 4 i -.2596(2) 0.9999(2) 0.5658(2) 1. 0 
O8 O2- 4 i -.6112(2) 1.2030(2) 0.3126(2) 1. 0 
O9 O2- 4 i 0.2284(2) 1.0892(2) 1.1316(3) 1. 0 
O10 O2- 4 i -.1366(2) 0.3307(2) 0.5017(3) 1. 0 
O11 O2- 4 i -.0561(2) 0.9686(2) 0.7462(2) 1. 0 
O12 O2- 4 i -.0101(2) 1.2602(2) 1.0310(2) 1. 0 
O13 O2- 4 i -.0868(2) 0.6025(2) 0.8007(3) 1. 0 
O14 O2- 4 i -.3314(2) 0.2534(2) 0.2243(2) 1. 0 
O15 O2- 4 i -.8063(2) 0.6032(2) 0.1033(2) 1. 0 
O16 O2- 4 i -.5617(2) 1.1736(2) 0.5978(3) 1. 0 
O17 O2- 4 i -.3551(2) 0.3861(2) 0.0343(3) 1. 0 
O18 O2- 4 i -.4516(2) 1.0152(2) 0.3517(2) 1. 0 
O19 O2- 4 i -.4137(2) 0.9095(2) -.0393(2) 1. 0 
O20 O2- 4 i -.2045(2) 0.7212(2) 0.8633(3) 1. 0 
O21 O2- 4 i 0.0015(2) 1.1351(2) 0.8701(2) 1. 0 
O22 O2- 4 i -.1291(2) 0.8860(2) 0.5007(3) 1. 0 

loop_
_atom_site_aniso_label
_atom_site_aniso_type_symbol
_atom_site_aniso_U_11
_atom_site_aniso_U_22
_atom_site_aniso_U_33
_atom_site_aniso_U_12
_atom_site_aniso_U_13
_atom_site_aniso_U_23
Zn1 Zn2+ 0.0115(2) 0.0094(2) 0.0071(2) -.00347(14) 0.0020(2) -.0010(2)
Zn2 Zn2+ 0.0109(2) 0.0077(2) 0.0066(2) 0.00034(14) 0.00269(15) -.0024(2)
P1 P5+ 0.0093(3) 0.0058(3) 0.0052(4) -.0018(3) 0.0018(3) -.0023(3)
P2 P5+ 0.0076(3) 0.0054(3) 0.0066(4) -.0004(3) 0.0015(3) -.0016(3)
P3 P5+ 0.0082(3) 0.0060(3) 0.0067(4) 0.0000(3) 0.0024(3) -.0003(3)
P4 P5+ 0.0076(3) 0.0055(3) 0.0058(4) -.0007(3) 0.0015(3) -.0021(3)
P5 P5+ 0.0083(3) 0.0050(3) 0.0066(4) -.0013(3) 0.0015(3) -.0028(3)
P6 P5+ 0.0089(3) 0.0050(3) 0.0051(4) -.0006(3) 0.0024(3) -.0016(3)
P7 P5+ 0.0078(3) 0.0051(3) 0.0062(4) 0.0001(3) 0.0012(3) -.0019(3)
P8 P5+ 0.0088(3) 0.0059(3) 0.0050(4) 0.0001(3) 0.0019(3) -.0020(3)
O1 O2- 0.0114(9) 0.0144(11) 0.010(1) -.0015(8) 0.0024(8) -.0022(9)
O2 O2- 0.0099(9) 0.0122(10) 0.0118(11) 0.0001(8) 0.0028(8) -.0021(9)
O3 O2- 0.0122(10) 0.0140(11) 0.0113(11) -.0035(9) -.0017(9) 0.0012(10)
O4 O2- 0.0215(11) 0.0157(11) 0.0183(12) 0.0040(9) 0.0137(10) 0.0069(10)
O5 O2- 0.015(1) 0.0061(9) 0.0111(10) -.0019(8) 0.0076(9) -.0026(9)
O6 O2- 0.0122(10) 0.0134(11) 0.0097(11) -.0030(8) 0.0013(9) 0.0017(9)
O7 O2- 0.0120(9) 0.0125(10) 0.0083(10) 0.0053(8) 0.0021(8) 0.0029(9)
O8 O2- 0.0089(9) 0.0167(11) 0.0093(10) -.0011(8) -.0002(8) -.0027(9)
O9 O2- 0.0176(11) 0.0167(11) 0.0176(12) -.0058(9) 0.0081(9) -.0134(10)
O10 O2- 0.0145(10) 0.0103(10) 0.0152(11) 0.0013(8) 0.0023(9) -.0073(10)
O11 O2- 0.0132(10) 0.0108(10) 0.0095(10) -.0058(8) 0.0005(8) 0.0006(9)
O12 O2- 0.0118(9) 0.0099(10) 0.0081(10) -.0046(8) 0.0015(8) -.0058(9)
O13 O2- 0.0249(12) 0.0183(11) 0.0147(11) -.0119(10) 0.0138(10) -.0134(10)
O14 O2- 0.0156(10) 0.0104(10) 0.0079(11) 0.0048(8) 0.0011(9) -.0020(9)
O15 O2- 0.0133(10) 0.0157(11) 0.0102(11) 0.0032(8) -.0003(8) -.0092(10)
O16 O2- 0.0131(10) 0.0157(11) 0.0135(11) -.0025(9) 0.0029(9) 0.0041(10)
O17 O2- 0.0184(11) 0.0200(12) 0.0188(12) -.0112(10) 0.0048(10) 0.0012(11)
O18 O2- 0.0109(9) 0.0087(10) 0.0142(11) -.0009(8) 0.0012(8) -.0071(9)
O19 O2- 0.018(1) 0.0113(10) 0.0094(11) 0.0009(9) 0.0049(9) 0.0045(9)
O20 O2- 0.0110(9) 0.0153(11) 0.0214(12) 0.0037(9) 0.0053(9) 0.0096(10)
O21 O2- 0.0153(10) 0.0221(13) 0.0126(12) 0.0069(9) 0.0022(9) -.0077(11)
O22 O2- 0.0191(11) 0.0127(11) 0.0143(11) 0.0028(9) 0.0100(9) 0.0008(10)
#End of data_408826-ICSD


