data_201934-ICSD
#?2014 by Fachinformationszentrum Karlsruhe, and the U.S. Secretary of 
#Commerce on behalf of the United States.  All rights reserved.
_database_code_ICSD                201934
_audit_creation_date               1988/12/19
_chemical_name_systematic          'Silver Thallium Dimetavanadate(V)'
_chemical_formula_structural       'Ag Tl (V O3)2'
_chemical_formula_sum              'Ag1 O6 Tl1 V2'
_publ_section_title
;
Crystallographic study of Ag Tl (V O3)2 a metavanadate(V) with 
diopside type structure
;
loop_
_citation_id
_citation_journal_abbrev
_citation_year
_citation_journal_volume
_citation_page_first
_citation_page_last
_citation_journal_id_ASTM
primary 'Materials Research Bulletin' 1986 21 225 229 MRBUAC
_publ_author_name                  'Abriel, W.'
_cell_length_a                     10.736(2)
_cell_length_b                     10.227(2)
_cell_length_c                     5.8299(9)
_cell_angle_alpha                  90.
_cell_angle_beta                   102.32(1)
_cell_angle_gamma                  90.
_cell_volume                       625.37
_cell_formula_units_Z              4
_symmetry_space_group_name_H-M     'C 1 2/c 1'
_symmetry_Int_Tables_number        15
_refine_ls_R_factor_all            .078
loop_
_symmetry_equiv_pos_site_id
_symmetry_equiv_pos_as_xyz
  1	'x, -y, z+.5'
  2	'-x, -y, -z'
  3	'-x, y, -z+.5'
  4	'x, y, z'
  5	'x+.5, -y+.5, z+.5'
  6	'-x+.5, -y+.5, -z'
  7	'-x+.5, y+.5, -z+.5'
  8	'x+.5, y+.5, z'
loop_
_atom_type_symbol
_atom_type_oxidation_number
Ag1+	1
O2-	-2
Tl1+	1
V5+	5
loop_
_atom_site_label
_atom_site_type_symbol
_atom_site_symmetry_multiplicity
_atom_site_Wyckoff_symbol
_atom_site_fract_x
_atom_site_fract_y
_atom_site_fract_z
_atom_site_occupancy
_atom_site_attached_hydrogens
Ag1 Ag1+ 4 e 0 0.1053(1) 0.25 1. 0 
Tl1 Tl1+ 4 e 0 0.7034(1) 0.25 1. 0 
V1 V5+ 8 f 0.7147(2) 0.9172(2) 0.2814(3) 1. 0 
O1 O2- 8 f 0.1264(10) 0.9199(9) 0.1549(17) 1. 0 
O2 O2- 8 f 0.3346(11) 0.7658(9) 0.2667(21) 1. 0 
O3 O2- 8 f 0.6559(11) 0.0114(9) 0.0213(17) 1. 0 

loop_
_atom_site_aniso_label
_atom_site_aniso_type_symbol
_atom_site_aniso_U_11
_atom_site_aniso_U_22
_atom_site_aniso_U_33
_atom_site_aniso_U_12
_atom_site_aniso_U_13
_atom_site_aniso_U_23
Ag1 Ag1+ 0.0343(7) 0.0276(6) 0.0302(7) 0 0.0012(6) 0
Tl1 Tl1+ 0.0459(4) 0.0208(3) 0.0289(4) 0 0.0021(3) 0
V1 V5+ 0.0285(9) 0.0193(8) 0.0126(8) -.0010(8) 0.0051(7) -.0016(7)
O1 O2- 0.0322(46) 0.0341(44) 0.0186(38) -.0019(42) 0.0066(35) 0.0006(38)
O2 O2- 0.0443(57) 0.0228(39) 0.0374(57) 0.0066(45) 0.0078(47) -.0014(41)
O3 O2- 0.0390(49) 0.0275(39) 0.0199(38) -.0026(42) 0.0099(36) 0.0025(37)
#End of data_201934-ICSD


