data_414111-ICSD
#?2014 by Fachinformationszentrum Karlsruhe, and the U.S. Secretary of 
#Commerce on behalf of the United States.  All rights reserved.
_database_code_ICSD                414111
_audit_creation_date               2005/10/01
_chemical_name_systematic
;
Sodium Ammonium Dinickel Diphosphate Dihydrate
;
_chemical_formula_structural       'Na (N H4) (Ni3 (P2 O7)2 (H2 O)2)'
_chemical_formula_sum              'H8 N1 Na1 Ni3 O16 P4'
_publ_section_title
;
A mixed cation nickel diphosphate with a layered intergrowth 
structure: synthesis, structural and magnetic characterization of Na 
(N H4) (Ni2 (P2 O7)2 (H2 O)2)
;
loop_
_citation_id
_citation_journal_abbrev
_citation_year
_citation_journal_volume
_citation_page_first
_citation_page_last
_citation_journal_id_ASTM
primary 'Solid State Sciences' 2004 6 1375 1380 SSSCFJ
_publ_author_name
;
Liu, W.;Yang, X.-X.;Chen, H.-H.;Huang, Y.-X.;Schnelle, W.;Zhao, J.-T.
;
_cell_length_a                     18.989(4)
_cell_length_b                     7.9758(16)
_cell_length_c                     9.1112(18)
_cell_angle_alpha                  90.00
_cell_angle_beta                   108.39(3)
_cell_angle_gamma                  90.00
_cell_volume                       1309.44
_cell_formula_units_Z              4
_symmetry_space_group_name_H-M     'C 1 2/c 1'
_symmetry_Int_Tables_number        15
_refine_ls_R_factor_all            .0305
loop_
_symmetry_equiv_pos_site_id
_symmetry_equiv_pos_as_xyz
  1	'x, -y, z+.5'
  2	'-x, -y, -z'
  3	'-x, y, -z+.5'
  4	'x, y, z'
  5	'x+.5, -y+.5, z+.5'
  6	'-x+.5, -y+.5, -z'
  7	'-x+.5, y+.5, -z+.5'
  8	'x+.5, y+.5, z'
loop_
_atom_type_symbol
_atom_type_oxidation_number
H1+	1
N3-	-3
Na1+	1
Ni2+	2
O2-	-2
P5+	5
loop_
_atom_site_label
_atom_site_type_symbol
_atom_site_symmetry_multiplicity
_atom_site_Wyckoff_symbol
_atom_site_fract_x
_atom_site_fract_y
_atom_site_fract_z
_atom_site_occupancy
_atom_site_attached_hydrogens
_atom_site_U_iso_or_equiv
Ni1 Ni2+ 8 f 0.31507(2) 0.11156(5) 0.56749(4) 1 0 0.00985(12) 
Ni2 Ni2+ 4 c 0.2500 -0.2500 0.5000 1 0 0.00994(15) 
P1 P5+ 8 f 0.10077(5) -0.31524(10) 0.58676(9) 1 0 0.01031(19) 
P2 P5+ 8 f 0.19954(4) -0.04794(10) 0.74221(9) 1 0 0.00890(18) 
O1 O2- 8 f 0.38582(14) 0.2417(3) 0.4825(3) 1 0 0.0171(5) 
O2 O2- 8 f 0.31709(13) -0.3798(2) 0.7032(2) 1 0 0.0118(5) 
O3 O2- 8 f 0.24508(12) -0.0447(3) 0.6321(2) 1 0 0.0104(4) 
O4 O2- 8 f 0.11979(12) -0.1218(2) 0.6392(2) 1 0 0.0111(5) 
O5 O2- 8 f 0.39921(13) 0.0910(3) 0.7693(2) 1 0 0.0140(5) 
O6 O2- 8 f 0.02549(13) -0.3038(3) 0.4682(2) 1 0 0.0157(5) 
O7 O2- 8 f 0.33944(13) -0.1241(2) 0.4793(2) 1 0 0.0124(5) 
O8 O2- 8 f 0.22998(12) 0.1732(3) 0.3719(2) 1 0 0.0106(5) 
Na1 Na1+ 4 e 0.5000 -0.0387(2) 0.7500 1 0 0.0182(4) 
N1 N3- 4 e 0.0000 -0.0279(7) 0.2500 1 0 0.0483(16) 
H1 H1+ 8 f 0.367(3) 0.273(5) 0.390(6) 1 0 0.050 
H2 H1+ 8 f 0.428(3) 0.217(6) 0.489(5) 1 0 0.050 
H3 H1+ 8 f 0.036(3) 0.040(5) 0.275(6) 1 0 0.050 
H4 H1+ 8 f -0.004(3) -0.108(5) 0.163(5) 1 0 0.050 

loop_
_atom_site_aniso_label
_atom_site_aniso_type_symbol
_atom_site_aniso_U_11
_atom_site_aniso_U_22
_atom_site_aniso_U_33
_atom_site_aniso_U_12
_atom_site_aniso_U_13
_atom_site_aniso_U_23
Ni1 Ni2+ 0.0109(2) 0.0093(2) 0.0098(2) 0.00018(16) 0.00397(16) -0.00005(16)
Ni2 Ni2+ 0.0120(3) 0.0085(3) 0.0106(3) -0.0007(2) 0.0053(2) -0.0005(2)
P1 P5+ 0.0095(4) 0.0115(4) 0.0101(4) -0.0014(3) 0.0032(3) -0.0011(3)
P2 P5+ 0.0097(4) 0.0086(4) 0.0087(4) -0.0004(3) 0.0034(3) -0.0002(3)
O1 O2- 0.0139(13) 0.0205(13) 0.0184(13) 0.0019(11) 0.0072(10) 0.0069(10)
O2 O2- 0.0155(13) 0.0084(11) 0.0120(11) -0.0011(9) 0.0049(9) 0.0012(9)
O3 O2- 0.0130(12) 0.0100(10) 0.0102(10) -0.0016(9) 0.0064(9) -0.0009(9)
O4 O2- 0.0108(12) 0.0088(11) 0.0133(11) 0.0008(9) 0.0030(9) -0.0011(9)
O5 O2- 0.0167(13) 0.0147(11) 0.0103(11) 0.0030(9) 0.0041(9) -0.0012(9)
O6 O2- 0.0113(12) 0.0177(12) 0.0150(12) -0.0013(10) -0.0003(9) -0.0015(10)
O7 O2- 0.0146(13) 0.0100(11) 0.0154(12) -0.0017(9) 0.0086(9) -0.0023(9)
O8 O2- 0.0123(12) 0.0094(10) 0.0103(11) 0.0014(9) 0.0037(9) 0.0000(9)
Na1 Na1+ 0.0178(10) 0.0199(10) 0.0183(10) 0.000 0.0078(8) 0.000
N1 N3- 0.050(4) 0.030(3) 0.079(5) 0.000 0.041(4) 0.000
#End of data_414111-ICSD


