data_39561-ICSD
#?2014 by Fachinformationszentrum Karlsruhe, and the U.S. Secretary of 
#Commerce on behalf of the United States.  All rights reserved.
_database_code_ICSD                39561
_audit_creation_date               1992/08/20
_audit_update_record               2003/04/01
_chemical_name_systematic          'Potassium Oxotitanium Phosphate(V)'
_chemical_formula_structural       'K (Ti O) (P O4)'
_chemical_formula_sum              'K1 O5 P1 Ti1'
_publ_section_title
;
Peculiarities of K Ti O P O4 and K Fe F P O4 crystal structures at 
110K
;
loop_
_citation_id
_citation_journal_abbrev
_citation_year
_citation_journal_volume
_citation_page_first
_citation_page_last
_citation_journal_id_ASTM
primary 'Doklady Akademii Nauk SSSR' 1992 322 520 524 DANKAS
2 'Phase Transition' 1992 38 127 220 PHTRDP
_publ_author_name
;
Belokoneva, E.L.;Slovokhotova, O.L.;Antipin, M.Yu.;Tsirel'son, 
V.G.;Struchkov, Yu.T.
;
_cell_length_a                     12.802(3)
_cell_length_b                     6.395(1)
_cell_length_c                     10.589(2)
_cell_angle_alpha                  90.
_cell_angle_beta                   90.
_cell_angle_gamma                  90.
_cell_volume                       866.91
_cell_formula_units_Z              8
_symmetry_space_group_name_H-M     'P n a 21'
_symmetry_Int_Tables_number        33
_refine_ls_R_factor_all            .018
loop_
_symmetry_equiv_pos_site_id
_symmetry_equiv_pos_as_xyz
  1	'x+.5, -y+.5, z'
  2	'-x+.5, y+.5, z+.5'
  3	'-x, -y, z+.5'
  4	'x, y, z'
loop_
_atom_type_symbol
_atom_type_oxidation_number
K1+	1
O2-	-2
P5+	5
Ti4+	4
loop_
_atom_site_label
_atom_site_type_symbol
_atom_site_symmetry_multiplicity
_atom_site_Wyckoff_symbol
_atom_site_fract_x
_atom_site_fract_y
_atom_site_fract_z
_atom_site_occupancy
_atom_site_attached_hydrogens
Ti1 Ti4+ 4 a 0.37318(3) 0.49978(8) 0 1. 0 
Ti2 Ti4+ 4 a 0.24642(4) 0.26939(7) 0.74871(9) 1. 0 
P1 P5+ 4 a 0.49788(6) 0.33655(11) 0.73881(10) 1. 0 
P2 P5+ 4 a 0.18104(5) 0.50190(12) 0.48619(9) 1. 0 
K1 K1+ 4 a 0.37691(5) 0.78005(10) 0.69016(9) 1. 0 
K2 K1+ 4 a 0.10548(4) 0.69960(11) 0.93550(9) 1. 0 
O1 O2- 4 a 0.4858(2) 0.4875(4) 0.8488(2) 1. 0 
O2 O2- 4 a 0.5090(2) 0.4648(4) 0.6150(2) 1. 0 
O3 O2- 4 a 0.3998(2) 0.1982(4) 0.7191(3) 1. 0 
O4 O2- 4 a 0.5938(2) 0.1933(4) 0.7574(3) 1. 0 
O5 O2- 4 a 0.1122(2) 0.3106(4) 0.4578(3) 1. 0 
O6 O2- 4 a 0.1112(2) 0.6922(4) 0.5111(3) 1. 0 
O7 O2- 4 a 0.2533(2) 0.5379(4) 0.3703(2) 1. 0 
O8 O2- 4 a 0.2533(2) 0.4609(4) 0.599 1. 0 
O9 O2- 4 a 0.2239(2) 0.0415(4) 0.6087(2) 1. 0 
O10 O2- 4 a 0.2248(2) 0.9671(4) 0.3552(3) 1. 0 

loop_
_atom_site_aniso_label
_atom_site_aniso_type_symbol
_atom_site_aniso_B_11
_atom_site_aniso_B_22
_atom_site_aniso_B_33
_atom_site_aniso_B_12
_atom_site_aniso_B_13
_atom_site_aniso_B_23
Ti1 Ti4+ 0.40(1) 0.35(2) 0.17(2) -.01(1) 0.02(1) -.02(1)
Ti2 Ti4+ 0.36(1) 0.39(2) 0.17(2) 0.00(1) 0.00(1) 0.03(2)
P1 P5+ 0.34(2) 0.39(2) 0.18(2) 0.02(2) 0.04(1) -.01(2)
P2 P5+ 0.43(2) 0.36(2) 0.18(2) 0.02(2) -.05(2) 0.05(2)
K1 K1+ 0.89(2) 0.57(2) 0.65(2) 0.12(1) -.15(2) -.04(2)
K2 K1+ 0.61(2) 0.85(2) 0.79(3) 0.13(1) 0.01(2) 0.04(2)
O1 O2- 0.57(6) 0.61(7) 0.28(7) 0.01(5) 0.11(6) -.18(6)
O2 O2- 0.52(6) 0.45(7) 0.32(7) 0.03(5) 0.09(5) 0.26(6)
O3 O2- 0.43(5) 0.42(7) 0.35(7) -.01(5) -.02(5) 0.12(6)
O4 O2- 0.28(5) 0.59(7) 0.49(7) 0.04(5) 0.05(5) 0.18(7)
O5 O2- 0.54(5) 0.47(7) 0.29(8) -.09(5) -.04(5) -.03(6)
O6 O2- 0.59(5) 0.43(7) 0.51(8) 0.10(5) 0.05(6) 0.01(6)
O7 O2- 0.54(6) 0.68(7) 0.15(7) -.06(5) 0.20(5) 0.13(6)
O8 O2- 0.63(6) 0.49(7) 0.20(5) -.16(6) -.12(5) 0.03(6)
O9 O2- 0.60(6) 0.41(7) 0.39(7) 0.10(6) -.08(6) 0.06(6)
O10 O2- 0.50(6) 0.60(7) 0.35(7) 0.00(6) 0.10(5) 0.00(6)
#End of data_39561-ICSD


