data_174515-ICSD
#?2014 by Fachinformationszentrum Karlsruhe, and the U.S. Secretary of 
#Commerce on behalf of the United States.  All rights reserved.
_database_code_ICSD                174515
_audit_creation_date               2011/02/01
_chemical_name_systematic
;
Dipotassium Tetraaqua Dodecafluoro-closo-dodecaborate
;
_chemical_formula_structural       'K2 (H2 O)4 B12 F12'
_chemical_formula_sum              'H8 B12 F12 K2 O4'
_publ_section_title
;
Latent porosity in potassium dodecafluoro-closo-dodecaborate(2-). 
Structures and rapid room temperature interconversions of crystalline 
K2 B12 F12, K2 (H2 O)2 B12 F12, and K2 (H2 O)4 B12 F12 in the 
presence of water vapor
;
loop_
_citation_id
_citation_journal_abbrev
_citation_year
_citation_journal_volume
_citation_journal_issue
_citation_page_first
_citation_page_last
_citation_journal_id_ASTM
primary 'Journal of the American Chemical Society' 2010 132 39 13902 13913 JACSAT
_publ_author_name
;
Peryshkov, D.V.;Popov, A.A.;Strauss, S.H.
;
_cell_length_a                     8.3988(3)
_cell_length_b                     8.5982(4)
_cell_length_c                     12.7454(5)
_cell_angle_alpha                  98.830(2)
_cell_angle_beta                   102.056(2)
_cell_angle_gamma                  104.958(2)
_cell_volume                       848.39
_cell_formula_units_Z              2
_symmetry_space_group_name_H-M     'P -1'
_symmetry_Int_Tables_number        2
_refine_ls_R_factor_all            .0204
loop_
_symmetry_equiv_pos_site_id
_symmetry_equiv_pos_as_xyz
  1	'-x, -y, -z'
  2	'x, y, z'
loop_
_atom_type_symbol
_atom_type_oxidation_number
B.8333+	.8333
F1-	-1
H1+	1
K1+	1
O2-	-2
loop_
_atom_site_label
_atom_site_type_symbol
_atom_site_symmetry_multiplicity
_atom_site_Wyckoff_symbol
_atom_site_fract_x
_atom_site_fract_y
_atom_site_fract_z
_atom_site_occupancy
_atom_site_attached_hydrogens
_atom_site_U_iso_or_equiv
F1 F1- 2 i 0.68247(7) 0.70972(7) 0.36076(5) 1 0 0.01541(11) 
F2 F1- 2 i 0.31555(7) 0.45657(7) 0.25588(4) 1 0 0.01434(11) 
F3 F1- 2 i 0.65351(7) 0.32760(7) 0.33293(4) 1 0 0.01390(11) 
F4 F1- 2 i 0.89248(7) 0.58360(7) 0.55146(5) 1 0 0.01620(11) 
F5 F1- 2 i 0.70795(7) 0.86368(6) 0.61310(5) 1 0 0.01481(11) 
F6 F1- 2 i 0.34927(7) 0.77188(7) 0.43084(5) 1 0 0.01418(11) 
B1 B.8333+ 2 i 0.60015(12) 0.61681(12) 0.42436(8) 1 0 0.01068(17) 
B2 B.8333+ 2 i 0.39519(12) 0.46756(12) 0.36432(8) 1 0 0.01072(17) 
B3 B.8333+ 2 i 0.58132(12) 0.40160(12) 0.40624(8) 1 0 0.01051(17) 
B4 B.8333+ 2 i 0.71697(12) 0.54629(12) 0.53071(8) 1 0 0.01099(17) 
B5 B.8333+ 2 i 0.61604(12) 0.70063(11) 0.56582(8) 1 0 0.01056(17) 
B6 B.8333+ 2 i 0.41718(12) 0.65011(12) 0.46319(8) 1 0 0.01041(17) 
F7 F1- 2 i 0.36395(7) 0.16486(7) 0.15252(4) 1 0 0.01472(11) 
F8 F1- 2 i 0.12350(7) 0.38114(6) 0.03712(5) 1 0 0.01611(11) 
F9 F1- 2 i 0.01324(7) 0.19435(7) 0.22859(4) 1 0 0.01538(11) 
F10 F1- 2 i 0.10792(8) -0.15692(7) 0.19455(5) 1 0 0.01731(12) 
F11 F1- 2 i 0.26895(7) -0.18071(7) -0.01096(5) 1 0 0.01853(12) 
F12 F1- 2 i 0.28097(7) 0.14631(7) -0.11004(5) 1 0 0.01890(12) 
B7 B.8333+ 2 i 0.19968(12) 0.09567(12) 0.08543(8) 1 0 0.01100(17) 
B8 B.8333+ 2 i 0.07147(12) 0.21103(12) 0.02272(8) 1 0 0.01137(17) 
B9 B.8333+ 2 i 0.01139(13) 0.10827(12) 0.12723(8) 1 0 0.01151(17) 
B10 B.8333+ 2 i 0.05890(13) -0.08429(12) 0.10842(8) 1 0 0.01176(17) 
B11 B.8333+ 2 i 0.14760(13) -0.09992(12) -0.00706(8) 1 0 0.01196(17) 
B12 B.8333+ 2 i 0.15574(12) 0.08190(12) -0.06028(8) 1 0 0.01187(17) 
O1 O2- 2 i 0.51095(9) 0.94784(9) 0.27858(6) 1 0 0.01745(14) 
H1 H1+ 2 i 0.5015(19) 1.0261(17) 0.2558(12) 1 0 0.026 
H2 H1+ 2 i 0.4578(19) 0.9358(18) 0.3206(12) 1 0 0.026 
O2 O2- 2 i 0.60443(10) 0.44225(9) 0.10992(6) 1 0 0.01822(14) 
O3 O2- 2 i -0.13041(10) 1.05556(10) 0.39170(6) 1 0 0.02075(15) 
H3 H1+ 2 i -0.2293(18) 1.0189(19) 0.3608(13) 1 0 0.031 
H4 H1+ 2 i -0.094(2) 1.1226(18) 0.3596(13) 1 0 0.031 
O4 O2- 2 i -0.04981(11) 0.51984(10) 0.23922(8) 1 0 0.02904(19) 
H5 H1+ 2 i 0.008(2) 0.524(2) 0.2013(14) 1 0 0.044 
H6 H1+ 2 i -0.049(2) 0.449(2) 0.2652(14) 1 0 0.044 
K1 K1+ 2 i 0.42375(3) 0.65562(2) 0.117279(16) 1 0 0.01455(5) 
K2 K1+ 2 i 0.03255(3) 0.81659(3) 0.388985(18) 1 0 0.02432(6) 
H7 H1+ 2 i 0.7042(18) 0.468(2) 0.1425(13) 1 0 0.037(4) 
H8 H1+ 2 i 0.562(2) 0.3613(19) 0.1320(14) 1 0 0.042(5) 

loop_
_atom_site_aniso_label
_atom_site_aniso_type_symbol
_atom_site_aniso_U_11
_atom_site_aniso_U_22
_atom_site_aniso_U_33
_atom_site_aniso_U_12
_atom_site_aniso_U_13
_atom_site_aniso_U_23
F1 F1- 0.0175(3) 0.0144(2) 0.0183(3) 0.0049(2) 0.0097(2) 0.0084(2)
F2 F1- 0.0161(3) 0.0162(3) 0.0093(2) 0.0050(2) 0.00015(19) 0.00270(19)
F3 F1- 0.0154(3) 0.0148(2) 0.0138(2) 0.0071(2) 0.0065(2) 0.00169(19)
F4 F1- 0.0081(2) 0.0183(3) 0.0207(3) 0.0038(2) 0.0028(2) 0.0011(2)
F5 F1- 0.0145(3) 0.0090(2) 0.0171(3) 0.00071(19) 0.0020(2) -0.00015(19)
F6 F1- 0.0151(3) 0.0131(2) 0.0178(3) 0.0081(2) 0.0046(2) 0.0068(2)
B1 B.8333+ 0.0113(4) 0.0095(4) 0.0120(4) 0.0032(3) 0.0039(3) 0.0035(3)
B2 B.8333+ 0.0107(4) 0.0110(4) 0.0099(4) 0.0033(3) 0.0016(3) 0.0022(3)
B3 B.8333+ 0.0107(4) 0.0106(4) 0.0105(4) 0.0037(3) 0.0031(3) 0.0018(3)
B4 B.8333+ 0.0096(4) 0.0109(4) 0.0124(4) 0.0033(3) 0.0024(3) 0.0025(3)
B5 B.8333+ 0.0102(4) 0.0092(4) 0.0118(4) 0.0025(3) 0.0025(3) 0.0020(3)
B6 B.8333+ 0.0104(4) 0.0102(4) 0.0113(4) 0.0038(3) 0.0027(3) 0.0032(3)
F7 F1- 0.0107(2) 0.0143(2) 0.0151(3) 0.00184(19) -0.00178(19) 0.0016(2)
F8 F1- 0.0192(3) 0.0080(2) 0.0175(3) 0.0018(2) -0.0001(2) 0.00246(19)
F9 F1- 0.0180(3) 0.0149(3) 0.0113(2) 0.0034(2) 0.0042(2) -0.00053(19)
F10 F1- 0.0211(3) 0.0147(3) 0.0138(3) 0.0039(2) -0.0014(2) 0.0068(2)
F11 F1- 0.0163(3) 0.0186(3) 0.0222(3) 0.0113(2) 0.0028(2) 0.0017(2)
F12 F1- 0.0165(3) 0.0205(3) 0.0180(3) -0.0004(2) 0.0085(2) 0.0039(2)
B7 B.8333+ 0.0101(4) 0.0100(4) 0.0113(4) 0.0024(3) 0.0005(3) 0.0020(3)
B8 B.8333+ 0.0120(4) 0.0089(4) 0.0118(4) 0.0024(3) 0.0009(3) 0.0024(3)
B9 B.8333+ 0.0118(4) 0.0111(4) 0.0106(4) 0.0030(3) 0.0018(3) 0.0016(3)
B10 B.8333+ 0.0129(4) 0.0100(4) 0.0109(4) 0.0024(3) 0.0008(3) 0.0029(3)
B11 B.8333+ 0.0114(4) 0.0113(4) 0.0127(4) 0.0045(3) 0.0014(3) 0.0017(3)
B12 B.8333+ 0.0110(4) 0.0120(4) 0.0116(4) 0.0018(3) 0.0027(3) 0.0027(3)
O1 O2- 0.0189(3) 0.0167(3) 0.0197(3) 0.0078(3) 0.0066(3) 0.0063(3)
O2 O2- 0.0197(4) 0.0175(3) 0.0189(3) 0.0072(3) 0.0048(3) 0.0057(3)
O3 O2- 0.0166(3) 0.0225(4) 0.0195(3) -0.0008(3) 0.0024(3) 0.0087(3)
O4 O2- 0.0221(4) 0.0174(4) 0.0467(5) 0.0060(3) 0.0052(4) 0.0098(3)
K1 K1+ 0.01529(9) 0.01261(9) 0.01577(9) 0.00364(7) 0.00415(7) 0.00396(7)
K2 K1+ 0.01429(10) 0.03742(13) 0.01855(10) 0.01008(9) 0.00251(8) 
-0.00333(9)
#End of data_174515-ICSD


