data_100680-ICSD
#?2014 by Fachinformationszentrum Karlsruhe, and the U.S. Secretary of 
#Commerce on behalf of the United States.  All rights reserved.
_database_code_ICSD                100680
_audit_creation_date               1981/12/31
_audit_update_record               1998/06/26
_chemical_name_systematic          'Magnesium Calcium Bis(carbonate)'
_chemical_formula_structural       'Mg Ca (C O3)2'
_chemical_formula_sum              'C2 Ca1 Mg1 O6'
_chemical_name_mineral             Dolomite
_publ_section_title
;
Crystal structure refinements of Magnesite, Calcite, Rhodochrosite, 
Siderite, Smithonite, and Dolomite, with the discussion of some 
aspects of the stereochemistry of Calcite type carbonates
;
loop_
_citation_id
_citation_journal_abbrev
_citation_year
_citation_journal_volume
_citation_page_first
_citation_page_last
_citation_journal_id_ASTM
primary 'Zeitschrift fuer Kristallographie (1979-2010)' 1981 156 233 243 ZEKRDZ
_publ_author_name
;
Effenberger, H.;Mereiter, K.;Zemann, J.
;
_cell_length_a                     4.812(1)
_cell_length_b                     4.812(1)
_cell_length_c                     16.0200(30)
_cell_angle_alpha                  90.
_cell_angle_beta                   90.
_cell_angle_gamma                  120.
_cell_volume                       321.25
_cell_formula_units_Z              3
_symmetry_space_group_name_H-M     'R -3 H'
_symmetry_Int_Tables_number        148
_refine_ls_R_factor_all            .021
loop_
_symmetry_equiv_pos_site_id
_symmetry_equiv_pos_as_xyz
  1	'x-y, x, -z'
  2	'y, -x+y, -z'
  3	'-x, -y, -z'
  4	'-x+y, -x, z'
  5	'-y, x-y, z'
  6	'x, y, z'
  7	'x-y+.6666, x+.3333, -z+.3333'
  8	'x-y+.3333, x+.6666, -z+.6666'
  9	'y+.6666, -x+y+.3333, -z+.3333'
 10	'y+.3333, -x+y+.6666, -z+.6666'
 11	'-x+.6666, -y+.3333, -z+.3333'
 12	'-x+.3333, -y+.6666, -z+.6666'
 13	'-x+y+.6666, -x+.3333, z+.3333'
 14	'-x+y+.3333, -x+.6666, z+.6666'
 15	'-y+.6666, x-y+.3333, z+.3333'
 16	'-y+.3333, x-y+.6666, z+.6666'
 17	'x+.6666, y+.3333, z+.3333'
 18	'x+.3333, y+.6666, z+.6666'
loop_
_atom_type_symbol
_atom_type_oxidation_number
C4+	4
Ca2+	2
Mg2+	2
O2-	-2
loop_
_atom_site_label
_atom_site_type_symbol
_atom_site_symmetry_multiplicity
_atom_site_Wyckoff_symbol
_atom_site_fract_x
_atom_site_fract_y
_atom_site_fract_z
_atom_site_occupancy
_atom_site_attached_hydrogens
Ca1 Ca2+ 3 a 0 0 0 1. 0 
Mg1 Mg2+ 3 b 0 0 0.5 1. 0 
C1 C4+ 6 c 0 0 0.24287(4) 1. 0 
O1 O2- 18 f 0.24802(7) -.03471(7) 0.24401(2) 1. 0 

loop_
_atom_site_aniso_label
_atom_site_aniso_type_symbol
_atom_site_aniso_U_11
_atom_site_aniso_U_22
_atom_site_aniso_U_33
_atom_site_aniso_U_12
_atom_site_aniso_U_13
_atom_site_aniso_U_23
Ca1 Ca2+ 0.00846(6) 0.00846(6) 0.00804(8) 0.00423(3) 0 0
Mg1 Mg2+ 0.00414(8) 0.00414(8) 0.00582(11) 0.00207(4) 0 0
C1 C4+ 0.00655(11) 0.00655(11) 0.00763(16) 0.003275(55) 0 0
O1 O2- 0.00782(9) 0.0113(1) 0.01359(11) 0.00634(7) -.00208(7) -.00324(7)
#End of data_100680-ICSD


