data_417474-ICSD
#?2014 by Fachinformationszentrum Karlsruhe, and the U.S. Secretary of 
#Commerce on behalf of the United States.  All rights reserved.
_database_code_ICSD                417474
_audit_creation_date               2009/08/01
_chemical_name_systematic          'Aluminium Phosphate(V) - Ht'
_chemical_formula_structural       'Al (P O4)'
_chemical_formula_sum              'Al1 O4 P1'
_publ_section_title
;
High-temperature phase transitions and intermediate modulation of the 
tridymite form of Al P O4
;
loop_
_citation_id
_citation_journal_abbrev
_citation_year
_citation_journal_volume
_citation_page_first
_citation_page_last
_citation_journal_id_ASTM
primary 'Zeitschrift fuer Kristallographie (1979-2010)' 2007 222 226 233 ZEKRDZ
_publ_author_name                  'Graetsch, H.A.'
_cell_length_a                     5.07250(16)
_cell_length_b                     5.05731(17)
_cell_length_c                     8.2877(3)
_cell_angle_alpha                  90
_cell_angle_beta                   90
_cell_angle_gamma                  119.5407(16)
_cell_volume                       184.97
_cell_formula_units_Z              2
_symmetry_space_group_name_H-M     'P 1 1 21'
_symmetry_Int_Tables_number        4
_refine_ls_R_factor_all            .048
loop_
_symmetry_equiv_pos_site_id
_symmetry_equiv_pos_as_xyz
  1	'-x, -y, z+.5'
  2	'x, y, z'
loop_
_atom_type_symbol
_atom_type_oxidation_number
Al3+	3
O2-	-2
P5+	5
loop_
_atom_site_label
_atom_site_type_symbol
_atom_site_symmetry_multiplicity
_atom_site_Wyckoff_symbol
_atom_site_fract_x
_atom_site_fract_y
_atom_site_fract_z
_atom_site_occupancy
_atom_site_attached_hydrogens
_atom_site_U_iso_or_equiv
Al1 Al3+ 2 a 0.3515(19) 0.6231(19) 0.0625 1 0 0.029(2) 
P1 P5+ 2 a 0.3121(16) 0.7057(17) 0.4384(6) 1 0 0.025(2) 
O1 O2- 2 a 0.337(3) 0.668(4) 0.260(3) 1 0 0.050(5) 
O2 O2- 2 a 0.535(4) 0.964(3) -0.022(3) 1 0 0.031(6) 
O3 O2- 2 a 0.003(4) 0.435(3) -0.012(3) 1 0 0.041(6) 
O4 O2- 2 a 0.533(4) 0.416(4) 0.029(2) 1 0 0.059(6) 

#End of data_417474-ICSD


