data_81304-ICSD
#?2014 by Fachinformationszentrum Karlsruhe, and the U.S. Secretary of 
#Commerce on behalf of the United States.  All rights reserved.
_database_code_ICSD                81304
_audit_creation_date               1997/11/05
_chemical_name_systematic          'Disodium Hydrogenphosphate(V)'
_chemical_formula_structural       'Na2 (H P O4)'
_chemical_formula_sum              'H1 Na2 O4 P1'
_publ_section_title
;
Structure investigation on anhydrous disodium hydrogen phosphate 
using solid-state NMR and X-ray techniques
;
loop_
_citation_id
_citation_journal_abbrev
_citation_year
_citation_journal_volume
_citation_page_first
_citation_page_last
_citation_journal_id_ASTM
primary 'Journal of the American Chemical Society' 1995 117 5141 5147 JACSAT
_publ_author_name
;
Baldus, M.;Meier, B.H.;Ernst, R.R.;Kentgens, A.P.M.;Meyer zu 
Altenschildesche, H.;Nesper, R.
;
_cell_length_a                     5.450(2)
_cell_length_b                     6.845(1)
_cell_length_c                     10.944(3)
_cell_angle_alpha                  90.
_cell_angle_beta                   116.35(9)
_cell_angle_gamma                  90.
_cell_volume                       365.85
_cell_formula_units_Z              4
_symmetry_space_group_name_H-M     'P 1 21/c 1'
_symmetry_Int_Tables_number        14
_refine_ls_R_factor_all            .066
loop_
_symmetry_equiv_pos_site_id
_symmetry_equiv_pos_as_xyz
  1	'x, -y+.5, z+.5'
  2	'-x, -y, -z'
  3	'-x, y+.5, -z+.5'
  4	'x, y, z'
loop_
_atom_type_symbol
_atom_type_oxidation_number
H1+	1
Na1+	1
O2-	-2
P5+	5
loop_
_atom_site_label
_atom_site_type_symbol
_atom_site_symmetry_multiplicity
_atom_site_Wyckoff_symbol
_atom_site_fract_x
_atom_site_fract_y
_atom_site_fract_z
_atom_site_occupancy
_atom_site_attached_hydrogens
_atom_site_U_iso_or_equiv
Na1 Na1+ 2 a 0 0 0 1. 0 0.0163(6) 
Na2 Na1+ 2 c 0 0.5 0 1. 0 0.0163(6) 
Na3 Na1+ 4 e 0.3921(3) 0.2355(9) 0.3883(2) 1. 0 0.0249(7) 
P1 P5+ 4 e 0.6658(3) 0.2513(9) 0.1909(2) 1. 0 0.0125(4) 
O1 O2- 4 e 0.3574(5) 0.2465(16) 0.1060(2) 1. 0 0.0092(10) 
O2 O2- 4 e 0.7643(5) 0.2521(14) 0.3436(3) 1. 0 0.0066(10) 
O3 O2- 4 e 0.7968(17) 0.4229(9) 0.1465(7) 1. 0 0.0065(9) 
O4 O2- 4 e 0.7858(17) 0.4464(10) 0.6567(8) 1. 0 0.0065(9) 
H1 H1+ 4 e 0.0322 0.5199 0.2529 1. 0 0.0482(9) 

#End of data_81304-ICSD


