data_62499-ICSD
#?2014 by Fachinformationszentrum Karlsruhe, and the U.S. Secretary of 
#Commerce on behalf of the United States.  All rights reserved.
_database_code_ICSD                62499
_audit_creation_date               1988/12/19
_audit_update_record               2012/02/01
_chemical_name_systematic          'Potassium Hydrogen Iodate - Beta'
_chemical_formula_structural       'K I O3 H I O3'
_chemical_formula_sum              'H1 I2 K1 O6'
_publ_section_title
;
Neutron-diffraction investigation of the crystal structure of the 
beta modification of acid potassium iodate
;
loop_
_citation_id
_citation_journal_abbrev
_citation_year
_citation_journal_volume
_citation_page_first
_citation_page_last
_citation_journal_id_ASTM
primary Kristallografiya 1985 30 895 898 KRISAJ
2 'Soviet Physics, Crystallography (= Kristallografiya)'
 1985 30 519 521 SPHCA6
_publ_author_name
;
Sorokina, N.I.;Loshmanov, A.A.;Fykin, L.E.;Rider, E.E.
;
_cell_length_a                     8.611(3)
_cell_length_b                     7.506(3)
_cell_length_c                     19.562(3)
_cell_angle_alpha                  90.
_cell_angle_beta                   90.
_cell_angle_gamma                  90.
_cell_volume                       1264.37
_cell_formula_units_Z              8
_symmetry_space_group_name_H-M     'P c a 21'
_symmetry_Int_Tables_number        29
_refine_ls_R_factor_all            .0319
loop_
_symmetry_equiv_pos_site_id
_symmetry_equiv_pos_as_xyz
  1	'x+.5, -y, z'
  2	'-x+.5, y, z+.5'
  3	'-x, -y, z+.5'
  4	'x, y, z'
loop_
_atom_type_symbol
_atom_type_oxidation_number
H1+	1
I5+	5
K1+	1
O2-	-2
loop_
_atom_site_label
_atom_site_type_symbol
_atom_site_symmetry_multiplicity
_atom_site_Wyckoff_symbol
_atom_site_fract_x
_atom_site_fract_y
_atom_site_fract_z
_atom_site_occupancy
_atom_site_attached_hydrogens
_atom_site_B_iso_or_equiv
I1 I5+ 4 a 0.3276(2) 0.1921(3) 0.0008(1) 1. 0 0.42 
I2 I5+ 4 a 0.2271(3) 0.6916(3) 0.0046(1) 1. 0 0.59 
I3 I5+ 4 a 0.3161(3) 0.0528 0.3308(2) 1. 0 0.85 
I4 I5+ 4 a 0.2533(3) 0.4644(4) 0.1893(1) 1. 0 0.9 
K1 K1+ 4 a 0.0154(6) 0.4797(7) 0.3530(2) 1. 0 1.6 
K2 K1+ 4 a 0.0348(6) 0.0055(7) 0.1570(2) 1. 0 1.78 
O1 O2- 4 a 0.1498(3) 0.2764(4) 0.9610(2) 1. 0 1.18 
O2 O2- 4 a 0.4407(3) 0.3935(3) 0.9866(1) 1. 0 0.94 
O3 O2- 4 a 0.2871(3) 0.2185(4) 0.0900(1) 1. 0 1.33 
O4 O2- 4 a 0.1252(3) 0.8957(3) 0.0246(1) 1. 0 1.04 
O5 O2- 4 a 0.4160(3) 0.7886(4) 0.0352(2) 1. 0 1.16 
O6 O2- 4 a 0.2540(4) 0.7203(4) 0.9144(1) 1. 0 1.46 
O7 O2- 4 a 0.2723(4) 0.9197(4) 0.2554(1) 1. 0 1.68 
O8 O2- 4 a 0.1252(3) 0.1243(4) 0.3556(1) 1. 0 1.48 
O9 O2- 4 a 0.3909(3) 0.2410(3) 0.2858(2) 1. 0 1.54 
O10 O2- 4 a 0.1909(4) 0.6455(4) 0.1361(1) 1. 0 1.85 
O11 O2- 4 a 0.2555(3) 0.5916(3) 0.2715(1) 1. 0 1.31 
O12 O2- 4 a 0.0738(3) 0.3524(4) 0.2045(1) 1. 0 1.64 
H1 H1+ 4 a 0.0086(5) 0.2442(6) 0.0037(3) 1. 0 2.32 
H2 H1+ 4 a 0.7595(6) 0.2682(6) 0.2628(3) 1. 0 2.45 

#End of data_62499-ICSD


