data_73000-ICSD
#?2014 by Fachinformationszentrum Karlsruhe, and the U.S. Secretary of 
#Commerce on behalf of the United States.  All rights reserved.
_database_code_ICSD                73000
_audit_creation_date               1994/06/30
_audit_update_record               2012/08/01
_chemical_name_systematic
;
Octalithium Dibismuth(V) Palladium Oxide
;
_chemical_formula_structural       'Li8 Bi2 Pd O10'
_chemical_formula_sum              'Bi2 Li8 O10 Pd1'
_publ_section_title
;
Synthesis and crystal structure of Li8Bi2PdO10 from X-ray powder 
diffraction data
;
loop_
_citation_id
_citation_journal_abbrev
_citation_year
_citation_journal_volume
_citation_page_first
_citation_page_last
_citation_journal_id_ASTM
primary 'European Journal of Solid State Inorganic Chemistry'
 1993 30 689 698 EJSCE5
_publ_author_name                  'Laligant, Y.;Le Bail, A.'
_cell_length_a                     9.7308(2)
_cell_length_b                     4.2042(1)
_cell_length_c                     11.0656(2)
_cell_angle_alpha                  90.
_cell_angle_beta                   105.781(1)
_cell_angle_gamma                  90.
_cell_volume                       435.63
_cell_formula_units_Z              2
_symmetry_space_group_name_H-M     'C 1 2/m 1'
_symmetry_Int_Tables_number        12
_refine_ls_R_factor_all            .032
loop_
_symmetry_equiv_pos_site_id
_symmetry_equiv_pos_as_xyz
  1	'-x, y, -z'
  2	'-x, -y, -z'
  3	'x, -y, z'
  4	'x, y, z'
  5	'-x+.5, y+.5, -z'
  6	'-x+.5, -y+.5, -z'
  7	'x+.5, -y+.5, z'
  8	'x+.5, y+.5, z'
loop_
_atom_type_symbol
_atom_type_oxidation_number
Bi5+	5
Li1+	1
O2-	-2
Pd2+	2
loop_
_atom_site_label
_atom_site_type_symbol
_atom_site_symmetry_multiplicity
_atom_site_Wyckoff_symbol
_atom_site_fract_x
_atom_site_fract_y
_atom_site_fract_z
_atom_site_occupancy
_atom_site_attached_hydrogens
_atom_site_B_iso_or_equiv
Bi1 Bi5+ 4 i 0.1819(2) 0 0.2787(1) 1. 0 0.10(3) 
Pd1 Pd2+ 2 a 0 0 0 1. 0 0.23(7) 
O1 O2- 4 i 0.1259(1) 0 0.4491(17) 1. 0 1.2(1) 
O2 O2- 4 i 0.3179(26) 0 0.7372(21) 1. 0 1.2(1) 
O3 O2- 4 i 0.2237(20) 0 0.0896(17) 1. 0 1.2(1) 
O4 O2- 4 i 0.0392(23) 0 0.8371(18) 1. 0 1.2(1) 
O5 O2- 4 i 0.4040(24) 0 0.3658(18) 1. 0 1.2(1) 
Li1 Li1+ 4 i 0.2349(52) 0.5 0.0832(44) 1. 0 0.5(1) 
Li2 Li1+ 4 i 0.0702(62) 0.5 0.8118(51) 1. 0 0.5(1) 
Li3 Li1+ 4 i 0.4195(61) 0.5 0.3870(45) 1. 0 0.5(1) 
Li4 Li1+ 4 i 0.1082(54) 0.5 0.4754(48) 1. 0 0.5(1) 

#End of data_73000-ICSD


