data_62046-ICSD
#?2014 by Fachinformationszentrum Karlsruhe, and the U.S. Secretary of 
#Commerce on behalf of the United States.  All rights reserved.
_database_code_ICSD                62046
_audit_creation_date               1988/02/22
_audit_update_record               2004/10/01
_chemical_name_systematic          'Magnesium Dialuminium Chloride'
_chemical_formula_structural       'Mg Al2 Cl8'
_chemical_formula_sum              'Al2 Cl8 Mg1'
_publ_section_title
;
Structure and Stability of Solid and Molten Complexes in the Mg Cl2 - 
Al Cl3 System
;
loop_
_citation_id
_citation_journal_abbrev
_citation_year
_citation_journal_volume
_citation_page_first
_citation_page_last
_citation_journal_id_ASTM
primary Polyhedron 1987 6 975 986 PLYHDE
_publ_author_name
;
Einarsrud, M.A.;Justnes, H.;Rytter, E.;Oye, H.A.
;
_cell_length_a                     12.873(1)
_cell_length_b                     7.8959(7)
_cell_length_c                     11.617(1)
_cell_angle_alpha                  90.
_cell_angle_beta                   92.348(8)
_cell_angle_gamma                  90.
_cell_volume                       1179.81
_cell_formula_units_Z              4
_symmetry_space_group_name_H-M     'I 1 2/c 1'
_symmetry_Int_Tables_number        15
loop_
_symmetry_equiv_pos_site_id
_symmetry_equiv_pos_as_xyz
  1	'-x, y, -z+.5'
  2	'-x, -y, -z'
  3	'x, -y, z+.5'
  4	'x, y, z'
  5	'-x+.5, y+.5, -z'
  6	'-x+.5, -y+.5, -z+.5'
  7	'x+.5, -y+.5, z'
  8	'x+.5, y+.5, z+.5'
loop_
_atom_type_symbol
_atom_type_oxidation_number
Al3+	3
Cl1-	-1
Mg2+	2
loop_
_atom_site_label
_atom_site_type_symbol
_atom_site_symmetry_multiplicity
_atom_site_Wyckoff_symbol
_atom_site_fract_x
_atom_site_fract_y
_atom_site_fract_z
_atom_site_occupancy
_atom_site_attached_hydrogens
Mg1 Mg2+ 4 e 0 0 0.25 1. 0 
Al1 Al3+ 8 f 0.0874(20) 0.25 0.5494(24) 1. 0 
Cl1 Cl1- 8 f 0.1597(9) 0.4818(29) 0.6127(10) 1. 0 
Cl2 Cl1- 8 f 0.1579(8) 0.0187(27) 0.6317(11) 1. 0 
Cl3 Cl1- 8 f 0.0956(7) 0.2369(27) 0.3672(9) 1. 0 
Cl4 Cl1- 8 f -.0625(9) 0.2263(22) 0.6145(9) 1. 0 

#End of data_62046-ICSD


