data_260873-ICSD
#?2014 by Fachinformationszentrum Karlsruhe, and the U.S. Secretary of 
#Commerce on behalf of the United States.  All rights reserved.
_database_code_ICSD                260873
_audit_creation_date               2011/02/01
_chemical_name_systematic          'Calcium Dihydride'
_chemical_formula_structural       'Ca H2'
_chemical_formula_sum              'H2 Ca1'
_publ_section_title
;
Crystal structure and bond valence of Ca H2 from neutron powder 
diffraction data
;
loop_
_citation_id
_citation_journal_abbrev
_citation_year
_citation_journal_volume
_citation_journal_issue
_citation_page_first
_citation_page_last
_citation_journal_id_ASTM
primary 'Zeitschrift fuer Kristallographie - Crystalline Materials'
 2010 225 6 225 229 ZKCMAJ
_publ_author_name
;
Alonso, J.A.;Retuerto, M.;Sanchez Benitez, J.;Fernandez Diaz, M.T.
;
_cell_length_a                     5.9600(1)
_cell_length_b                     3.60058(7)
_cell_length_c                     6.8167(1)
_cell_angle_alpha                  90.
_cell_angle_beta                   90.
_cell_angle_gamma                  90.
_cell_volume                       146.28
_cell_formula_units_Z              4
_symmetry_space_group_name_H-M     'P n m a'
_symmetry_Int_Tables_number        62
_refine_ls_R_factor_all            .782
loop_
_symmetry_equiv_pos_site_id
_symmetry_equiv_pos_as_xyz
  1	'x+.5, y, -z+.5'
  2	'x, -y+.5, z'
  3	'-x+.5, y+.5, z+.5'
  4	'-x, -y, -z'
  5	'-x+.5, -y, z+.5'
  6	'-x, y+.5, -z'
  7	'x+.5, -y+.5, -z+.5'
  8	'x, y, z'
loop_
_atom_type_symbol
_atom_type_oxidation_number
Ca2+	2
H1-	-1
loop_
_atom_site_label
_atom_site_type_symbol
_atom_site_symmetry_multiplicity
_atom_site_Wyckoff_symbol
_atom_site_fract_x
_atom_site_fract_y
_atom_site_fract_z
_atom_site_occupancy
_atom_site_attached_hydrogens
_atom_site_B_iso_or_equiv
Ca1 Ca2+ 4 c 0.2424(9) 0.25 0.1086(5) 1. 0 0.41(7) 
H1 H1- 4 c 0.3543(8) 0.25 0.4264(7) 1. 0 1.3(1) 
H2 H1- 4 c -0.0273(10) 0.25 0.6775(9) 1. 0 2.3(1) 

#End of data_260873-ICSD


