data_33285-ICSD
#?2014 by Fachinformationszentrum Karlsruhe, and the U.S. Secretary of 
#Commerce on behalf of the United States.  All rights reserved.
_database_code_ICSD                33285
_audit_creation_date               1985/03/28
_audit_update_record               2012/02/01
_chemical_name_systematic
;
Tetrapotassium Cyclo-tetraphosphate(V) Dihydrate
;
_chemical_formula_structural       'K4 (P4 O12) (H2 O)2'
_chemical_formula_sum              'H4 K4 O14 P4'
_publ_section_title
;
Kristallstruktur und thermisches Verhalten von Tetrakalium- cyclo-
tetraphosphat(V)-Dihydrat, (K P O3)4 (H2 O)2
;
loop_
_citation_id
_citation_journal_abbrev
_citation_year
_citation_journal_volume
_citation_page_first
_citation_page_last
_citation_journal_id_ASTM
primary 'Monatshefte fuer Chemie' 1985 116 203 210 MOCMB7
_publ_author_name                  'Wiench, D.M.;Jansen, M.'
_cell_length_a                     11.149(2)
_cell_length_b                     8.219(2)
_cell_length_c                     8.157(3)
_cell_angle_alpha                  88.88(2)
_cell_angle_beta                   84.51(2)
_cell_angle_gamma                  82.70(2)
_cell_volume                       737.98
_cell_formula_units_Z              2
_symmetry_space_group_name_H-M     'P -1'
_symmetry_Int_Tables_number        2
_refine_ls_R_factor_all            .052
loop_
_symmetry_equiv_pos_site_id
_symmetry_equiv_pos_as_xyz
  1	'-x, -y, -z'
  2	'x, y, z'
loop_
_atom_type_symbol
_atom_type_oxidation_number
H1+	1
K1+	1
O2-	-2
P5+	5
loop_
_atom_site_label
_atom_site_type_symbol
_atom_site_symmetry_multiplicity
_atom_site_Wyckoff_symbol
_atom_site_fract_x
_atom_site_fract_y
_atom_site_fract_z
_atom_site_occupancy
_atom_site_attached_hydrogens
_atom_site_U_iso_or_equiv
P1 P5+ 2 i 0.7824(1) 0.7860(1) 0.5178(1) 1. 0 0 
P2 P5+ 2 i 0.8021(1) 0.6392(1) 0.0575(1) 1. 0 0 
P3 P5+ 2 i 0.7040(1) 0.4963(1) 0.3724(1) 1. 0 0 
P4 P5+ 2 i 0.7147(1) 0.9543(1) 0.2151(1) 1. 0 0 
O1 O2- 2 i 0.6853(3) 0.6681(4) 0.4739(4) 1. 0 0 
O2 O2- 2 i 0.8062(3) 0.5310(4) 0.2258(4) 1. 0 0 
O3 O2- 2 i 0.7014(3) 0.7919(4) 0.1132(4) 1. 0 0 
O4 O2- 2 i 0.8074(3) 0.8835(4) 0.3466(4) 1. 0 0 
O5 O2- 2 i 0.7169(3) 0.9015(4) 0.6448(4) 1. 0 0 
O6 O2- 2 i 0.9000(3) 0.6906(4) 0.5491(4) 1. 0 0 
O7 O2- 2 i 0.7488(3) 0.5513(4) 0.9309(4) 1. 0 0 
O8 O2- 2 i 0.9241(3) 0.6905(4) 0.0227(4) 1. 0 0 
O9 O2- 2 i 0.7632(3) 0.3626(4) 0.4724(4) 1. 0 0 
O10 O2- 2 i 0.5855(3) 0.4833(4) 0.3109(5) 1. 0 0 
O11 O2- 2 i 0.5933(3) 0.0125(4) 0.2965(4) 1. 0 0 
O12 O2- 2 i 0.7785(3) 0.0697(4) 0.1080(4) 1. 0 0 
K1 K1+ 2 i 0.0741(1) 0.6197(1) 0.2867(1) 1. 0 0 
K2 K1+ 2 i 0.9484(1) 0.2050(1) 0.2461(1) 1. 0 0 
K3 K1+ 2 i 0.4295(1) 0.7994(1) 0.3921(1) 1. 0 0 
K4 K1+ 2 i 0.4524(1) 0.2775(1) 0.1788(1) 1. 0 0 
O13 O2- 2 i 0.1163(4) 0.9351(5) 0.2150(5) 1. 0 0 
O14 O2- 2 i 0.3734(4) 0.7192(5) 0.0802(5) 1. 0 0 
H1 H1+ 2 i 0.1873(11) 0.0161(11) 0.2402(11) 1. 0 0.0504(11) 
H2 H1+ 2 i 0.1272(11) 0.9454(11) 0.1047(11) 1. 0 0.0491(11) 
H3 H1+ 2 i 0.4506(11) 0.6811(11) 0.1095(11) 1. 0 0.0500(11) 
H4 H1+ 2 i 0.3241(11) 0.8150(11) 0.0276(11) 1. 0 0.0514(11) 

loop_
_atom_site_aniso_label
_atom_site_aniso_type_symbol
_atom_site_aniso_U_11
_atom_site_aniso_U_22
_atom_site_aniso_U_33
_atom_site_aniso_U_12
_atom_site_aniso_U_13
_atom_site_aniso_U_23
P1 P5+ 0.0123(4) 0.0123(4) 0.0118(4) -.0011(3) -.0011(3) -.0014(3)
P2 P5+ 0.0159(4) 0.0133(4) 0.0122(4) -.0003(3) -.0007(3) 0.0003(3)
P3 P5+ 0.0142(4) 0.0114(4) 0.0144(4) -.0029(3) -.0008(3) 0.0003(3)
P4 P5+ 0.0140(4) 0.0099(4) 0.0154(4) -.0017(3) -.0021(3) 0.0011(3)
O1 O2- 0.0153(8) 0.0134(8) 0.0178(8) -.0041(7) 0.0013(8) -.0041(7)
O2 O2- 0.0208(9) 0.0125(8) 0.0131(8) 0.0011(8) 0.0028(8) 0.0040(7)
O3 O2- 0.0176(8) 0.0117(8) 0.0213(9) 0.0007(7) -.0058(8) -.0026(8)
O4 O2- 0.0169(8) 0.0189(8) 0.0146(8) -.0057(8) -.0038(7) 0.0036(8)
O5 O2- 0.0221(9) 0.0180(9) 0.0181(9) -.0011(8) 0.0019(8) -.0071(8)
O6 O2- 0.0139(8) 0.0222(9) 0.0181(9) 0.0018(8) -.0037(8) 0.0018(8)
O7 O2- 0.0218(9) 0.0187(9) 0.0169(9) -.0007(8) -.0050(8) -.0042(8)
O8 O2- 0.0206(9) 0.0265 0.0250(9) -.0039(8) 0.0020(8) 0.0071(9)
O9 O2- 0.0245(9) 0.0135(8) 0.0209(9) -.0016(8) -.0023(8) 0.0061(8)
O10 O2- 0.0182(9) 0.0274(9) 0.0318(9) -.0061(8) -.0051(8) -.0088(9)
O11 O2- 0.0178(9) 0.0159(8) 0.0275(9) 0.0020(8) 0.0005(8) -.0028(8)
O12 O2- 0.0257(9) 0.0174(8) 0.0204(9) -.0088(8) -.0036(8) 0.0056(8)
K1 K1+ 0.0244(4) 0.0221(4) 0.0188(4) 0.0000(3) 0.0000(3) 0.0005(3)
K2 K1+ 0.0192(4) 0.0239(4) 0.0244(4) -.0037(3) -.0031(3) -.0034(3)
K3 K1+ 0.0221(4) 0.0192(4) 0.0290(4) -.0049(3) 0.0003(4) 0.0011(3)
K4 K1+ 0.0198(4) 0.0248(4) 0.0274(4) -.0023(3) -.0037(3) 0.0027(4)
O13 O2- 0.031(1) 0.0278(9) 0.0318(10) -.0061(9) 0.0009(9) -.0045(9)
O14 O2- 0.0346(10) 0.0297(10) 0.0347(10) 0.0009(9) -.0061(9) 0.0024(9)
#End of data_33285-ICSD


