data_42826-ICSD
#?2014 by Fachinformationszentrum Karlsruhe, and the U.S. Secretary of 
#Commerce on behalf of the United States.  All rights reserved.
_database_code_ICSD                42826
_audit_creation_date               2000/07/15
_audit_update_record               2011/02/01
_chemical_name_systematic          'Potassium Bromodinitrocarbonate'
_chemical_formula_structural       'K (Br C (N O2)2)'
_chemical_formula_sum              'C1 Br1 K1 N2 O4'
_publ_section_title
;
Crystal structure of K Br C (N O2)2
;
loop_
_citation_id
_citation_journal_abbrev
_citation_year
_citation_journal_volume
_citation_page_first
_citation_page_last
_citation_journal_id_ASTM
primary 'Zhurnal Strukturnoi Khimii (Issue-No. from 1981)'
 1969 10 152 154 ZSTKAI
_publ_author_name
;
Golovina, N.I.;Shelestov, V.M.;Atovmyan, L.O.
;
_cell_length_a                     7.40(3)
_cell_length_b                     7.33(3)
_cell_length_c                     6.31(2)
_cell_angle_alpha                  83.55
_cell_angle_beta                   103.57
_cell_angle_gamma                  64.47
_cell_volume                       291.2
_cell_formula_units_Z              2
_symmetry_space_group_name_H-M     'P -1'
_symmetry_Int_Tables_number        2
_refine_ls_R_factor_all            .18
loop_
_symmetry_equiv_pos_site_id
_symmetry_equiv_pos_as_xyz
  1	'-x, -y, -z'
  2	'x, y, z'
loop_
_atom_type_symbol
_atom_type_oxidation_number
Br1-	-1
C2+	2
K1+	1
N3+	3
O2-	-2
loop_
_atom_site_label
_atom_site_type_symbol
_atom_site_symmetry_multiplicity
_atom_site_Wyckoff_symbol
_atom_site_fract_x
_atom_site_fract_y
_atom_site_fract_z
_atom_site_occupancy
_atom_site_attached_hydrogens
K1 K1+ 2 i 0.87 0.279 0.675 1. 0 
Br1 Br1- 2 i 0.286 0.211 0.189 1. 0 
C1 C2+ 2 i 0.458 0.264 0.046 1. 0 
N1 N3+ 2 i 0.377 0.355 -.188 1. 0 
N2 N3+ 2 i 0.679 0.161 0.156 1. 0 
O1 O2- 2 i 0.465 0.434 -.277 1. 0 
O2 O2- 2 i 0.194 0.402 -.288 1. 0 
O3 O2- 2 i 0.746 0.099 0.361 1. 0 
O4 O2- 2 i 0.792 0.196 0.066 1. 0 

#End of data_42826-ICSD


