data_33262-ICSD
#?2014 by Fachinformationszentrum Karlsruhe, and the U.S. Secretary of 
#Commerce on behalf of the United States.  All rights reserved.
_database_code_ICSD                33262
_audit_creation_date               1985/03/07
_chemical_name_systematic          'Potassium Trilithium Tetraamide'
_chemical_formula_structural       'K Li3 (N H2)4'
_chemical_formula_sum              'H8 K1 Li3 N4'
_publ_section_title
;
Schichtenweise Substitution von Kationen im Lithiumamid: 
Kaliumtrilithiumamid, K Li3 (N H2)4 und Kaliumheptalithiumamid, K Li7 
(N H2)8
;
loop_
_citation_id
_citation_journal_abbrev
_citation_year
_citation_journal_volume
_citation_page_first
_citation_page_last
_citation_journal_id_ASTM
primary 'Zeitschrift fuer Anorganische und Allgemeine Chemie (1950) (DE)'
 1984 518 87 100 ZAACAB
_publ_author_name                  'Jacobs, H.;Harbrecht, B.'
_cell_length_a                     7.238(3)
_cell_length_b                     7.238(3)
_cell_length_c                     23.956(10)
_cell_angle_alpha                  90.
_cell_angle_beta                   90.
_cell_angle_gamma                  90.
_cell_volume                       1255.02
_cell_formula_units_Z              8
_symmetry_space_group_name_H-M     'I 41/a m d Z'
_symmetry_Int_Tables_number        141
_refine_ls_R_factor_all            .052
loop_
_symmetry_equiv_pos_site_id
_symmetry_equiv_pos_as_xyz
  1	'y+.25, x+.75, -z+.25'
  2	'y+.25, -x+.75, -z+.25'
  3	'x, y+.5, -z'
  4	'x, -y, -z'
  5	'-y+.75, x+.75, -z+.25'
  6	'-y+.75, -x+.75, -z+.25'
  7	'-x, y+.5, -z'
  8	'-x, -y, -z'
  9	'-y+.75, -x+.25, z+.75'
 10	'-y+.75, x+.25, z+.75'
 11	'-x, -y+.5, z'
 12	'-x, y, z'
 13	'y+.25, -x+.25, z+.75'
 14	'y+.25, x+.25, z+.75'
 15	'x, -y+.5, z'
 16	'x, y, z'
 17	'y+.75, x+.25, -z+.75'
 18	'y+.75, -x+.25, -z+.75'
 19	'x+.5, y, -z+.5'
 20	'x+.5, -y+.5, -z+.5'
 21	'-y+.25, x+.25, -z+.75'
 22	'-y+.25, -x+.25, -z+.75'
 23	'-x+.5, y, -z+.5'
 24	'-x+.5, -y+.5, -z+.5'
 25	'-y+.25, -x+.75, z+.25'
 26	'-y+.25, x+.75, z+.25'
 27	'-x+.5, -y, z+.5'
 28	'-x+.5, y+.5, z+.5'
 29	'y+.75, -x+.75, z+.25'
 30	'y+.75, x+.75, z+.25'
 31	'x+.5, -y, z+.5'
 32	'x+.5, y+.5, z+.5'
loop_
_atom_type_symbol
_atom_type_oxidation_number
H1+	1
K1+	1
Li1+	1
N3-	-3
loop_
_atom_site_label
_atom_site_type_symbol
_atom_site_symmetry_multiplicity
_atom_site_Wyckoff_symbol
_atom_site_fract_x
_atom_site_fract_y
_atom_site_fract_z
_atom_site_occupancy
_atom_site_attached_hydrogens
_atom_site_B_iso_or_equiv
K1 K1+ 8 c 0 0 0 1. 0 0 
Li1 Li1+ 8 e 0 0.25 0.1190(3) 1. 0 0 
Li2 Li1+ 16 g 0.250(1) 0.5 0.875 1. 0 0 
N1 N3- 16 h 0 0.0136(4) 0.1684(1) 1. 0 0 
N2 N3- 16 h 0 0.0116(5) 0.6751(1) 1. 0 0 
H1 H1+ 16 h 0 0.053(7) 0.202(2) 1. 0 3.(2) 
H2 H1+ 16 h 0 0.973(7) 0.165(2) 1. 0 4.(1) 
H3 H1+ 16 h 0 0.972(8) 0.704(2) 1. 0 4.(1) 
H4 H1+ 16 h 0 0.911(7) 0.673(2) 1. 0 5.(1) 

loop_
_atom_site_aniso_label
_atom_site_aniso_type_symbol
_atom_site_aniso_U_11
_atom_site_aniso_U_22
_atom_site_aniso_U_33
_atom_site_aniso_U_12
_atom_site_aniso_U_13
_atom_site_aniso_U_23
K1 K1+ 0.0342(6) 0.0335(6) 0.0436(6) 0 0 -.0038(6)
Li1 Li1+ 0.0251(41) 0.0201(39) 0.0149(34) 0 0 0
Li2 Li1+ 0.0274(38) 0.0274(38) 0.0506(37) 0 -.0016(40) -.0016(40)
N1 N3- 0.0241(13) 0.0224(13) 0.0369(14) 0 0 0.0136(13)
N2 N3- 0.0330(15) 0.0240(14) 0.0294(14) 0 0 -.0002(14)
#End of data_33262-ICSD


