data_9534-ICSD
#?2014 by Fachinformationszentrum Karlsruhe, and the U.S. Secretary of 
#Commerce on behalf of the United States.  All rights reserved.
_database_code_ICSD                9534
_audit_creation_date               1980/01/01
_audit_update_record               2006/04/01
_chemical_name_systematic          'Potassium Niobate - Lt'
_chemical_formula_structural       'K (Nb O3)'
_chemical_formula_sum              'K1 Nb1 O3'
_publ_section_title
;
Cubic-tetragonal-orthorhombic-rhombohedral ferroelectric transitions 
in perovskite potassium niobate. Neutron powder profile refinement of 
the structures
;
loop_
_citation_id
_citation_journal_abbrev
_citation_year
_citation_journal_volume
_citation_page_first
_citation_page_last
_citation_journal_id_ASTM
primary 'Journal of Physics C' 1973 6 2559 2572 JPSOAW
2 'Phase Transition' 1992 38 127 220 PHTRDP
_publ_author_name                  'Hewat, A.W.'
_cell_length_a                     4.016
_cell_length_b                     4.016
_cell_length_c                     4.016
_cell_angle_alpha                  89.817(9)
_cell_angle_beta                   89.817(9)
_cell_angle_gamma                  89.817(9)
_cell_volume                       64.77
_cell_formula_units_Z              1
_symmetry_space_group_name_H-M     'R 3 m R'
_symmetry_Int_Tables_number        160
_refine_ls_R_factor_all            .0258
loop_
_symmetry_equiv_pos_site_id
_symmetry_equiv_pos_as_xyz
  1	'z, y, x'
  2	'z, x, y'
  3	'x, z, y'
  4	'y, z, x'
  5	'y, x, z'
  6	'x, y, z'
loop_
_atom_type_symbol
_atom_type_oxidation_number
K1+	1
Nb5+	5
O2-	-2
loop_
_atom_site_label
_atom_site_type_symbol
_atom_site_symmetry_multiplicity
_atom_site_Wyckoff_symbol
_atom_site_fract_x
_atom_site_fract_y
_atom_site_fract_z
_atom_site_occupancy
_atom_site_attached_hydrogens
K1 K1+ 1 a 0.0130(81) 0.0130(81) 0.0130(81) 1. 0 
Nb1 Nb5+ 1 a 0.5 0.5 0.5 1. 0 
O1 O2- 3 b 0.5301(9) 0.5301(9) 0.0333(15) 1. 0 

loop_
_atom_site_aniso_label
_atom_site_aniso_type_symbol
_atom_site_aniso_B_11
_atom_site_aniso_B_22
_atom_site_aniso_B_33
_atom_site_aniso_B_12
_atom_site_aniso_B_13
_atom_site_aniso_B_23
K1 K1+ 0.51(14) 0.51(14) 0.51(14) 0.16(19) 0.16(19) 0.16(19)
Nb1 Nb5+ 0.15(15) 0.15(15) 0.15(15) 0.10(15) 0.10(15) 0.10(15)
O1 O2- 0.46(16) 0.46(16) 0.16(11) 0.15(19) 0.10(14) 0.10(14)
#End of data_9534-ICSD


