data_181462-ICSD
#?2014 by Fachinformationszentrum Karlsruhe, and the U.S. Secretary of 
#Commerce on behalf of the United States.  All rights reserved.
_database_code_ICSD                181462
_audit_creation_date               2012/02/01
_chemical_name_systematic          'Magnesium Oxide - Ibam, Unstable'
_chemical_formula_structural       'Mg O'
_chemical_formula_sum              'Mg1 O1'
_publ_section_title
;
Structural richness of ionic binary materials: an exploration of the 
energy landscape of magnesium oxide
;
loop_
_citation_id
_citation_journal_abbrev
_citation_year
_citation_journal_volume
_citation_page_first
_citation_page_last
_citation_journal_id_ASTM
primary 'Physical Review, Serie 3. B - Condensed Matter (18,1978-)'
 2011 83 024104-1 024104-9 PRBMDO
_publ_author_name                  'Zwijnenburg, M.A.;Bromley, S.T.'
_cell_length_a                     14.5192
_cell_length_b                     6.2122
_cell_length_c                     4.2054
_cell_angle_alpha                  90.
_cell_angle_beta                   90.
_cell_angle_gamma                  90.
_cell_volume                       379.31
_cell_formula_units_Z              16
_symmetry_space_group_name_H-M     'I b a m'
_symmetry_Int_Tables_number        72
loop_
_symmetry_equiv_pos_site_id
_symmetry_equiv_pos_as_xyz
  1	'-x, y, z+.5'
  2	'x, -y, z+.5'
  3	'x, y, -z'
  4	'-x, -y, -z'
  5	'x, -y, -z+.5'
  6	'-x, y, -z+.5'
  7	'-x, -y, z'
  8	'x, y, z'
  9	'-x+.5, y+.5, z'
 10	'x+.5, -y+.5, z'
 11	'x+.5, y+.5, -z+.5'
 12	'-x+.5, -y+.5, -z+.5'
 13	'x+.5, -y+.5, -z'
 14	'-x+.5, y+.5, -z'
 15	'-x+.5, -y+.5, z+.5'
 16	'x+.5, y+.5, z+.5'
loop_
_atom_type_symbol
_atom_type_oxidation_number
Mg2+	2
O2-	-2
loop_
_atom_site_label
_atom_site_type_symbol
_atom_site_symmetry_multiplicity
_atom_site_Wyckoff_symbol
_atom_site_fract_x
_atom_site_fract_y
_atom_site_fract_z
_atom_site_occupancy
_atom_site_attached_hydrogens
Mg1 Mg2+ 8 j 0.07082 0.33459 0.5 1. 0 
Mg2 Mg2+ 8 j 0.18987 0.16385 0 1. 0 
O1 O2- 8 j 0.18999 0.16412 0.5 1. 0 
O2 O2- 8 j 0.07082 0.33025 0 1. 0 

#End of data_181462-ICSD


