data_262534-ICSD
#?2014 by Fachinformationszentrum Karlsruhe, and the U.S. Secretary of 
#Commerce on behalf of the United States.  All rights reserved.
_database_code_ICSD                262534
_audit_creation_date               2012/08/01
_chemical_name_systematic
;
Sodium Silver Tungsten Oxide Fluoride (1.5/1.5/1/3/3)
;
_chemical_formula_structural       'Na1.5 Ag1.5 W O3 F3'
_chemical_formula_sum              'Ag1.5 F3 Na1.5 O3 W1'
_publ_section_title
;
Na1.5 Ag1.5 Mo3 F3 (M = Mo, W): an ordered oxyfluoride derivative of 
the Li Nb O3 structure
;
loop_
_citation_id
_citation_journal_abbrev
_citation_year
_citation_journal_volume
_citation_journal_issue
_citation_page_first
_citation_page_last
_citation_journal_id_ASTM
primary 'Journal of the American Chemical Society' 2012 134 5 2621 2625 JACSAT
_publ_author_name
;
Fry, F.M.;Seibel, H.A.;Lokuhewa, I.N.;Woodward, P.M.
;
_cell_length_a                     5.741466(18)
_cell_length_b                     5.741466(18)
_cell_length_c                     28.63794(11)
_cell_angle_alpha                  90
_cell_angle_beta                   90
_cell_angle_gamma                  120
_cell_volume                       817.56
_cell_formula_units_Z              6
_symmetry_space_group_name_H-M     'R -3 H'
_symmetry_Int_Tables_number        148
_refine_ls_R_factor_all            .0886
loop_
_symmetry_equiv_pos_site_id
_symmetry_equiv_pos_as_xyz
  1	'x-y, x, -z'
  2	'y, -x+y, -z'
  3	'-x, -y, -z'
  4	'-x+y, -x, z'
  5	'-y, x-y, z'
  6	'x, y, z'
  7	'x-y+.6666, x+.3333, -z+.3333'
  8	'x-y+.3333, x+.6666, -z+.6666'
  9	'y+.6666, -x+y+.3333, -z+.3333'
 10	'y+.3333, -x+y+.6666, -z+.6666'
 11	'-x+.6666, -y+.3333, -z+.3333'
 12	'-x+.3333, -y+.6666, -z+.6666'
 13	'-x+y+.6666, -x+.3333, z+.3333'
 14	'-x+y+.3333, -x+.6666, z+.6666'
 15	'-y+.6666, x-y+.3333, z+.3333'
 16	'-y+.3333, x-y+.6666, z+.6666'
 17	'x+.6666, y+.3333, z+.3333'
 18	'x+.3333, y+.6666, z+.6666'
loop_
_atom_type_symbol
_atom_type_oxidation_number
Ag1+	1
F1-	-1
Na1+	1
O2-	-2
W6+	6
loop_
_atom_site_label
_atom_site_type_symbol
_atom_site_symmetry_multiplicity
_atom_site_Wyckoff_symbol
_atom_site_fract_x
_atom_site_fract_y
_atom_site_fract_z
_atom_site_occupancy
_atom_site_attached_hydrogens
_atom_site_B_iso_or_equiv
Ag1 Ag1+ 3 a 0 0 0 1 0 1.167(19) 
Ag2 Ag1+ 6 c 0 0 0.369580(27) 1 0 1.717(15) 
Na1 Na1+ 6 c 0 0 0.13295(13) 1 0 1.717(15) 
Na2 Na1+ 3 b 0 0 0.5 1 0 1.167(19) 
W1 W6+ 6 c 0 0 0.254960(13) 1 0 0.545(13) 
O1 O2- 18 f 0.62268(68) 0.92171(66) 0.94736(11) 1 0 1.148(53) 
F1 F1- 18 f 0.61057(55) 0.90579(54) 0.46157(10) 1 0 1.148(53) 

#End of data_262534-ICSD


