data_156823-ICSD
#?2014 by Fachinformationszentrum Karlsruhe, and the U.S. Secretary of 
#Commerce on behalf of the United States.  All rights reserved.
_database_code_ICSD                156823
_audit_creation_date               2008/02/01
_chemical_name_systematic
;
Magnesium Aluminium Phosphate(V) Oxide - Alpha
;
_chemical_formula_structural       'Mg Al (P O4) O'
_chemical_formula_sum              'Al1 Mg1 O5 P1'
_publ_section_title
;
Polymorphism and thermochemistry of Mg Al P O4 O, a product of 
lazulite breakdown at high temperature
;
loop_
_citation_id
_citation_journal_abbrev
_citation_year
_citation_journal_volume
_citation_page_first
_citation_page_last
_citation_journal_id_ASTM
primary 'European Journal of Mineralogy' 2007 19 159 172 EJMIER
_publ_author_name
;
Schmid-Beurmann, P.;Brunet, F.;Kahlenberg, V.;Dachs, E.
;
_cell_length_a                     7.145(2)
_cell_length_b                     10.419(3)
_cell_length_c                     5.279(1)
_cell_angle_alpha                  90.
_cell_angle_beta                   91.12(3)
_cell_angle_gamma                  90.
_cell_volume                       392.91
_cell_formula_units_Z              4
_symmetry_space_group_name_H-M     'P 1 21/c 1'
_symmetry_Int_Tables_number        14
_refine_ls_R_factor_all            .0315
loop_
_symmetry_equiv_pos_site_id
_symmetry_equiv_pos_as_xyz
  1	'x, -y+.5, z+.5'
  2	'-x, -y, -z'
  3	'-x, y+.5, -z+.5'
  4	'x, y, z'
loop_
_atom_type_symbol
_atom_type_oxidation_number
Al3+	3
Mg2+	2
O2-	-2
P5+	5
loop_
_atom_site_label
_atom_site_type_symbol
_atom_site_symmetry_multiplicity
_atom_site_Wyckoff_symbol
_atom_site_fract_x
_atom_site_fract_y
_atom_site_fract_z
_atom_site_occupancy
_atom_site_attached_hydrogens
_atom_site_U_iso_or_equiv
Mg1 Mg2+ 4 e 0.0218(1) 0.1432(1) 0.0985(2) 1. 0 0.0250(3) 
Al1 Al3+ 4 e 0.3581(1) 0.3304(1) 0.1679(2) 1. 0 0.0184(2) 
P1 P5+ 4 e 0.7770(1) 0.0931(1) 0.5882(1) 1. 0 0.0178(2) 
O1 O2- 4 e 0.2676(3) 0.2859(2) 0.4586(4) 1. 0 0.0263(5) 
O2 O2- 4 e 0.6014(3) 0.1650(2) 0.6661(5) 1. 0 0.0317(5) 
O3 O2- 4 e 0.2767(3) 0.4836(2) 0.0907(5) 1. 0 0.0342(6) 
O4 O2- 4 e 0.9079(3) 0.1841(2) 0.4450(4) 1. 0 0.0243(5) 
O5 O2- 4 e 0.1209(3) -0.0398(2) 0.1768(4) 1. 0 0.0274(5) 

loop_
_atom_site_aniso_label
_atom_site_aniso_type_symbol
_atom_site_aniso_U_11
_atom_site_aniso_U_22
_atom_site_aniso_U_33
_atom_site_aniso_U_12
_atom_site_aniso_U_13
_atom_site_aniso_U_23
Mg1 Mg2+ 0.0285(5) 0.0219(5) 0.0246(7) 0.0009(4) 0.0033(4) 0.0013(4)
Al1 Al3+ 0.0186(4) 0.0179(4) 0.0188(5) -0.0014(3) 0.0007(3) 0.0012(3)
P1 P5+ 0.0169(3) 0.0161(3) 0.0203(4) -0.0004(2) 0.0000(2) -0.0005(2)
O1 O2- 0.0252(9) 0.0292(10) 0.0249(13) 0.0065(8) 0.0060(8) 0.0087(8)
O2 O2- 0.0192(9) 0.0355(11) 0.0406(16) 0.0034(8) 0.0043(9) -0.0052(10)
O3 O2- 0.0388(12) 0.0242(10) 0.0395(16) 0.0057(8) -0.0023(10) 0.0106(10)
O4 O2- 0.0265(9) 0.0217(9) 0.0247(13) -0.0044(7) 0.0051(8) 0.0002(8)
O5 O2- 0.0322(10) 0.0234(10) 0.0263(13) 0.0025(8) -0.0040(8) 0.0038(8)
#End of data_156823-ICSD


