data_59850-ICSD
#?2014 by Fachinformationszentrum Karlsruhe, and the U.S. Secretary of 
#Commerce on behalf of the United States.  All rights reserved.
_database_code_ICSD                59850
_audit_creation_date               2005/10/01
_chemical_name_systematic
;
Tetrapotassium Vanadium Diphosphorus Nonasulfide
;
_chemical_formula_structural       'K4 P2 S9 V'
_chemical_formula_sum              'K4 P2 S9 V1'
_publ_section_title                'K4 V P2 S9'
loop_
_citation_id
_citation_journal_abbrev
_citation_year
_citation_journal_volume
_citation_page_first
_citation_page_last
_citation_journal_id_ASTM
primary 'Acta Crystallographica, Section C: Crystal Structure Communications'
 2004 60 i11 i13 ACSCEE
_publ_author_name
;
Gutzmann, A.;Naether, C.;Bensch, W.
;
_cell_length_a                     19.3587(15)
_cell_length_b                     6.7658(5)
_cell_length_c                     12.7869(7)
_cell_angle_alpha                  90
_cell_angle_beta                   90
_cell_angle_gamma                  90
_cell_volume                       1674.79
_cell_formula_units_Z              4
_symmetry_space_group_name_H-M     'P n a 21'
_symmetry_Int_Tables_number        33
_refine_ls_R_factor_all            .051
loop_
_symmetry_equiv_pos_site_id
_symmetry_equiv_pos_as_xyz
  1	'x+.5, -y+.5, z'
  2	'-x+.5, y+.5, z+.5'
  3	'-x, -y, z+.5'
  4	'x, y, z'
loop_
_atom_type_symbol
_atom_type_oxidation_number
K1+	1
P5+	5
S2-	-2
V4+	4
loop_
_atom_site_label
_atom_site_type_symbol
_atom_site_symmetry_multiplicity
_atom_site_Wyckoff_symbol
_atom_site_fract_x
_atom_site_fract_y
_atom_site_fract_z
_atom_site_occupancy
_atom_site_attached_hydrogens
_atom_site_U_iso_or_equiv
K1 K1+ 4 a 0.78461(9) 0.75120(11) 0.17680(13) 1 0 0.0213(4) 
K2 K1+ 4 a 0.53614(8) 0.25562(11) 0.52620(14) 1 0 0.0191(4) 
K3 K1+ 4 a 0.56809(8) 0.74970(10) 0.32833(14) 1 0 0.0146(4) 
K4 K1+ 4 a 0.31871(8) 0.24486(11) 0.37562(15) 1 0 0.0152(4) 
V1 V4+ 4 a 0.37499(3) 0.64313(7) 0.60152(17) 1 0 0.00844(14) 
P1 P5+ 4 a 0.23215(9) 0.74837(11) 0.49990(13) 1 0 0.0081(4) 
P2 P5+ 4 a 0.51736(9) 0.75168(11) 0.70201(16) 1 0 0.0084(4) 
S1 S2- 4 a 0.37527(4) 0.33080(10) 0.6015(2) 1 0 0.01332(16) 
S2 S2- 4 a 0.48623(9) 0.74867(11) 0.54470(17) 1 0 0.0116(4) 
S3 S2- 4 a 0.41840(9) 0.74967(11) 0.76604(15) 1 0 0.0106(4) 
S4 S2- 4 a 0.33215(9) 0.74768(12) 0.43692(14) 1 0 0.0124(4) 
S5 S2- 4 a 0.26336(9) 0.74618(12) 0.65663(16) 1 0 0.0131(4) 
S6 S2- 4 a 0.18420(6) 0.9981(2) 0.46056(12) 1 0 0.0147(3) 
S7 S2- 4 a 0.18266(6) 0.5016(2) 0.45858(12) 1 0 0.0160(4) 
S8 S2- 4 a 0.56760(6) 0.5057(2) 0.74575(12) 1 0 0.0143(3) 
S9 S2- 4 a 0.56529(6) 1.0025(2) 0.74306(11) 1 0 0.0139(3) 

loop_
_atom_site_aniso_label
_atom_site_aniso_type_symbol
_atom_site_aniso_U_11
_atom_site_aniso_U_22
_atom_site_aniso_U_33
_atom_site_aniso_U_12
_atom_site_aniso_U_13
_atom_site_aniso_U_23
K1 K1+ 0.0179(9) 0.0230(9) 0.0230(11) -0.0025(3) -0.0026(8) 0.0013(3)
K2 K1+ 0.0194(9) 0.0208(8) 0.0170(8) 0.0020(3) 0.0026(7) -0.0002(3)
K3 K1+ 0.0139(8) 0.0194(9) 0.0104(8) 0.0005(2) 0.0009(6) -0.0010(2)
K4 K1+ 0.0155(8) 0.0163(9) 0.0137(9) -0.0016(2) 0.0012(6) -0.0009(3)
V1 V4+ 0.0076(2) 0.0099(2) 0.0079(2) 0.00020(19) -0.00045(19) -0.0003(4)
P1 P5+ 0.0104(8) 0.0101(9) 0.0039(8) 0.0000(2) -0.0007(8) 0.0003(2)
P2 P5+ 0.0053(8) 0.0046(8) 0.0153(10) -0.0004(2) -0.0008(8) 0.0000(3)
S1 S2- 0.0163(3) 0.0088(3) 0.0149(3) 0.0000(3) -0.0036(3) -0.0012(9)
S2 S2- 0.0081(8) 0.0167(9) 0.0101(9) -0.0023(2) 0.0025(8) 0.0004(3)
S3 S2- 0.0087(7) 0.0136(9) 0.0095(8) -0.0011(2) 0.0004(7) -0.0028(2)
S4 S2- 0.0107(7) 0.0190(10) 0.0076(9) 0.0017(3) 0.0014(7) 0.0025(3)
S5 S2- 0.0118(9) 0.0216(10) 0.0058(8) 0.0034(3) -0.0016(8) -0.0011(3)
S6 S2- 0.0135(6) 0.0081(7) 0.0226(8) 0.0017(4) -0.0008(5) 0.0003(7)
S7 S2- 0.0142(7) 0.0091(7) 0.0247(9) -0.0015(4) -0.0017(6) -0.0007(7)
S8 S2- 0.0132(7) 0.0078(7) 0.0218(8) 0.0025(4) -0.0066(5) 0.0029(7)
S9 S2- 0.0140(7) 0.0072(7) 0.0205(8) -0.0030(4) -0.0053(5) -0.0032(7)
#End of data_59850-ICSD


