data_422618-ICSD
#?2014 by Fachinformationszentrum Karlsruhe, and the U.S. Secretary of 
#Commerce on behalf of the United States.  All rights reserved.
_database_code_ICSD                422618
_audit_creation_date               2012/08/01
_chemical_name_systematic          'Tripotassium Dibismuth Nonanitrate'
_chemical_formula_structural       'K3 Bi2 (N O3)9'
_chemical_formula_sum              'Bi2 K3 N9 O27'
_publ_section_title
;
A new anhydrous double bismuth potassium nitrate, K3 Bi2 (N O3)9: 
synthesis, structure characterization and thermal decomposition
;
loop_
_citation_id
_citation_journal_abbrev
_citation_year
_citation_journal_volume
_citation_page_first
_citation_page_last
_citation_journal_id_ASTM
primary 'Journal of Alloys and Compounds' 2012 514 30 34 JALCEU
_publ_author_name
;
Goaz, A.;Uvarov, V.;Popov, I.;Shenawi-Khalil, S.;Sasson, Y.
;
_cell_length_a                     13.534(7)
_cell_length_b                     13.534(7)
_cell_length_c                     13.534(7)
_cell_angle_alpha                  90.
_cell_angle_beta                   90.
_cell_angle_gamma                  90.
_cell_volume                       2479.01
_cell_formula_units_Z              4
_symmetry_space_group_name_H-M     'P 43 3 2'
_symmetry_Int_Tables_number        212
_refine_ls_R_factor_all            6.23
loop_
_symmetry_equiv_pos_site_id
_symmetry_equiv_pos_as_xyz
  1	'z+.25, y+.75, -x+.75'
  2	'-z+.75, y+.25, x+.75'
  3	'y+.25, x+.75, -z+.75'
  4	'-y+.75, x+.25, z+.75'
  5	'x+.25, z+.75, -y+.75'
  6	'-x+.75, z+.25, y+.75'
  7	'z+.75, -y+.75, x+.25'
  8	'-z+.25, -y+.25, -x+.25'
  9	'y+.75, -x+.75, z+.25'
 10	'-y+.25, -x+.25, -z+.25'
 11	'x+.75, -z+.75, y+.25'
 12	'-x+.25, -z+.25, -y+.25'
 13	'-y+.5, -z, x+.5'
 14	'-y, z+.5, -x+.5'
 15	'y+.5, -z+.5, -x'
 16	'y, z, x'
 17	'z+.5, -x+.5, -y'
 18	'-z+.5, -x, y+.5'
 19	'-z, x+.5, -y+.5'
 20	'z, x, y'
 21	'-x+.5, -y, z+.5'
 22	'-x, y+.5, -z+.5'
 23	'x+.5, -y+.5, -z'
 24	'x, y, z'
loop_
_atom_type_symbol
_atom_type_oxidation_number
Bi3+	3
K1+	1
N5+	5
O2-	-2
loop_
_atom_site_label
_atom_site_type_symbol
_atom_site_symmetry_multiplicity
_atom_site_Wyckoff_symbol
_atom_site_fract_x
_atom_site_fract_y
_atom_site_fract_z
_atom_site_occupancy
_atom_site_attached_hydrogens
_atom_site_B_iso_or_equiv
K1 K1+ 12 d 0.125 0.3116(6) -0.0616(6) 1. 0 1.09(9) 
Bi1 Bi3+ 8 c 0.2999(4) 0.2999(4) 0.2999(4) 1. 0 1.11(3) 
N1 N5+ 12 d 0.4869(5) -0.2369(5) 0.125 1. 0 0.7(3) 
O1 O2- 24 e 0.4010(4) 0.7460(3) 0.0806(4) 1. 0 1.9(2) 
O2 O2- 12 d 0.5509(4) -0.3009(4) 0.125 1. 0 1.8(2) 
N2 N5+ 24 e 0.3876(6) 0.1645(6) 0.1475(8) 1. 0 1.4(4) 
O3 O2- 24 e 0.3112(3) 0.1406(4) 0.1979(6) 1. 0 1.9(2) 
O4 O2- 24 e 0.4272(5) 0.1071(4) 0.0899(3) 1. 0 1.9(3) 
O5 O2- 24 e 0.4255(5) 0.2466(2) 0.1664(6) 1. 0 1.8(2) 

#End of data_422618-ICSD


