data_24841-ICSD
#?2014 by Fachinformationszentrum Karlsruhe, and the U.S. Secretary of 
#Commerce on behalf of the United States.  All rights reserved.
_database_code_ICSD                24841
_audit_creation_date               1982/12/31
_chemical_name_systematic          'Magnesium Thiosulfate Hexahydrate'
_chemical_formula_structural       'Mg S2 O3 (H2 O)6'
_chemical_formula_sum              'H12 Mg1 O9 S2'
_publ_section_title
;
Hydrogen Bonding in Magnesium Thiosulphate Hexahydrate Mg S2 O3 (H2 
O)6. A Neutron Diffraction Study
;
loop_
_citation_id
_citation_journal_abbrev
_citation_year
_citation_journal_volume
_citation_page_first
_citation_page_last
_citation_journal_id_ASTM
primary 'Acta Crystallographica B (24,1968-38,1982)' 1982 38 1799 1801 ACBCAR
_publ_author_name                  'Elerman, Y.;Fuess, H.;Joswig, W.'
_cell_length_a                     9.405(4)
_cell_length_b                     14.449(4)
_cell_length_c                     6.866(4)
_cell_angle_alpha                  90.
_cell_angle_beta                   90.
_cell_angle_gamma                  90.
_cell_volume                       933.04
_cell_formula_units_Z              4
_symmetry_space_group_name_H-M     'P n m a'
_symmetry_Int_Tables_number        62
_refine_ls_R_factor_all            .06
loop_
_symmetry_equiv_pos_site_id
_symmetry_equiv_pos_as_xyz
  1	'x+.5, y, -z+.5'
  2	'x, -y+.5, z'
  3	'-x+.5, y+.5, z+.5'
  4	'-x, -y, -z'
  5	'-x+.5, -y, z+.5'
  6	'-x, y+.5, -z'
  7	'x+.5, -y+.5, -z+.5'
  8	'x, y, z'
loop_
_atom_type_symbol
_atom_type_oxidation_number
H1+	1
Mg2+	2
O2-	-2
S2-	-2
S6+	6
loop_
_atom_site_label
_atom_site_type_symbol
_atom_site_symmetry_multiplicity
_atom_site_Wyckoff_symbol
_atom_site_fract_x
_atom_site_fract_y
_atom_site_fract_z
_atom_site_occupancy
_atom_site_attached_hydrogens
Mg1 Mg2+ 4 a 0 0 0 1. 0 
S1 S6+ 4 c 0.0424(10) 0.25 0.4400(15) 1. 0 
S2 S2- 4 c 0.2174(12) 0.25 0.6082(14) 1. 0 
O1 O2- 8 d -.0416(4) 0.1662(3) 0.4776(6) 1. 0 
O2 O2- 4 c 0.0908(7) 0.25 0.2384(8) 1. 0 
O3 O2- 8 d -.1535(4) 0.0816(3) 0.1488(5) 1. 0 
O4 O2- 8 d 0.1263(4) 0.1148(3) -.0309(5) 1. 0 
O5 O2- 8 d -.0975(5) 0.0272(3) -.2612(6) 1. 0 
H1 H1+ 8 d 0.8797(7) 0.1088(5) 0.2650(14) 1. 0 
H2 H1+ 8 d 0.8096(7) 0.1315(5) 0.0679(13) 1. 0 
H3 H1+ 8 d 0.1200(8) 0.1618(6) 0.0671(12) 1. 0 
H4 H1+ 8 d 0.1533(8) 0.1453(6) 0.8566(13) 1. 0 
H5 H1+ 8 d 0.9214(8) 0.0771(7) 0.6542(13) 1. 0 
H6 H1+ 8 d 0.8206(9) 0.9938(6) 0.6948(12) 1. 0 

loop_
_atom_site_aniso_label
_atom_site_aniso_type_symbol
_atom_site_aniso_U_11
_atom_site_aniso_U_22
_atom_site_aniso_U_33
_atom_site_aniso_U_12
_atom_site_aniso_U_13
_atom_site_aniso_U_23
Mg1 Mg2+ 0.0136(23) 0.0113(27) 0.0230(32) -.0008(20) -.0013(21) -.0001
S1 S6+ 0.0133(30) 0.0158(32) 0.0185(37) 0 0.0017(3) 0
S2 S2- 0.0254(30) 0.0174(30) 0.0228(30) 0 0.0017(30) 0
O1 O2- 0.0417(23) 0.0279(25) 0.0310(23) -.0218 -.0036(18) 0.0060(19)
O2 O2- 0.0503(33) 0.0181(28) 0.0191(27) 0 0.0030(26) 0
O3 O2- 0.0148(17) 0.0116(21) 0.0315(27) 0.0034(16) 0.0024(19) 0.0012(22)
O4 O2- 0.0273(23) 0.0121(22) 0.0385(26) -.0068(20) 0.0046(20) -.0023(21)
O5 O2- 0.0273(23) 0.0191(22) 0.0295 -.0039(20) -.0079(21) 0.0051(23)
H1 H1+ 0.0352(36) 0.0285(37) 0.0447(48) 0.0064(30) 0.0037(34) 0.0002(39)
H2 H1+ 0.0371(37) 0.0258(24) 0.0530(48) 0.0080(32) 0.0015(33) -.004(4)
H3 H1+ 0.0479(43) 0.0271(41) 0.0392(44) -.0051(32) 0.0003(33) -.004(4)
H4 H1+ 0.0468(40) 0.0373(45) 0.0464(48) -.0073(32) 0.0092(38) -.0034(40)
H5 H1+ 0.0436(42) 0.040(5) 0.0388(45) -.0069(35) -.0083(36) 0.0073(41)
H6 H1+ 0.0399(41) 0.0378(42) 0.0432(45) -.0083(37) -.0144(35) -.0032(35)
#End of data_24841-ICSD


