data_422049-ICSD
#?2014 by Fachinformationszentrum Karlsruhe, and the U.S. Secretary of 
#Commerce on behalf of the United States.  All rights reserved.
_database_code_ICSD                422049
_audit_creation_date               2013/08/01
_chemical_name_systematic          'Sodium Neodymium Titanate'
_chemical_formula_structural       'Na Nd (Ti O4)'
_chemical_formula_sum              'Na1 Nd1 O4 Ti1'
_publ_section_title
;
Syntheses and Crystal Structures of the Compounds Na Ln Ti O4  (Ln = 
La, Pr, Nd)
;
loop_
_citation_id
_citation_journal_abbrev
_citation_year
_citation_journal_volume
_citation_journal_issue
_citation_page_first
_citation_page_last
_citation_journal_id_ASTM
primary 'Journal of Chemical Crystallography' 2012 42 5 529 532 JCCYEV
_publ_author_name
;
Stackhouse, Chavis A.;Bugaris, Daniel E.;Khalsa, Hargobind S.;Zhao, 
Qingbiao;Bharathy, Muktha;zur Loye, Hans-Conrad
;
_cell_length_a                     3.7551(5)
_cell_length_b                     3.7551(5)
_cell_length_c                     12.848(3)
_cell_angle_alpha                  90.
_cell_angle_beta                   90.
_cell_angle_gamma                  90.
_cell_volume                       181.17
_cell_formula_units_Z              2
_symmetry_space_group_name_H-M     'P 4/n m m Z'
_symmetry_Int_Tables_number        129
_refine_ls_R_factor_all            .0135
loop_
_symmetry_equiv_pos_site_id
_symmetry_equiv_pos_as_xyz
  1	'y+.5, x+.5, -z'
  2	'-y, x+.5, -z'
  3	'y+.5, -x, -z'
  4	'-y, -x, -z'
  5	'x+.5, y+.5, -z'
  6	'-x, y+.5, -z'
  7	'x+.5, -y, -z'
  8	'-x, -y, -z'
  9	'-y+.5, -x+.5, z'
 10	'y, -x+.5, z'
 11	'-y+.5, x, z'
 12	'y, x, z'
 13	'-x+.5, -y+.5, z'
 14	'x, -y+.5, z'
 15	'-x+.5, y, z'
 16	'x, y, z'
loop_
_atom_type_symbol
_atom_type_oxidation_number
Na1+	1
Nd3+	3
O2-	-2
Ti4+	4
loop_
_atom_site_label
_atom_site_type_symbol
_atom_site_symmetry_multiplicity
_atom_site_Wyckoff_symbol
_atom_site_fract_x
_atom_site_fract_y
_atom_site_fract_z
_atom_site_occupancy
_atom_site_attached_hydrogens
_atom_site_U_iso_or_equiv
Nd1 Nd3+ 2 c 0.2500 0.2500 0.891297(12) 1 0 0.00763(10) 
Ti1 Ti4+ 2 c 0.2500 0.2500 0.27078(5) 1 0 0.00648(13) 
Na1 Na1+ 2 c 0.2500 0.2500 0.58539(18) 1 0 0.0207(3) 
O1 O2- 4 f 0.7500 0.2500 0.23521(15) 1 0 0.0101(3) 
O2 O2- 2 c 0.2500 0.2500 0.0708(2) 1 0 0.0146(5) 
O3 O2- 2 c 0.2500 0.2500 0.4057(3) 1 0 0.0146(5) 

loop_
_atom_site_aniso_label
_atom_site_aniso_type_symbol
_atom_site_aniso_U_11
_atom_site_aniso_U_22
_atom_site_aniso_U_33
_atom_site_aniso_U_12
_atom_site_aniso_U_13
_atom_site_aniso_U_23
Nd1 Nd3+ 0.00867(11) 0.00867(11) 0.00554(14) 0.000 0.000 0.000
Ti1 Ti4+ 0.00623(15) 0.00623(15) 0.0070(3) 0.000 0.000 0.000
Na1 Na1+ 0.0245(6) 0.0245(6) 0.0132(7) 0.000 0.000 0.000
O1 O2- 0.0056(6) 0.0087(6) 0.0160(8) 0.000 0.000 0.000
O2 O2- 0.0176(7) 0.0176(7) 0.0085(11) 0.000 0.000 0.000
O3 O2- 0.0181(9) 0.0181(9) 0.0077(9) 0.000 0.000 0.000
#End of data_422049-ICSD


