data_290140-ICSD
#?2014 by Fachinformationszentrum Karlsruhe, and the U.S. Secretary of 
#Commerce on behalf of the United States.  All rights reserved.
_database_code_ICSD                290140
_audit_creation_date               2013/08/01
_chemical_name_systematic
;
Calcium Vanydyl(IV) Tetrasilicate Tetrahydrate
;
_chemical_formula_structural       'Ca (V O) (Si4 O10) (H2 O)4'
_chemical_formula_sum              'H8 Ca1 O15 Si4 V1'
_chemical_name_mineral             Cavansite
_publ_section_title
;
In situ dehydration behavior of zeolite-like cavansite: A single-
crystal X-ray study
;
loop_
_citation_id
_citation_journal_abbrev
_citation_year
_citation_journal_volume
_citation_journal_issue
_citation_page_first
_citation_page_last
_citation_journal_id_ASTM
primary 'American Mineralogist' 2012 97 11-12 1874 1880 AMMIAY
_publ_author_name
;
Danisi, R.M.;Armbruster, T.;Lazic, B.
;
_cell_length_a                     9.6329(2)
_cell_length_b                     13.6606(2)
_cell_length_c                     9.7949(2)
_cell_angle_alpha                  90.00
_cell_angle_beta                   90.00
_cell_angle_gamma                  90.00
_cell_volume                       1288.92
_cell_formula_units_Z              4
_symmetry_space_group_name_H-M     'P n m a'
_symmetry_Int_Tables_number        62
_refine_ls_R_factor_all            .0232
loop_
_symmetry_equiv_pos_site_id
_symmetry_equiv_pos_as_xyz
  1	'x+.5, y, -z+.5'
  2	'x, -y+.5, z'
  3	'-x+.5, y+.5, z+.5'
  4	'-x, -y, -z'
  5	'-x+.5, -y, z+.5'
  6	'-x, y+.5, -z'
  7	'x+.5, -y+.5, -z+.5'
  8	'x, y, z'
loop_
_atom_type_symbol
_atom_type_oxidation_number
Ca2+	2
H1+	1
O2-	-2
Si4+	4
V4+	4
loop_
_atom_site_label
_atom_site_type_symbol
_atom_site_symmetry_multiplicity
_atom_site_Wyckoff_symbol
_atom_site_fract_x
_atom_site_fract_y
_atom_site_fract_z
_atom_site_occupancy
_atom_site_attached_hydrogens
_atom_site_U_iso_or_equiv
V1 V4+ 4 c 0.02594(4) 0.2500 0.09618(4) 1 0 0.01042(9) 
Ca1 Ca2+ 4 c -0.38231(4) 0.7500 -0.08263(5) 1 0 0.01275(10) 
Si1 Si4+ 8 d -0.18305(4) 0.53318(3) -0.09496(4) 1 0 0.00808(9) 
Si2 Si4+ 8 d -0.10728(4) 0.45691(3) 0.18382(4) 1 0 0.00766(9) 
O1 O2- 8 d -0.17796(11) 0.65027(8) -0.08597(11) 1 0 0.0128(2) 
O2 O2- 8 d -0.08731(12) 0.34231(8) 0.20600(11) 1 0 0.0137(2) 
O3 O2- 8 d -0.20339(11) 0.47968(9) 0.05164(11) 1 0 0.0144(2) 
O4 O2- 8 d -0.04191(11) 0.48914(8) -0.16578(11) 1 0 0.0122(2) 
O5 O2- 8 d -0.31477(11) 0.49541(8) -0.18514(11) 1 0 0.0112(2) 
O6 O2- 4 c -0.0430(2) 0.2500 -0.05191(19) 1 0 0.0237(4) 
O7 O2- 8 d -0.46993(18) 0.88139(14) 0.05339(19) 1 0 0.0442(4) 
H1 H1+ 8 d -0.421(3) 0.869(3) 0.136(2) 1 0 0.080 
H2 H1+ 8 d -0.5615(16) 0.891(3) 0.081(4) 1 0 0.080 
O8 O2- 4 c -0.6383(2) 0.7500 -0.1258(3) 1 0 0.0374(5) 
H3 H1+ 8 d -0.685(3) 0.6944(17) -0.093(3) 1 0 0.080 
O9 O2- 4 c -0.2832(4) 0.7500 0.1898(4) 1 0 0.0775(11) 
H4 H1+ 4 c -0.330(5) 0.7500 0.276(3) 1 0 0.080 
H5 H1+ 4 c -0.192(2) 0.7500 0.230(5) 1 0 0.080 

loop_
_atom_site_aniso_label
_atom_site_aniso_type_symbol
_atom_site_aniso_U_11
_atom_site_aniso_U_22
_atom_site_aniso_U_33
_atom_site_aniso_U_12
_atom_site_aniso_U_13
_atom_site_aniso_U_23
V1 V4+ 0.00849(16) 0.00946(16) 0.01330(17) 0.000 0.00076(11) 0.000
Ca1 Ca2+ 0.01036(19) 0.01118(19) 0.0167(2) 0.000 0.00069(14) 0.000
Si1 Si4+ 0.00635(17) 0.00920(18) 0.00869(18) 0.00008(13) -0.00063(12) 
0.00054(13)
Si2 Si4+ 0.00691(17) 0.00834(17) 0.00772(17) 0.00042(13) 0.00091(12) 
0.00053(12)
O1 O2- 0.0093(5) 0.0098(5) 0.0193(5) -0.0007(4) 0.0002(4) -0.0007(4)
O2 O2- 0.0154(5) 0.0091(5) 0.0168(5) 0.0021(4) 0.0052(4) 0.0015(4)
O3 O2- 0.0122(5) 0.0212(6) 0.0099(5) -0.0003(4) -0.0014(4) 0.0039(4)
O4 O2- 0.0082(4) 0.0113(5) 0.0172(5) -0.0001(4) 0.0026(4) -0.0015(4)
O5 O2- 0.0103(5) 0.0122(5) 0.0111(5) -0.0013(4) -0.0039(4) 0.0019(4)
O6 O2- 0.0231(9) 0.0287(10) 0.0192(8) 0.000 -0.0052(7) 0.000
O7 O2- 0.0340(9) 0.0489(11) 0.0498(10) 0.0048(7) 0.0089(7) -0.0273(9)
O8 O2- 0.0146(9) 0.0319(11) 0.0658(16) 0.000 -0.0048(10) 0.000
O9 O2- 0.066(2) 0.109(3) 0.058(2) 0.000 0.0091(17) 0.000
#End of data_290140-ICSD


