data_27896-ICSD
#?2014 by Fachinformationszentrum Karlsruhe, and the U.S. Secretary of 
#Commerce on behalf of the United States.  All rights reserved.
_database_code_ICSD                27896
_audit_creation_date               1980/01/01
_audit_update_record               2006/04/01
_chemical_name_systematic          'Lithium Yttrium Fluoride'
_chemical_formula_structural       'Li Y F4'
_chemical_formula_sum              'F4 Li1 Y1'
_publ_section_title
;
Phase equilibria in the system (Li F) (Y F3)
;
loop_
_citation_id
_citation_journal_abbrev
_citation_year
_citation_journal_volume
_citation_page_first
_citation_page_last
_citation_journal_id_ASTM
primary 'Journal of Physical Chemistry' 1961 65 1096 1099 JPCHAX
_publ_author_name
;
Thoma, R.E.;Weaver, C.F.;Friedman, H.A.;Insley, H.;Harris, 
L.A.;Yakel, H.L.jr.
;
_cell_length_a                     5.26(3)
_cell_length_b                     5.26(3)
_cell_length_c                     10.94(3)
_cell_angle_alpha                  90.
_cell_angle_beta                   90.
_cell_angle_gamma                  90.
_cell_volume                       302.68
_cell_formula_units_Z              4
_symmetry_space_group_name_H-M     'I 41/a S'
_symmetry_Int_Tables_number        88
loop_
_symmetry_equiv_pos_site_id
_symmetry_equiv_pos_as_xyz
  1	'y, -x+.5, z+.25'
  2	'-y, x+.5, z+.25'
  3	'y, -x, -z'
  4	'-y, x, -z'
  5	'-x, -y+.5, -z+.25'
  6	'x, y+.5, -z+.25'
  7	'-x, -y, z'
  8	'x, y, z'
  9	'y+.5, -x, z+.75'
 10	'-y+.5, x, z+.75'
 11	'y+.5, -x+.5, -z+.5'
 12	'-y+.5, x+.5, -z+.5'
 13	'-x+.5, -y, -z+.75'
 14	'x+.5, y, -z+.75'
 15	'-x+.5, -y+.5, z+.5'
 16	'x+.5, y+.5, z+.5'
loop_
_atom_type_symbol
_atom_type_oxidation_number
F1-	-1
Li1+	1
Y3+	3
loop_
_atom_site_label
_atom_site_type_symbol
_atom_site_symmetry_multiplicity
_atom_site_Wyckoff_symbol
_atom_site_fract_x
_atom_site_fract_y
_atom_site_fract_z
_atom_site_occupancy
_atom_site_attached_hydrogens
Y1 Y3+ 4 b 0 0 0.5 1. 0 
Li1 Li1+ 4 a 0 0 0 1. 0 
F1 F1- 16 f 0.25 0.15 0.075 1. 0 

#End of data_27896-ICSD


