data_31983-ICSD
#?2014 by Fachinformationszentrum Karlsruhe, and the U.S. Secretary of 
#Commerce on behalf of the United States.  All rights reserved.
_database_code_ICSD                31983
_audit_creation_date               1982/12/31
_audit_update_record               2012/08/01
_chemical_name_systematic          'Potassium Dioxomanganate(III)'
_chemical_formula_structural       'K Mn O2'
_chemical_formula_sum              'K1 Mn1 O2'
_publ_section_title                'Zur Kenntnis von K Mn O2'
loop_
_citation_id
_citation_journal_abbrev
_citation_year
_citation_journal_volume
_citation_page_first
_citation_page_last
_citation_journal_id_ASTM
primary 'Zeitschrift fuer Anorganische und Allgemeine Chemie (1950) (DE)'
 1982 490 101 110 ZAACAB
_publ_author_name                  'Jansen, M.;Chang, F.M.;Hoppe, R.'
_cell_length_a                     10.142(3)
_cell_length_b                     11.309(7)
_cell_length_c                     6.269(4)
_cell_angle_alpha                  90.
_cell_angle_beta                   95.
_cell_angle_gamma                  90.
_cell_volume                       716.29
_cell_formula_units_Z              12
_symmetry_space_group_name_H-M     'P 1 21/m 1'
_symmetry_Int_Tables_number        11
_refine_ls_R_factor_all            .089
loop_
_symmetry_equiv_pos_site_id
_symmetry_equiv_pos_as_xyz
  1	'x, -y+.5, z'
  2	'-x, -y, -z'
  3	'-x, y+.5, -z'
  4	'x, y, z'
loop_
_atom_type_symbol
_atom_type_oxidation_number
K1+	1
Mn3+	3
O2-	-2
loop_
_atom_site_label
_atom_site_type_symbol
_atom_site_symmetry_multiplicity
_atom_site_Wyckoff_symbol
_atom_site_fract_x
_atom_site_fract_y
_atom_site_fract_z
_atom_site_occupancy
_atom_site_attached_hydrogens
K1 K1+ 2 e 0.1757(4) 0.25 0.0747(7) 1. 0 
K2 K1+ 4 f 0.1173(3) 0.6040(3) 0.0628(5) 1. 0 
K3 K1+ 4 f 0.4142(3) 0.4615(3) 0.1871(5) 1. 0 
K4 K1+ 2 e 0.4233(4) 0.75 0.1684(7) 1. 0 
Mn1 Mn3+ 4 f 0.2674(2) 0.5013(2) 0.6360(3) 1. 0 
Mn2 Mn3+ 2 e 0.2785(3) 0.75 -.3593(5) 1. 0 
Mn3 Mn3+ 2 e 0.2710(3) 0.25 -.3814(5) 1. 0 
Mn4 Mn3+ 4 f -.0107(2) -.3745(2) 0.5138(3) 1. 0 
O1 O2- 4 f 0.0562(8) 0.4975(7) 0.6935(13) 1. 0 
O2 O2- 2 e -.0554(12) 0.25 0.2960(23) 1. 0 
O3 O2- 2 e 0.0540(13) 0.25 0.6886(22) 1. 0 
O4 O2- 4 f 0.2279(8) 0.1201(7) 0.4220(13) 1. 0 
O5 O2- 4 f 0.2616(10) 0.6259(9) 0.4368(15) 1. 0 
O6 O2- 4 f 0.3301(7) 0.6195(8) 0.8333(14) 1. 0 
O7 O2- 4 f 0.3436(9) 0.1265(8) 0.8048(14) 1. 0 

loop_
_atom_site_aniso_label
_atom_site_aniso_type_symbol
_atom_site_aniso_U_11
_atom_site_aniso_U_22
_atom_site_aniso_U_33
_atom_site_aniso_U_12
_atom_site_aniso_U_13
_atom_site_aniso_U_23
K1 K1+ 0.0177(17) 0.0191(18) 0.0087(17) 0 -.0027(14) 0
K2 K1+ 0.0184(12) 0.0207(14) 0.132(13) -.0063(10) 0.0033(10) -.0021(11)
K3 K1+ 0.0175(12) 0.0196(13) 0.0171(14) 0.0001(11) 0.0018(11) 0.0004(11)
K4 K1+ 0.0135(16) 0.0082(15) 0.0188(19) 0 -.0033(15) 0
Mn1 Mn3+ 0.0120(8) 0.0038(7) 0.0084(10) 0.0012(7) -.0008(7) 0.0006(7)
Mn2 Mn3+ 0.0110(12) 0.0038(11) 0.0043(13) 0 0 0
Mn3 Mn3+ 0.0076(11) 0.0034(11) 0.0074(13) 0 0.0002(10) 0
Mn4 Mn3+ 0.0113(7) 0.0040(6) 0.0091(8) 0.0000(7) -.0010(6) -.0006(8)
O1 O2- 0.0133(30) 0.0016(27) 0.0054(30) -.0013(26) -.0063(27) -.0010(27)
O2 O2- 0.0037(37) 0.0216(44) 0.0233(46) 0 0.0036(39) 0
O3 O2- 0.0194(42) 0.0011(37) 0.0202(46) 0 -.0005(40) 0
O4 O2- 0.0172(30) 0.0055(29) 0.0062(29) 0.0047(29) -.0019(26) -.0010(29)
O5 O2- 0.0375(39) 0.0080(31) 0.0134(34) -.0054(34) 0.0008(32) 0.0065(33)
O6 O2- 0.0093(28) 0.0065(30) 0.0147(33) -.0067(27) -.0023(26) -.0007(30)
O7 O2- 0.0207(33) 0.0054(29) 0.0157(32) -.0023(30) 0.0021(29) 0.0072(32)
#End of data_31983-ICSD


