data_62298-ICSD
#?2014 by Fachinformationszentrum Karlsruhe, and the U.S. Secretary of 
#Commerce on behalf of the United States.  All rights reserved.
_database_code_ICSD                62298
_audit_creation_date               1988/07/15
_audit_update_record               2012/08/01
_chemical_name_systematic
;
Trilithium Discandium Tris(phosphate(V))
;
_chemical_formula_structural       'Li3 Sc2 (P O4)3'
_chemical_formula_sum              'Li3 O12 P3 Sc2'
_publ_section_title
;
X-ray structural investigation of microtwinning of crystals of Li3 
Sc2 (P O4)3 and Li3 Fe2 (P O4)3
;
loop_
_citation_id
_citation_journal_abbrev
_citation_year
_citation_journal_volume
_citation_page_first
_citation_page_last
_citation_journal_id_ASTM
primary Kristallografiya 1986 31 488 494 KRISAJ
2 'Soviet Physics, Crystallography (= Kristallografiya)'
 1986 31 287 291 SPHCA6
3 'Golden Book of Phase Transitions, Wroclaw' 2002 1 1 123 GBOPT5
_publ_author_name
;
Kondratyuk, I.P.;Sirota, M.I.;Maksimov, B.A.;Muradyan, L.A.;Simonov, 
V.I.
;
_cell_length_a                     8.853
_cell_length_b                     12.273
_cell_length_c                     8.802
_cell_angle_alpha                  90.
_cell_angle_beta                   90.
_cell_angle_gamma                  90.00
_cell_volume                       956.36
_cell_formula_units_Z              4
_symmetry_space_group_name_H-M     'P 1 1 21/n'
_symmetry_Int_Tables_number        14
_refine_ls_R_factor_all            .03
loop_
_symmetry_equiv_pos_site_id
_symmetry_equiv_pos_as_xyz
  1	'x+.5, y+.5, -z+.5'
  2	'-x, -y, -z'
  3	'-x+.5, -y+.5, z+.5'
  4	'x, y, z'
loop_
_atom_type_symbol
_atom_type_oxidation_number
Li1+	1
O2-	-2
P5+	5
Sc3+	3
loop_
_atom_site_label
_atom_site_type_symbol
_atom_site_symmetry_multiplicity
_atom_site_Wyckoff_symbol
_atom_site_fract_x
_atom_site_fract_y
_atom_site_fract_z
_atom_site_occupancy
_atom_site_attached_hydrogens
_atom_site_B_iso_or_equiv
Sc1 Sc3+ 4 e 0.24507(7) 0.10738(6) 0.45259(7) 1. 0 0.34 
Sc2 Sc3+ 4 e 0.75254(8) 0.39373(6) 0.46678(7) 1. 0 0.46 
P1 P5+ 4 e 0.10378(9) 0.15234(7) 0.09624(9) 1. 0 0.37 
P2 P5+ 4 e 0.60189(9) 0.34741(7) 0.11347(9) 1. 0 0.43 
P3 P5+ 4 e 0.03784(9) 0.48959(7) 0.24551(9) 1. 0 0.39 
O1 O2- 4 e 0.4306(3) 0.3352(2) 0.0954(3) 1. 0 0.87 
O2 O2- 4 e 0.9297(2) 0.1636(2) 0.0991(3) 1. 0 0.82 
O3 O2- 4 e 0.3423(3) 0.2684(2) 0.4728(3) 1. 0 0.76 
O4 O2- 4 e 0.8189(3) 0.2234(2) 0.4900(3) 1. 0 0.65 
O5 O2- 4 e 0.6496(3) 0.4651(2) 0.0913(3) 1. 0 0.92 
O6 O2- 4 e 0.1539(3) 0.0386(2) 0.0598(3) 1. 0 0.93 
O7 O2- 4 e 0.4575(3) 0.0701(2) 0.3635(2) 1. 0 0.7 
O8 O2- 4 e 0.9280(3) 0.4055(2) 0.3104(3) 1. 0 0.81 
O9 O2- 4 e 0.1631(3) 0.4270(2) 0.1641(3) 1. 0 0.7 
O10 O2- 4 e 0.6100(3) 0.0601(2) 0.1314(3) 1. 0 0.99 
O11 O2- 4 e 0.1603(3) 0.1873(2) 0.2547(3) 1. 0 0.73 
O12 O2- 4 e 0.6451(3) 0.3097(3) 0.2740(3) 1. 0 0.74 
Li1 Li1+ 4 e 0.292(1) 0.322(1) 0.270(2) 1. 0 1.8 
Li2 Li1+ 4 e 0.581(2) 0.195(1) 0.408(2) 1. 0 2.6 
Li3 Li1+ 4 e 0.918(2) 0.246(1) 0.289(2) 1. 0 3.1 

#End of data_62298-ICSD


