data_423175-ICSD
#?2014 by Fachinformationszentrum Karlsruhe, and the U.S. Secretary of 
#Commerce on behalf of the United States.  All rights reserved.
_database_code_ICSD                423175
_audit_creation_date               2012/08/01
_chemical_name_systematic
;
Indium Tripotassium Tetramolybdate(VI)
;
_chemical_formula_structural       'In K3 Mo4 O15'
_chemical_formula_sum              'In1 K3 Mo4 O15'
_publ_section_title
;
Phase formation in the Li2 Mo O4 - K2 Mo O4 - In2 (Mo O4)3 system and 
crystal structures of new compounds K3 In Mo4 O15 and Li K2 In (Mo 
O4)3
;
loop_
_citation_id
_citation_journal_abbrev
_citation_year
_citation_journal_volume
_citation_journal_issue
_citation_page_first
_citation_page_last
_citation_journal_id_ASTM
primary 'Journal of Solid State Chemistry' 2012 187 3 276 281 JSSCBI
_publ_author_name
;
Khal'baeva, K.M.;Solodovnikov, S.F.;Khaikina, E.G.;Kadyrova, 
Y.M.;Solodovnikova, Z.A.;Basovich, O.M.
;
_cell_length_a                     33.2905(8)
_cell_length_b                     5.86100(10)
_cell_length_c                     15.8967(4)
_cell_angle_alpha                  90.00
_cell_angle_beta                   90.7250(10)
_cell_angle_gamma                  90.00
_cell_volume                       3101.45
_cell_formula_units_Z              8
_symmetry_space_group_name_H-M     'C 1 2/c 1'
_symmetry_Int_Tables_number        15
_refine_ls_R_factor_all            .0407
loop_
_symmetry_equiv_pos_site_id
_symmetry_equiv_pos_as_xyz
  1	'x, -y, z+.5'
  2	'-x, -y, -z'
  3	'-x, y, -z+.5'
  4	'x, y, z'
  5	'x+.5, -y+.5, z+.5'
  6	'-x+.5, -y+.5, -z'
  7	'-x+.5, y+.5, -z+.5'
  8	'x+.5, y+.5, z'
loop_
_atom_type_symbol
_atom_type_oxidation_number
In3+	3
K1+	1
Mo6+	6
O2-	-2
loop_
_atom_site_label
_atom_site_type_symbol
_atom_site_symmetry_multiplicity
_atom_site_Wyckoff_symbol
_atom_site_fract_x
_atom_site_fract_y
_atom_site_fract_z
_atom_site_occupancy
_atom_site_attached_hydrogens
_atom_site_U_iso_or_equiv
Mo1 Mo6+ 8 f 0.06587(2) -0.50440(8) 0.23256(4) 1 0 0.01631(16) 
Mo2 Mo6+ 8 f 0.35184(2) 0.51190(8) -0.11356(4) 1 0 0.01633(16) 
Mo3 Mo6+ 8 f 0.21737(2) -0.01248(8) -0.15157(4) 1 0 0.01414(16) 
Mo4 Mo6+ 8 f 0.05687(2) 0.46590(11) -0.00135(4) 1 0 0.02036(17) 
In1 In3+ 8 f 0.319989(16) 0.00076(5) 0.25959(3) 1 0 0.01361(15) 
K1 K1+ 8 f 0.31420(6) 0.0340(3) 0.01063(12) 1 0 0.0264(3) 
K2 K1+ 8 f 0.01360(6) -0.0125(2) 0.12890(14) 1 0 0.0264(4) 
K3 K1+ 8 f 0.10372(7) -0.0230(3) -0.13628(15) 1 0 0.0340(4) 
O1 O2- 8 f 0.04373(17) -0.2730(10) 0.2801(4) 1 0 0.0299(11) 
O2 O2- 8 f 0.11668(19) -0.5138(8) 0.2617(5) 1 0 0.0270(13) 
O3 O2- 8 f 0.04312(17) -0.7464(10) 0.2709(4) 1 0 0.0303(12) 
O4 O2- 8 f 0.0562(3) -0.4851(8) 0.1173(4) 1 0 0.0343(16) 
O5 O2- 8 f 0.18325(14) 0.2201(8) -0.1724(3) 1 0 0.0234(10) 
O6 O2- 8 f 0.18901(14) -0.2742(7) -0.1552(3) 1 0 0.0216(10) 
O7 O2- 8 f 0.3539(2) 0.4703(9) -0.0057(5) 1 0 0.0323(14) 
O8 O2- 8 f 0.25599(18) -0.0174(7) -0.2254(5) 1 0 0.0232(12) 
O9 O2- 8 f 0.2368(2) 0.0220(8) -0.0524(5) 1 0 0.0321(14) 
O10 O2- 8 f 0.32851(18) 0.7822(8) -0.1358(3) 1 0 0.0290(11) 
O11 O2- 8 f 0.04808(16) 0.1834(9) -0.0288(3) 1 0 0.0346(11) 
O12 O2- 8 f 0.32323(16) 0.2856(8) -0.1586(4) 1 0 0.0305(12) 
O13 O2- 8 f 0.1037(2) 0.5390(11) -0.0377(7) 1 0 0.051(2) 
O14 O2- 8 f 0.3995(2) 0.5056(10) -0.1547(7) 1 0 0.046(2) 
O15 O2- 8 f 0.02312(19) 0.6445(11) -0.0516(4) 1 0 0.0454(14) 

loop_
_atom_site_aniso_label
_atom_site_aniso_type_symbol
_atom_site_aniso_U_11
_atom_site_aniso_U_22
_atom_site_aniso_U_33
_atom_site_aniso_U_12
_atom_site_aniso_U_13
_atom_site_aniso_U_23
Mo1 Mo6+ 0.0124(3) 0.0217(3) 0.0148(3) -0.00018(15) -0.0003(2) -0.00220(15)
Mo2 Mo6+ 0.0167(3) 0.0158(2) 0.0165(3) -0.00024(15) -0.0013(2) -0.00056(15)
Mo3 Mo6+ 0.0122(3) 0.0132(2) 0.0170(3) -0.00028(15) -0.0005(2) -0.00026(14)
Mo4 Mo6+ 0.0239(3) 0.0214(3) 0.0157(3) 0.0013(2) 0.0006(2) 0.00049(19)
In1 In3+ 0.0128(2) 0.0126(2) 0.0154(3) 0.00024(12) 0.00006(18) 0.00016(11)
K1 K1+ 0.0281(8) 0.0312(7) 0.0197(7) -0.0039(6) 0.0004(6) -0.0006(5)
K2 K1+ 0.0232(8) 0.0278(7) 0.0281(9) -0.0002(5) -0.0020(7) 0.0034(5)
K3 K1+ 0.0266(9) 0.0460(10) 0.0291(9) 0.0040(6) -0.0062(8) -0.0077(6)
O1 O2- 0.027(2) 0.032(2) 0.031(3) 0.009(2) 0.004(2) -0.005(2)
O2 O2- 0.011(2) 0.039(3) 0.031(3) -0.0018(17) -0.003(2) -0.0019(19)
O3 O2- 0.024(2) 0.031(2) 0.036(3) -0.008(2) 0.006(2) 0.001(2)
O4 O2- 0.045(4) 0.040(3) 0.017(3) 0.005(2) -0.006(3) -0.0033(18)
O5 O2- 0.022(2) 0.0213(19) 0.027(2) 0.0053(18) 0.0068(18) 0.0100(19)
O6 O2- 0.027(2) 0.0175(18) 0.020(2) -0.0080(18) 0.0068(18) -0.0043(17)
O7 O2- 0.042(4) 0.033(3) 0.022(3) -0.003(2) -0.012(3) 0.006(2)
O8 O2- 0.014(2) 0.022(2) 0.034(3) -0.0008(15) 0.003(2) 0.0023(17)
O9 O2- 0.029(3) 0.038(3) 0.029(3) 0.000(2) -0.012(3) -0.007(2)
O10 O2- 0.045(3) 0.021(2) 0.022(2) 0.005(2) 0.002(2) 0.0049(19)
O11 O2- 0.037(3) 0.031(3) 0.036(3) 0.000(2) 0.003(2) -0.008(2)
O12 O2- 0.033(3) 0.021(2) 0.037(3) 0.000(2) -0.003(2) -0.012(2)
O13 O2- 0.031(3) 0.051(4) 0.073(6) 0.000(3) 0.017(4) 0.011(4)
O14 O2- 0.019(3) 0.062(5) 0.057(6) 0.001(2) 0.011(4) 0.000(3)
O15 O2- 0.060(4) 0.041(3) 0.036(3) 0.019(3) 0.003(3) 0.011(3)
#End of data_423175-ICSD


