data_28480-ICSD
#?2014 by Fachinformationszentrum Karlsruhe, and the U.S. Secretary of 
#Commerce on behalf of the United States.  All rights reserved.
_database_code_ICSD                28480
_audit_creation_date               1980/01/01
_audit_update_record               2007/08/01
_chemical_name_systematic
;
Tetracalcium Hexaaluminate Sulfate(VI)
;
_chemical_formula_structural       'Ca4 (Al6 O12) (S O4)'
_chemical_formula_sum              'Al6 Ca4 O16 S1'
_chemical_name_mineral
;
Ye'elimite
;
_publ_section_title
;
The synthesis and crystallography of a group of new compounds 
belonging to the hauyne type structure
;
loop_
_citation_id
_citation_journal_abbrev
_citation_year
_citation_journal_volume
_citation_page_first
_citation_page_last
_citation_journal_id_ASTM
primary 'Journal of the Ceramic Association of Japan' 1965 73 1 8 JCAJA6
2 'Journal of the Ceramic Society of Japan' 1965 73 1 8 JOCSJY
3 'Golden Book of Phase Transitions, Wroclaw' 2002 1 1 123 GBOPT5
_publ_author_name                  'Kondo, R.'
_cell_length_a                     9.19
_cell_length_b                     9.19
_cell_length_c                     9.19
_cell_angle_alpha                  90.
_cell_angle_beta                   90.
_cell_angle_gamma                  90.
_cell_volume                       776.15
_cell_formula_units_Z              2
_symmetry_space_group_name_H-M     'I 2 3'
_symmetry_Int_Tables_number        197
_refine_ls_R_factor_all            .199
loop_
_symmetry_equiv_pos_site_id
_symmetry_equiv_pos_as_xyz
  1	'-z, -x, y'
  2	'-y, -z, x'
  3	'-x, -y, z'
  4	'-z, x, -y'
  5	'-y, z, -x'
  6	'-x, y, -z'
  7	'z, -x, -y'
  8	'y, -z, -x'
  9	'x, -y, -z'
 10	'z, x, y'
 11	'y, z, x'
 12	'x, y, z'
 13	'-z+.5, -x+.5, y+.5'
 14	'-y+.5, -z+.5, x+.5'
 15	'-x+.5, -y+.5, z+.5'
 16	'-z+.5, x+.5, -y+.5'
 17	'-y+.5, z+.5, -x+.5'
 18	'-x+.5, y+.5, -z+.5'
 19	'z+.5, -x+.5, -y+.5'
 20	'y+.5, -z+.5, -x+.5'
 21	'x+.5, -y+.5, -z+.5'
 22	'z+.5, x+.5, y+.5'
 23	'y+.5, z+.5, x+.5'
 24	'x+.5, y+.5, z+.5'
loop_
_atom_type_symbol
_atom_type_oxidation_number
Al3+	3
Ca2+	2
O2-	-2
S6+	6
loop_
_atom_site_label
_atom_site_type_symbol
_atom_site_symmetry_multiplicity
_atom_site_Wyckoff_symbol
_atom_site_fract_x
_atom_site_fract_y
_atom_site_fract_z
_atom_site_occupancy
_atom_site_attached_hydrogens
Ca1 Ca2+ 8 c 0.21 0.21 0.21 1. 0 
Al1 Al3+ 12 e 0.25 0.5 0 1. 0 
S1 S6+ 2 a 0 0 0 1. 0 
O1 O2- 8 c 0.9 0.9 0.9 1. 0 
O2 O2- 24 f 0.155 0.455 0.14 1. 0 

#End of data_28480-ICSD


