data_155222-ICSD
#?2014 by Fachinformationszentrum Karlsruhe, and the U.S. Secretary of 
#Commerce on behalf of the United States.  All rights reserved.
_database_code_ICSD                155222
_audit_creation_date               2007/04/01
_chemical_name_systematic          'Dicalcium Magnesium Tungstate'
_chemical_formula_structural       'Ca2 Mg (W O6)'
_chemical_formula_sum              'Ca2 Mg1 O6 W1'
_publ_section_title
;
Crystal structure and thermal expansion behavior of Ca2 Mg W O6
;
loop_
_citation_id
_citation_journal_abbrev
_citation_year
_citation_journal_volume
_citation_page_first
_citation_page_last
_citation_journal_id_ASTM
primary 'Materials Chemistry and Physics' 2006 98 486 493 MCHPDR
_publ_author_name
;
Patwe, S.J.;Achary, S.N.;Mathews, M.D.;Tyagi, A.K.
;
_cell_length_a                     5.5266(2)
_cell_length_b                     5.5733(2)
_cell_length_c                     7.8418(4)
_cell_angle_alpha                  90.
_cell_angle_beta                   89.98(1)
_cell_angle_gamma                  90.
_cell_volume                       241.54
_cell_formula_units_Z              2
_symmetry_space_group_name_H-M     'P 1 21/n 1'
_symmetry_Int_Tables_number        14
_refine_ls_R_factor_all            .0572
loop_
_symmetry_equiv_pos_site_id
_symmetry_equiv_pos_as_xyz
  1	'-x+.5, y+.5, -z+.5'
  2	'-x, -y, -z'
  3	'x+.5, -y+.5, z+.5'
  4	'x, y, z'
loop_
_atom_type_symbol
_atom_type_oxidation_number
Ca2+	2
Mg2+	2
O2-	-2
W6+	6
loop_
_atom_site_label
_atom_site_type_symbol
_atom_site_symmetry_multiplicity
_atom_site_Wyckoff_symbol
_atom_site_fract_x
_atom_site_fract_y
_atom_site_fract_z
_atom_site_occupancy
_atom_site_attached_hydrogens
_atom_site_B_iso_or_equiv
Ca1 Ca2+ 4 e 0.966(2) 0.028(1) 0.249(1) 1. 0 2.13(6) 
Mg1 Mg2+ 2 c 0.5 0 0.5 1. 0 2.13(6) 
W1 W6+ 2 d 0.5 0 0 1. 0 2.13(6) 
O1 O2- 4 e 0.088(3) 0.488(3) 0.266(1) 1. 0 2.13(6) 
O2 O2- 4 e 0.706(2) 0.271(2) 0.054(3) 1. 0 2.13(6) 
O3 O2- 4 e 0.228(2) 0.207(2) 0.955(3) 1. 0 2.13(6) 

#End of data_155222-ICSD


