data_163991-ICSD
#?2014 by Fachinformationszentrum Karlsruhe, and the U.S. Secretary of 
#Commerce on behalf of the United States.  All rights reserved.
_database_code_ICSD                163991
_audit_creation_date               2009/08/01
_chemical_name_systematic
;
Tripotassium Iron Bis(molybdate) Dimolybdate
;
_chemical_formula_structural       'K3 Fe (Mo O4)2 (Mo2 O7)'
_chemical_formula_sum              'Fe1 K3 Mo4 O15'
_publ_section_title
;
Structural and vibrational properties of K3 Fe (Mo O4)2 (Mo2 O7) - a 
novel layered molybdate
;
loop_
_citation_id
_citation_journal_abbrev
_citation_year
_citation_journal_volume
_citation_page_first
_citation_page_last
_citation_journal_id_ASTM
primary 'Journal of Physics: Condensed Matter' 2009 21 095402-1 095402-8 JCOMEL
_publ_author_name
;
Maczka, M.;Pietraszko, A.;Paraguassu, W.;Souza Filho, A.G.;Freire, 
P.T.C.;Mendes Filho, J.;Hanuza, J.
;
_cell_length_a                     32.885(7)
_cell_length_b                     5.7220(11)
_cell_length_c                     15.852(3)
_cell_angle_alpha                  90.
_cell_angle_beta                   91.11
_cell_angle_gamma                  90.
_cell_volume                       2982.28
_cell_formula_units_Z              8
_symmetry_space_group_name_H-M     'C 1 2/c 1'
_symmetry_Int_Tables_number        15
_refine_ls_R_factor_all            .0428
loop_
_symmetry_equiv_pos_site_id
_symmetry_equiv_pos_as_xyz
  1	'x, -y, z+.5'
  2	'-x, -y, -z'
  3	'-x, y, -z+.5'
  4	'x, y, z'
  5	'x+.5, -y+.5, z+.5'
  6	'-x+.5, -y+.5, -z'
  7	'-x+.5, y+.5, -z+.5'
  8	'x+.5, y+.5, z'
loop_
_atom_type_symbol
_atom_type_oxidation_number
Fe3+	3
K1+	1
Mo6+	6
O2-	-2
loop_
_atom_site_label
_atom_site_type_symbol
_atom_site_symmetry_multiplicity
_atom_site_Wyckoff_symbol
_atom_site_fract_x
_atom_site_fract_y
_atom_site_fract_z
_atom_site_occupancy
_atom_site_attached_hydrogens
_atom_site_U_iso_or_equiv
Mo1 Mo6+ 8 f 0.1498(1) 0.4853(1) 0.1189(1) 1. 0 0.013(1) 
Mo2 Mo6+ 8 f 0.2185(1) -0.4875(1) 0.3422(1) 1. 0 0.011(1) 
Mo3 Mo6+ 8 f 0.0686(1) -0.0037(1) 0.2319(1) 1. 0 0.013(1) 
Mo4 Mo6+ 8 f 0.0569(1) 0.9621(1) -0.0020(1) 1. 0 0.017(1) 
Fe1 Fe3+ 8 f 0.1805(1) -0.0012(1) 0.2406(1) 1. 0 0.011(1) 
K1 K1+ 8 f 0.0131(1) -0.5152(1) 0.1308(1) 1. 0 0.022(1) 
K2 K1+ 8 f 0.1871(1) 0.9685(1) -0.0123(1) 1. 0 0.023(1) 
K3 K1+ 8 f 0.1063(1) -0.4777(1) 0.3654(1) 1. 0 0.027(1) 
O1 O2- 8 f 0.1208(1) -0.0190(2) 0.2609(1) 1. 0 0.021(1) 
O2 O2- 8 f 0.2591(1) -0.4796(2) 0.2716(1) 1. 0 0.019(1) 
O3 O2- 8 f 0.1905(1) -0.2182(1) 0.3400(1) 1. 0 0.016(1) 
O4 O2- 8 f 0.0467(1) 0.2317(3) 0.2808(1) 1. 0 0.022(1) 
O5 O2- 8 f 0.1495(1) 0.5266(3) 0.0108(1) 1. 0 0.027(1) 
O6 O2- 8 f 0.1839(1) -0.7227(1) 0.3195(1) 1. 0 0.019(1) 
O7 O2- 8 f 0.0453(1) -0.2500(3) 0.2694(1) 1. 0 0.023(1) 
O8 O2- 8 f 0.0581(1) 0.0202(3) 0.1165(1) 1. 0 0.027(1) 
O9 O2- 8 f 0.1721(1) 0.2035(2) 0.1420(1) 1. 0 0.022(1) 
O10 O2- 8 f 0.1786(1) 0.7180(3) 0.1668(1) 1. 0 0.025(1) 
O11 O2- 8 f 0.0492(1) 0.6694(3) -0.0251(1) 1. 0 0.027(1) 
O12 O2- 8 f 0.1010(1) 0.4938(3) 0.1560(1) 1. 0 0.038(1) 
O13 O2- 8 f 0.2376(1) -0.5264(3) 0.4426(1) 1. 0 0.028(1) 
O14 O2- 8 f 0.1037(1) 0.0355(3) -0.0390(1) 1. 0 0.040(1) 
O15 O2- 8 f 0.0221(1) 0.1391(3) -0.0541(1) 1. 0 0.037(1) 

#End of data_163991-ICSD


