data_81635-ICSD
#?2014 by Fachinformationszentrum Karlsruhe, and the U.S. Secretary of 
#Commerce on behalf of the United States.  All rights reserved.
_database_code_ICSD                81635
_audit_creation_date               1997/05/13
_audit_update_record               2006/04/01
_chemical_name_systematic          'Calcium Tin(IV) Silicate Oxide'
_chemical_formula_structural       'Ca Sn (Si O4) O'
_chemical_formula_sum              'Ca1 O5 Si1 Sn1'
_chemical_name_mineral             Malayaite
_publ_section_title
;
A synchrotron radiation, HRTEM, X-ray powder diffraction, and Raman 
spectroscopic study of malayaite, Ca Sn Si O5
;
loop_
_citation_id
_citation_journal_abbrev
_citation_year
_citation_journal_volume
_citation_page_first
_citation_page_last
_citation_journal_id_ASTM
primary 'American Mineralogist' 1996 81 595 602 AMMIAY
2 'Journal of the European Ceramic Society' 2003 23 429 435 JECSER
_publ_author_name
;
Groat, L.A.;Kek, S.;Bismayer, U.;Schmidt, C.;Krane, H.G.;Meyer, 
H.;Nistor, L.;van Tendeloo, G.
;
_cell_length_a                     7.1535(6)
_cell_length_b                     8.8933(8)
_cell_length_c                     6.6674(6)
_cell_angle_alpha                  90.
_cell_angle_beta                   113.342(7)
_cell_angle_gamma                  90.
_cell_volume                       389.45
_cell_formula_units_Z              4
_symmetry_space_group_name_H-M     'A 1 2/a 1'
_symmetry_Int_Tables_number        15
_refine_ls_R_factor_all            .015
loop_
_symmetry_equiv_pos_site_id
_symmetry_equiv_pos_as_xyz
  1	'-x+.5, y, -z'
  2	'-x, -y, -z'
  3	'x+.5, -y, z'
  4	'x, y, z'
  5	'-x+.5, y+.5, -z+.5'
  6	'-x, -y+.5, -z+.5'
  7	'x+.5, -y+.5, z+.5'
  8	'x, y+.5, z+.5'
loop_
_atom_type_symbol
_atom_type_oxidation_number
Ca2+	2
O2-	-2
Si4+	4
Sn4+	4
loop_
_atom_site_label
_atom_site_type_symbol
_atom_site_symmetry_multiplicity
_atom_site_Wyckoff_symbol
_atom_site_fract_x
_atom_site_fract_y
_atom_site_fract_z
_atom_site_occupancy
_atom_site_attached_hydrogens
Si1 Si4+ 4 e 0.75 0.68196(4) 0.5 1. 0 
Sn1 Sn4+ 4 b 0.5 0.5 0 1. 0 
Ca1 Ca2+ 4 e 0.25 0.66262(4) 0.5 1. 0 
O1 O2- 4 e 0.75 0.58681(4) 0 1. 0 
O2 O2- 8 f 0.91140(13) 0.56776(3) 0.67552(4) 1. 0 
O3 O2- 8 f 0.37224(4) 0.71195(3) 0.89032(4) 1. 0 

loop_
_atom_site_aniso_label
_atom_site_aniso_type_symbol
_atom_site_aniso_U_11
_atom_site_aniso_U_22
_atom_site_aniso_U_33
_atom_site_aniso_U_12
_atom_site_aniso_U_13
_atom_site_aniso_U_23
Si1 Si4+ 0.00409(8) 0.0042(1) 0.00476(7) 0 0.00151(5) 0
Sn1 Sn4+ 0.00362(6) 0.00417(6) 0.00494(5) -0.00018(1) 0.00143(4) 0.00004(4)
Ca1 Ca2+ 0.0324(1) 0.00486(8) 0.00753(7) 0 -0.00129(6) 0
O1 O2- 0.0054(1) 0.0057(1) 0.0134(1) 0 0.00470(9) 0
O2 O2- 0.00956(9) 0.00797(10) 0.00561(8) 0.00298(7) 0.00154(6) 0.00154(6)
O3 O2- 0.0091(1) 0.0060(1) 0.00758(9) 0.00252(6) 0.00414(7) 0.00072(6)
#End of data_81635-ICSD


