data_49529-ICSD
#?2014 by Fachinformationszentrum Karlsruhe, and the U.S. Secretary of 
#Commerce on behalf of the United States.  All rights reserved.
_database_code_ICSD                49529
_audit_creation_date               1984/12/31
_chemical_name_systematic          'Calcium Titanium(III) Fluoride'
_chemical_formula_structural       'Ca Ti F5'
_chemical_formula_sum              'Ca1 F5 Ti1'
_publ_section_title
;
Crystal Structures and Magnetic Properties of Ba Ti F5 and Ca Ti F5
;
loop_
_citation_id
_citation_journal_abbrev
_citation_year
_citation_journal_volume
_citation_page_first
_citation_page_last
_citation_journal_id_ASTM
primary 'Journal of Solid State Chemistry' 1984 52 12 21 JSSCBI
_publ_author_name                  'Eicher, S.M.;Greedan, J.E.'
_cell_length_a                     9.080(4)
_cell_length_b                     6.614(2)
_cell_length_c                     7.696(3)
_cell_angle_alpha                  90.
_cell_angle_beta                   115.16(3)
_cell_angle_gamma                  90.
_cell_volume                       418.33
_cell_formula_units_Z              4
_symmetry_space_group_name_H-M     'I 1 2/c 1'
_symmetry_Int_Tables_number        15
_refine_ls_R_factor_all            .0211
loop_
_symmetry_equiv_pos_site_id
_symmetry_equiv_pos_as_xyz
  1	'-x, y, -z+.5'
  2	'-x, -y, -z'
  3	'x, -y, z+.5'
  4	'x, y, z'
  5	'-x+.5, y+.5, -z'
  6	'-x+.5, -y+.5, -z+.5'
  7	'x+.5, -y+.5, z'
  8	'x+.5, y+.5, z+.5'
loop_
_atom_type_symbol
_atom_type_oxidation_number
Ca2+	2
F1-	-1
Ti3+	3
loop_
_atom_site_label
_atom_site_type_symbol
_atom_site_symmetry_multiplicity
_atom_site_Wyckoff_symbol
_atom_site_fract_x
_atom_site_fract_y
_atom_site_fract_z
_atom_site_occupancy
_atom_site_attached_hydrogens
Ca1 Ca2+ 4 e 0 0.5418(1) 0.25 1. 0 
Ti1 Ti3+ 4 a 0 0 0 1. 0 
F1 F1- 4 e 0 0.9096(2) 0.25 1. 0 
F2 F1- 8 f 0.0111(1) 0.7007(1) 0.5420(2) 1. 0 
F3 F1- 8 f -.2289(1) 0.9794(2) 0.3893(2) 1. 0 

loop_
_atom_site_aniso_label
_atom_site_aniso_type_symbol
_atom_site_aniso_U_11
_atom_site_aniso_U_22
_atom_site_aniso_U_33
_atom_site_aniso_U_12
_atom_site_aniso_U_13
_atom_site_aniso_U_23
Ca1 Ca2+ 0.0104(3) 0.0094(2) 0.0101(3) 0 0.0039(2) 0
Ti1 Ti3+ 0.0091(2) 0.0084(2) 0.0082(2) 0.0003(1) 0.0033(2) 0.0003(1)
F1 F1- 0.0321(10) 0.0141(7) 0.0130(8) 0 0.0137(7) 0
F2 F1- 0.0278(7) 0.0096(5) 0.0154(6) 0.0002(4) 0.0114(5) 0.0018(4)
F3 F1- 0.0108(6) 0.0314(7) 0.0289(7) -.0012(5) 0.0045(5) -.0018(5)
#End of data_49529-ICSD


