data_262636-ICSD
#?2014 by Fachinformationszentrum Karlsruhe, and the U.S. Secretary of 
#Commerce on behalf of the United States.  All rights reserved.
_database_code_ICSD                262636
_audit_creation_date               2012/08/01
_chemical_name_systematic
;
Silver(I) Sulfide - Hp2-phase (16.5gpa)
;
_chemical_formula_structural       'Ag2 S'
_chemical_formula_sum              'Ag2 S1'
_chemical_name_mineral             Acanthite
_publ_section_title
;
Compression of silver sulfide: X-ray diffraction measurements and 
total-energy calculations
;
loop_
_citation_id
_citation_journal_abbrev
_citation_year
_citation_journal_volume
_citation_journal_issue
_citation_page_first
_citation_page_last
_citation_journal_id_ASTM
primary 'Inorganic Chemistry' 2012 51 9 5289 5298 INOCAJ
_publ_author_name
;
Santamaria-Perez, D.;Marques, M.;Chulia-Jordan, R.;Menendez, 
J.M.;Gomis, O.;Ruiz-Fuertes, J.;Sans, J.A.;Errandonea, D.;Recio, J.M.
;
_cell_length_a                     4.0920(8)
_cell_length_b                     5.7519(13)
_cell_length_c                     7.9702(17)
_cell_angle_alpha                  90.00000
_cell_angle_beta                   93.819(15)
_cell_angle_gamma                  90.00000
_cell_volume                       187.18
_cell_formula_units_Z              4
_symmetry_space_group_name_H-M     'P 1 21/n 1'
_symmetry_Int_Tables_number        14
_refine_ls_R_factor_all            .135
loop_
_symmetry_equiv_pos_site_id
_symmetry_equiv_pos_as_xyz
  1	'-x+.5, y+.5, -z+.5'
  2	'-x, -y, -z'
  3	'x+.5, -y+.5, z+.5'
  4	'x, y, z'
loop_
_atom_type_symbol
_atom_type_oxidation_number
Ag1+	1
S2-	-2
loop_
_atom_site_label
_atom_site_type_symbol
_atom_site_symmetry_multiplicity
_atom_site_Wyckoff_symbol
_atom_site_fract_x
_atom_site_fract_y
_atom_site_fract_z
_atom_site_occupancy
_atom_site_attached_hydrogens
_atom_site_U_iso_or_equiv
Ag1 Ag1+ 4 e 0.7402(9) 0.0326(6) 0.2921(3) 1.00000 0 0.00633 
Ag2 Ag1+ 4 e 0.2564(9) 0.2962(5) 0.4303(4) 1.00000 0 0.00633 
S1 S2- 4 e 0.224(2) 0.266(2) 0.1068(12) 1.00000 0 0.00633 

#End of data_262636-ICSD


