data_76549-ICSD
#?2014 by Fachinformationszentrum Karlsruhe, and the U.S. Secretary of 
#Commerce on behalf of the United States.  All rights reserved.
_database_code_ICSD                76549
_audit_creation_date               2000/12/16
_audit_update_record               2008/02/01
_chemical_name_systematic          'Sodium Vanadium(III) Selenide - Lt'
_chemical_formula_structural       'Na V Se2'
_chemical_formula_sum              'Na1 Se2 V1'
_publ_section_title
;
Magnetic and electrical properties related to structural transitions 
in Nax V S2 and Nax V Se2
;
loop_
_citation_id
_citation_journal_abbrev
_citation_year
_citation_journal_volume
_citation_page_first
_citation_page_last
_citation_journal_id_ASTM
primary 'Journal of the Less-Common Metals' 1978 60 259 282 JCOMAH
_publ_author_name
;
van Bruggen, C.F.;Bloembergen, J.R.;Bos-Alberink, A.J.A.;Wiegers, 
G.A.
;
_cell_length_a                     6.502
_cell_length_b                     3.702
_cell_length_c                     8.101
_cell_angle_alpha                  90.
_cell_angle_beta                   122.32
_cell_angle_gamma                  90.
_cell_volume                       164.78
_cell_formula_units_Z              2
_symmetry_space_group_name_H-M     'C 1 2/m 1'
_symmetry_Int_Tables_number        12
_refine_ls_R_factor_all            .053
loop_
_symmetry_equiv_pos_site_id
_symmetry_equiv_pos_as_xyz
  1	'-x, y, -z'
  2	'-x, -y, -z'
  3	'x, -y, z'
  4	'x, y, z'
  5	'-x+.5, y+.5, -z'
  6	'-x+.5, -y+.5, -z'
  7	'x+.5, -y+.5, z'
  8	'x+.5, y+.5, z'
loop_
_atom_type_symbol
_atom_type_oxidation_number
Na1+	1
Se2-	-2
V3+	3
loop_
_atom_site_label
_atom_site_type_symbol
_atom_site_symmetry_multiplicity
_atom_site_Wyckoff_symbol
_atom_site_fract_x
_atom_site_fract_y
_atom_site_fract_z
_atom_site_occupancy
_atom_site_attached_hydrogens
Na1 Na1+ 2 c 0 0 0.5 1. 0 
V1 V3+ 2 a 0 0 0 1. 0 
Se1 Se2- 4 i 0.4712 0 0.2083 1. 0 

#End of data_76549-ICSD


