data_89258-ICSD
#?2014 by Fachinformationszentrum Karlsruhe, and the U.S. Secretary of 
#Commerce on behalf of the United States.  All rights reserved.
_database_code_ICSD                89258
_audit_creation_date               2001/07/16
_audit_update_record               2014/08/01
_chemical_name_systematic
;
Sodium Yttrium Carbonate Difluoride
;
_chemical_formula_structural       'Na Y (C O3) F2'
_chemical_formula_sum              'C1 F2 Na1 O3 Y1'
_chemical_name_mineral             Horvathite-(Y)
_publ_section_title
;
Horvathite-(Y), rare-earth fluorocarbonate, a new mineral species 
from Mont Saint-Hilaire, Quebec
;
loop_
_citation_id
_citation_journal_abbrev
_citation_year
_citation_journal_volume
_citation_page_first
_citation_page_last
_citation_journal_id_ASTM
primary 'Canadian Mineralogist' 1997 35 743 749 CAMIA6
_publ_author_name                  'Grice, J.D.;Chao, G.-Y.'
_cell_length_a                     6.959(2)
_cell_length_b                     9.170(2)
_cell_length_c                     6.301(1)
_cell_angle_alpha                  90.
_cell_angle_beta                   90.
_cell_angle_gamma                  90.
_cell_volume                       402.09
_cell_formula_units_Z              4
_symmetry_space_group_name_H-M     'P m c n'
_symmetry_Int_Tables_number        62
_refine_ls_R_factor_all            .016
loop_
_symmetry_equiv_pos_site_id
_symmetry_equiv_pos_as_xyz
  1	'x, -y+.5, z+.5'
  2	'-x+.5, y, z'
  3	'x+.5, y+.5, -z+.5'
  4	'-x, -y, -z'
  5	'-x, y+.5, -z+.5'
  6	'x+.5, -y, -z'
  7	'-x+.5, -y+.5, z+.5'
  8	'x, y, z'
loop_
_atom_type_symbol
_atom_type_oxidation_number
C4+	4
F1-	-1
Na1+	1
O2-	-2
Y3+	3
loop_
_atom_site_label
_atom_site_type_symbol
_atom_site_symmetry_multiplicity
_atom_site_Wyckoff_symbol
_atom_site_fract_x
_atom_site_fract_y
_atom_site_fract_z
_atom_site_occupancy
_atom_site_attached_hydrogens
_atom_site_U_iso_or_equiv
Na1 Na1+ 4 c 0.25 0.2175(2) 0.1711(2) 1. 0 0.023(1) 
Y1 Y3+ 4 c 0.75 0.42143(3) 0.98695(5) 1. 0 0.0092(1) 
C1 C4+ 4 c 0.75 0.0590(4) 0.0401(5) 1. 0 0.014(1) 
O1 O2- 4 c 0.25 0.8144(3) 0.8691(4) 1. 0 0.019(1) 
O2 O2- 4 c 0.75 0.4554(3) 0.3421(4) 1. 0 0.026(1) 
O3 O2- 4 c 0.25 0.0508(3) 0.8375(4) 1. 0 0.022(1) 
F1 F1- 8 d 0.5607(2) 0.6300(2) 0.0420(2) 1. 0 0.018(1) 

#End of data_89258-ICSD


