data_281056-ICSD
#?2014 by Fachinformationszentrum Karlsruhe, and the U.S. Secretary of 
#Commerce on behalf of the United States.  All rights reserved.
_database_code_ICSD                281056
_audit_creation_date               2003/04/01
_chemical_name_systematic
;
Dipotassium Molybdatobis(iodato(V))dioxoranate
;
_chemical_formula_structural       'K2 (U O2 (Mo O4) (I O3)2)'
_chemical_formula_sum              'I2 K2 Mo1 O12 U1'
_publ_section_title
;
Mixed-metal uranium(VI) iodates: hydrothermal syntheses, structures 
and reactivity of Rb (U O2 (Cr O4) (I O3) (H2 O)), A2 (U O2 (Cr O4) 
(I O3)2) (A = K, Rb, Cs) and K2 (U O2 (Mo O4) (I O3)2)
;
loop_
_citation_id
_citation_journal_abbrev
_citation_year
_citation_journal_volume
_citation_journal_issue
_citation_page_first
_citation_page_last
_citation_journal_id_ASTM
primary 'Inorganic Chemistry' 2002 41 20 5126 5132 INOCAJ
_publ_author_name
;
Sykora, R.E.;McDaniel, S.M.;Wells, D.M.;Albrecht Schmitt, T.E.
;
_cell_length_a                     11.3717(6)
_cell_length_b                     7.2903(4)
_cell_length_c                     15.7122(8)
_cell_angle_alpha                  90.
_cell_angle_beta                   108.167(1)
_cell_angle_gamma                  90.
_cell_volume                       1237.66
_cell_formula_units_Z              4
_symmetry_space_group_name_H-M     'P 1 21/c 1'
_symmetry_Int_Tables_number        14
_refine_ls_R_factor_all            .0169
loop_
_symmetry_equiv_pos_site_id
_symmetry_equiv_pos_as_xyz
  1	'x, -y+.5, z+.5'
  2	'-x, -y, -z'
  3	'-x, y+.5, -z+.5'
  4	'x, y, z'
loop_
_atom_type_symbol
_atom_type_oxidation_number
I5+	5
K1+	1
Mo6+	6
O2-	-2
U6+	6
loop_
_atom_site_label
_atom_site_type_symbol
_atom_site_symmetry_multiplicity
_atom_site_Wyckoff_symbol
_atom_site_fract_x
_atom_site_fract_y
_atom_site_fract_z
_atom_site_occupancy
_atom_site_attached_hydrogens
_atom_site_U_iso_or_equiv
U1 U6+ 4 e 0.169642(11) 0.508108(16) -.140406(9) 1. 0 0.00948(5) 
Mo1 Mo6+ 4 e -.07834(3) 0.25330(4) -.05302(2) 1. 0 0.01110(7) 
I1 I5+ 4 e 0.17870(2) 0.01233(3) -.109643(16) 1. 0 0.01075(6) 
I2 I5+ 4 e 0.40601(2) 0.71069(3) -.228678(15) 1. 0 0.01255(6) 
K1 K1+ 4 e 0.25839(8) 0.25937(11) 0.14128(7) 1. 0 0.02450(19) 
K2 K1+ 4 e 0.50094(8) 0.74619(11) 0.04957(6) 1. 0 0.02014(17) 
O1 O2- 4 e 0.0713(2) 0.3121(3) -.06489(17) 1. 0 0.0162(5) 
O2 O2- 4 e -.0794(2) 0.2945(3) 0.06026(17) 1. 0 0.0162(5) 
O3 O2- 4 e -.1065(3) 0.0249(3) -.0773(2) 1. 0 0.0196(6) 
O4 O2- 4 e -.1960(3) 0.3794(4) -.12573(18) 1. 0 0.0218(6) 
O5 O2- 4 e 0.2188(2) 0.1993(3) -.17276(17) 1. 0 0.0149(5) 
O6 O2- 4 e 0.2195(2) -.1807(3) -.16860(17) 1. 0 0.0153(5) 
O7 O2- 4 e 0.3132(3) 0.0175(4) -.0136(2) 1. 0 0.0217(6) 
O8 O2- 4 e 0.3023(3) 0.5176(3) -.23019(19) 1. 0 0.0158(6) 
O9 O2- 4 e 0.4948(3) 0.6092(4) -.29299(19) 1. 0 0.0241(6) 
O10 O2- 4 e 0.5115(3) 0.6822(4) -.11858(18) 1. 0 0.0250(6) 
O11 O2- 4 e 0.0355(3) 0.5125(3) -.23625(18) 1. 0 0.0164(6) 
O12 O2- 4 e 0.3033(3) 0.5029(3) -.04345(18) 1. 0 0.0141(5) 

loop_
_atom_site_aniso_label
_atom_site_aniso_type_symbol
_atom_site_aniso_U_11
_atom_site_aniso_U_22
_atom_site_aniso_U_33
_atom_site_aniso_U_12
_atom_site_aniso_U_13
_atom_site_aniso_U_23
U1 U6+ 0.01028(8) 0.00748(7) 0.01129(8) -0.00002(4) 0.00424(5) 0.00005(4)
Mo1 Mo6+ 0.01203(15) 0.01020(14) 0.01246(14) -0.0002(1) 0.00583(11) 
-0.00039(10)
I1 I5+ 0.01196(11) 0.00753(10) 0.01369(12) -0.00023(7) 0.00535(9) 
-0.00009(7)
I2 I5+ 0.01168(11) 0.01360(11) 0.01321(11) -0.00093(8) 0.00511(8) 
0.00131(8)
K1 K1+ 0.0201(4) 0.0159(4) 0.0331(5) -0.0029(3) 0.0018(4) 0.0045(3)
K2 K1+ 0.0195(4) 0.0232(4) 0.0181(4) 0.0010(3) 0.0065(3) -0.0035(3)
O1 O2- 0.0173(13) 0.0137(12) 0.0211(14) -0.0022(10) 0.0112(11) -0.0003(10)
O2 O2- 0.0206(13) 0.0119(12) 0.0174(13) 0.0012(10) 0.0079(11) -0.0006(10)
O3 O2- 0.0194(14) 0.0154(13) 0.0236(15) -0.0025(10) 0.0062(12) -0.0038(10)
O4 O2- 0.0221(14) 0.0229(14) 0.0184(14) 0.0059(11) 0.0036(11) 0.0024(11)
O5 O2- 0.0221(14) 0.0063(11) 0.0204(13) -0.0006(10) 0.0126(11) 0.0031(9)
O6 O2- 0.0213(13) 0.0083(11) 0.0207(13) 0.0024(10) 0.0131(11) -0.0002(10)
O7 O2- 0.0182(15) 0.0250(15) 0.0183(15) 0.0002(11) 0.0005(12) 0.0007(10)
O8 O2- 0.0196(14) 0.0108(12) 0.0211(14) -0.0032(9) 0.0123(12) -0.0022(9)
O9 O2- 0.0265(15) 0.0274(15) 0.0268(15) 0.0066(12) 0.0205(13) 0.0042(12)
O10 O2- 0.0169(14) 0.0415(17) 0.0139(13) -0.0051(12) 0.0006(11) 0.0036(12)
O11 O2- 0.0133(13) 0.0193(14) 0.0129(14) 0.0003(9) -0.0013(11) 0.0001(9)
O12 O2- 0.0142(13) 0.0154(13) 0.0112(13) 0.0006(9) 0.0017(11) 0.0005(9)
#End of data_281056-ICSD


