data_165323-ICSD
#?2014 by Fachinformationszentrum Karlsruhe, and the U.S. Secretary of 
#Commerce on behalf of the United States.  All rights reserved.
_database_code_ICSD                165323
_audit_creation_date               2010/02/01
_chemical_name_systematic
;
Dipotassium Gold Tetrathiophosphate(V)
;
_chemical_formula_structural       'K2 Au (P S4)'
_chemical_formula_sum              'Au1 K2 P1 S4'
_publ_section_title
;
Chemistry of gold in molten alkali metal polychalcophosphate fluxes. 
Synthesis and characterization of the low-dimensional compounds A3 Au 
P2 Se8 (A= K, Rb, Cs), A2 Au2 P2 Se6 (A= K, Rb), A2 Au P S4 (A= K, 
Rb, Cs) and A Au P2 S7 (A= K, Rb)
;
loop_
_citation_id
_citation_journal_abbrev
_citation_year
_citation_journal_volume
_citation_journal_issue
_citation_page_first
_citation_page_last
_citation_journal_id_ASTM
primary 'Inorganic Chemistry' 1997 36 12 2623 2632 INOCAJ
_publ_author_name
;
Chondroudis, K.;Hanko, J.A.;Kanatzidis, M.G.
;
_cell_length_a                     6.518(2)
_cell_length_b                     6.747(2)
_cell_length_c                     9.468(3)
_cell_angle_alpha                  90.
_cell_angle_beta                   92.98(2)
_cell_angle_gamma                  90.
_cell_volume                       415.81
_cell_formula_units_Z              2
_symmetry_space_group_name_H-M     'P 1 21/m 1'
_symmetry_Int_Tables_number        11
_refine_ls_R_factor_all            .023
loop_
_symmetry_equiv_pos_site_id
_symmetry_equiv_pos_as_xyz
  1	'x, -y+.5, z'
  2	'-x, -y, -z'
  3	'-x, y+.5, -z'
  4	'x, y, z'
loop_
_atom_type_symbol
_atom_type_oxidation_number
Au1+	1
K1+	1
P5+	5
S2-	-2
loop_
_atom_site_label
_atom_site_type_symbol
_atom_site_symmetry_multiplicity
_atom_site_Wyckoff_symbol
_atom_site_fract_x
_atom_site_fract_y
_atom_site_fract_z
_atom_site_occupancy
_atom_site_attached_hydrogens
_atom_site_B_iso_or_equiv
Au1 Au1+ 2 a 0 0 0 1. 0 1.46(2) 
K1 K1+ 2 e 0.4551(5) 0.250 -0.1657(3) 1. 0 2.7(1) 
K2 K1+ 2 e 0.7958(4) 0.250 0.4641(3) 1. 0 1.8(1) 
S1 S2- 2 e 0.5245(5) 0.250 0.1742(3) 1. 0 2.0(1) 
S2 S2- 2 e 0.3050(5) 0.250 0.4926(3) 1. 0 1.6(1) 
S3 S2- 4 f 0.0927(3) -0.0034(3) 0.2370(2) 1. 0 1.78(8) 
P1 P5+ 2 e 0.2650(4) 0.250 0.2804(3) 1. 0 1.0(1) 

loop_
_atom_site_aniso_label
_atom_site_aniso_type_symbol
_atom_site_aniso_U_11
_atom_site_aniso_U_22
_atom_site_aniso_U_33
_atom_site_aniso_U_12
_atom_site_aniso_U_13
_atom_site_aniso_U_23
Au1 Au1+ 0.0184(3) 0.0188(3) 0.0185(3) -0.0059(2) 0.0008(2) -0.0048(2)
K1 K1+ 0.046(2) 0.031(2) 0.026(2) 0. 0.009(1) 0.
K2 K1+ 0.018(1) 0.029(2) 0.021(1) 0. 0.002(1) 0.
S1 S2- 0.017(1) 0.038(2) 0.022(2) 0. 0.009(1) 0.
S2 S2- 0.022(1) 0.027(2) 0.011(1) 0. 0.003(1) 0.
S3 S2- 0.030(1) 0.016(1) 0.022(1) -0.009(1) -0.0003(8) 0.001(1)
P1 P5+ 0.014(1) 0.011(2) 0.013(1) 0. 0.002(1) 0.
#End of data_165323-ICSD


