data_418750-ICSD
#?2014 by Fachinformationszentrum Karlsruhe, and the U.S. Secretary of 
#Commerce on behalf of the United States.  All rights reserved.
_database_code_ICSD                418750
_audit_creation_date               2009/08/01
_chemical_name_systematic
;
Tetrapotassium Trimanganese(II) Tetrakis(hydrogenphosphate) 
Bis(dihydrogenphosphate)
;
_chemical_formula_structural       'K4 Mn3 (H P O4)4 (H2 P O4)2'
_chemical_formula_sum              'H8 K4 Mn3 O24 P6'
_publ_section_title
;
Synthesis, crystal structure, and magnetic properties of K4 Mn3 (H P 
O4)4 (H2 P O4)2
;
loop_
_citation_id
_citation_journal_abbrev
_citation_year
_citation_journal_volume
_citation_journal_issue
_citation_page_first
_citation_page_last
_citation_journal_id_ASTM
primary 'Solid State Sciences' 2009 11 4 845 851 SSSCFJ
_publ_author_name
;
Feng Dawei;Wang Cheng;Cheng Wentai;Li Guo Bao;Tian Shujian;Liao 
Fuhui;Xiong Ming;Lin Jian Hua
;
_cell_length_a                     8.8737(18)
_cell_length_b                     6.5539(13)
_cell_length_c                     18.075(4)
_cell_angle_alpha                  90.00
_cell_angle_beta                   93.39(3)
_cell_angle_gamma                  90.00
_cell_volume                       1049.35
_cell_formula_units_Z              2
_symmetry_space_group_name_H-M     'P 1 21/n 1'
_symmetry_Int_Tables_number        14
_refine_ls_R_factor_all            .0254
loop_
_symmetry_equiv_pos_site_id
_symmetry_equiv_pos_as_xyz
  1	'-x+.5, y+.5, -z+.5'
  2	'-x, -y, -z'
  3	'x+.5, -y+.5, z+.5'
  4	'x, y, z'
loop_
_atom_type_symbol
_atom_type_oxidation_number
H1+	1
K1+	1
Mn2+	2
O2-	-2
P5+	5
loop_
_atom_site_label
_atom_site_type_symbol
_atom_site_symmetry_multiplicity
_atom_site_Wyckoff_symbol
_atom_site_fract_x
_atom_site_fract_y
_atom_site_fract_z
_atom_site_occupancy
_atom_site_attached_hydrogens
_atom_site_U_iso_or_equiv
Mn1 Mn2+ 2 b 0.0000 0.0000 0.5000 1 0 0.01012(7) 
Mn2 Mn2+ 4 e 0.35959(2) 0.17442(3) 0.497172(13) 1 0 0.01368(6) 
K1 K1+ 4 e 0.03354(4) -0.49433(5) 0.61343(2) 1 0 0.02010(8) 
K2 K1+ 4 e 0.52542(4) 0.48951(6) 0.31733(2) 1 0 0.02266(8) 
P1 P5+ 4 e 0.24538(4) 0.07425(6) 0.652110(19) 1 0 0.01145(7) 
P2 P5+ 4 e 0.22048(4) 0.10757(6) 0.346651(19) 1 0 0.01123(7) 
P3 P5+ 4 e 0.28835(4) -0.33445(5) 0.48554(2) 1 0 0.00994(7) 
O1 O2- 4 e 0.12709(11) -0.27589(17) 0.49745(6) 1 0 0.01413(19) 
O2 O2- 4 e 0.38834(13) 0.15468(18) 0.36113(8) 1 0 0.0208(2) 
O3 O2- 4 e 0.29383(14) -0.39613(18) 0.40061(6) 1 0 0.0178(2) 
H1 H1+ 4 e 0.2562 -0.3049 0.3746 1 0 0.027 
O4 O2- 4 e 0.17670(13) 0.11617(17) 0.57555(6) 1 0 0.01495(19) 
O5 O2- 4 e 0.33831(13) 0.47849(16) 0.52900(6) 1 0 0.0155(2) 
O6 O2- 4 e 0.18511(15) 0.2189(2) 0.70807(7) 1 0 0.0234(2) 
O7 O2- 4 e 0.19424(14) -0.10148(18) 0.31267(7) 1 0 0.0192(2) 
O8 O2- 4 e 0.14729(13) 0.2700(2) 0.29187(6) 1 0 0.0198(2) 
H2 H1+ 4 e 0.2140 0.3225 0.2688 1 0 0.030 
O9 O2- 4 e 0.14762(14) 0.13688(18) 0.41961(6) 1 0 0.0165(2) 
O10 O2- 4 e 0.21449(16) -0.1517(2) 0.67173(7) 1 0 0.0243(3) 
H3 H1+ 4 e 0.2404 -0.1721 0.7154 1 0 0.037 
O11 O2- 4 e 0.60182(12) 0.15633(15) 0.50085(6) 1 0 0.01329(18) 
O12 O2- 4 e 0.41730(14) 0.1092(2) 0.65120(9) 1 0 0.0271(3) 
H4 H1+ 4 e 0.4600 -0.0014 0.6488 1 0 0.041 

loop_
_atom_site_aniso_label
_atom_site_aniso_type_symbol
_atom_site_aniso_U_11
_atom_site_aniso_U_22
_atom_site_aniso_U_33
_atom_site_aniso_U_12
_atom_site_aniso_U_13
_atom_site_aniso_U_23
Mn1 Mn2+ 0.00882(12) 0.01016(13) 0.01136(13) 0.00027(9) 0.00035(9) 
-0.00074(9)
Mn2 Mn2+ 0.00996(10) 0.00949(10) 0.02152(11) 0.00040(7) 0.00045(7) 
-0.00148(7)
K1 K1+ 0.01903(15) 0.01908(16) 0.02195(16) 0.00192(11) -0.00082(12) 
0.00000(11)
K2 K1+ 0.02228(16) 0.01873(16) 0.02766(18) -0.00259(12) 0.00730(13) 
-0.00298(12)
P1 P5+ 0.01167(15) 0.01249(16) 0.00994(14) -0.00029(11) -0.00138(11) 
-0.00065(11)
P2 P5+ 0.01120(15) 0.01295(15) 0.00954(14) 0.00089(11) 0.00072(11) 
0.00057(11)
P3 P5+ 0.00897(14) 0.00730(14) 0.01362(15) -0.00017(10) 0.00116(11) 
-0.00056(10)
O1 O2- 0.0099(4) 0.0119(4) 0.0208(5) 0.0012(3) 0.0024(3) -0.0008(4)
O2 O2- 0.0117(5) 0.0173(5) 0.0330(6) 0.0003(4) -0.0027(4) 0.0034(4)
O3 O2- 0.0223(5) 0.0164(5) 0.0151(5) 0.0010(4) 0.0030(4) -0.0033(4)
O4 O2- 0.0198(5) 0.0143(5) 0.0104(4) -0.0026(4) -0.0026(3) 0.0008(3)
O5 O2- 0.0166(5) 0.0091(4) 0.0207(5) 0.0015(3) -0.0004(4) 0.0019(4)
O6 O2- 0.0243(6) 0.0318(7) 0.0142(5) 0.0050(5) 0.0009(4) -0.0095(5)
O7 O2- 0.0235(5) 0.0180(5) 0.0161(5) -0.0005(4) 0.0011(4) -0.0061(4)
O8 O2- 0.0176(5) 0.0263(6) 0.0157(5) 0.0053(4) 0.0013(4) 0.0088(4)
O9 O2- 0.0228(5) 0.0163(5) 0.0107(4) 0.0008(4) 0.0048(4) 0.0001(4)
O10 O2- 0.0328(7) 0.0189(5) 0.0201(5) -0.0083(5) -0.0086(5) 0.0076(4)
O11 O2- 0.0108(4) 0.0085(4) 0.0206(5) -0.0017(3) 0.0007(3) -0.0002(3)
O12 O2- 0.0116(5) 0.0168(5) 0.0526(9) 0.0000(4) -0.0004(5) -0.0071(5)
#End of data_418750-ICSD


