data_1310-ICSD
#?2014 by Fachinformationszentrum Karlsruhe, and the U.S. Secretary of 
#Commerce on behalf of the United States.  All rights reserved.
_database_code_ICSD                1310
_audit_creation_date               1985/10/03
_audit_update_record               2010/08/01
_chemical_name_systematic          'Calcium Chromate(VI) Hydrate'
_chemical_formula_structural       'Ca (Cr O4) (H2 O)'
_chemical_formula_sum              'H2 Ca1 Cr1 O5'
_publ_section_title
;
Etude de chromates, molybdates et tungstates hydrates. II. Etude 
structurale de  Ca Cr O4 (H2 O)
;
loop_
_citation_id
_citation_journal_abbrev
_citation_year
_citation_journal_volume
_citation_page_first
_citation_page_last
_citation_journal_id_ASTM
primary 'Acta Crystallographica B (24,1968-38,1982)' 1977 33 3751 3755 ACBCAR
_publ_author_name
;
Bars, O.;le Marouille, J.Y.;Grandjean, D.
;
_cell_length_a                     8.014(4)
_cell_length_b                     8.147(6)
_cell_length_c                     12.761(14)
_cell_angle_alpha                  90.
_cell_angle_beta                   90.
_cell_angle_gamma                  90.
_cell_volume                       833.17
_cell_formula_units_Z              8
_symmetry_space_group_name_H-M     'P b c a'
_symmetry_Int_Tables_number        61
_refine_ls_R_factor_all            .048
loop_
_symmetry_equiv_pos_site_id
_symmetry_equiv_pos_as_xyz
  1	'x+.5, y, -z+.5'
  2	'x, -y+.5, z+.5'
  3	'-x+.5, y+.5, z'
  4	'-x, -y, -z'
  5	'-x+.5, -y, z+.5'
  6	'-x, y+.5, -z+.5'
  7	'x+.5, -y+.5, -z'
  8	'x, y, z'
loop_
_atom_type_symbol
_atom_type_oxidation_number
Ca2+	2
Cr6+	6
H1+	1
O2-	-2
loop_
_atom_site_label
_atom_site_type_symbol
_atom_site_symmetry_multiplicity
_atom_site_Wyckoff_symbol
_atom_site_fract_x
_atom_site_fract_y
_atom_site_fract_z
_atom_site_occupancy
_atom_site_attached_hydrogens
_atom_site_B_iso_or_equiv
Ca1 Ca2+ 8 c 0.26346(8) 0.09704(8) 0.32863(5) 1. 0 0 
Cr1 Cr6+ 8 c 0.12909(6) 0.38219(6) 0.12424(4) 1. 0 0 
O1 O2- 8 c 0.2088(3) 0.4435(3) 0.0141(2) 1. 0 0 
O2 O2- 8 c 0.0063(4) 0.2242(3) 0.1032(2) 1. 0 0 
O3 O2- 8 c 0.2815(3) 0.3315(3) 0.2064(2) 1. 0 0 
O4 O2- 8 c 0.0273(3) 0.5327(3) 0.1846(2) 1. 0 0 
O5 O2- 8 c 0.0927(3) 0.3486(3) 0.3904(2) 1. 0 0 
H1 H1+ 8 c -.002(7) 0.347(6) 0.360(4) 1. 0 1.06 
H2 H1+ 8 c 0.067(6) 0.347(6) 0.456(4) 1. 0 1.06 

#End of data_1310-ICSD


