data_200221-ICSD
#?2014 by Fachinformationszentrum Karlsruhe, and the U.S. Secretary of 
#Commerce on behalf of the United States.  All rights reserved.
_database_code_ICSD                200221
_audit_creation_date               1986/08/08
_audit_update_record               2000/07/15
_chemical_name_systematic          'Dicalcium Dichlorotrioxosilicate'
_chemical_formula_structural       'Ca2 (Si O3 Cl2)'
_chemical_formula_sum              'Ca2 Cl2 O3 Si1'
_publ_section_title
;
The crystal structure of calcium chlorosilicate Ca2 Si O3 Cl2
;
loop_
_citation_id
_citation_journal_abbrev
_citation_year
_citation_journal_volume
_citation_page_first
_citation_page_last
_citation_journal_id_ASTM
primary Kristallografiya 1977 22 962 965 KRISAJ
2 'Soviet Physics, Crystallography (= Kristallografiya)'
 1977 22 549 550 SPHCA6
_publ_author_name                  'Golovastikov, N.I.;Kazak, V.F.'
_cell_length_a                     10.698
_cell_length_b                     10.698
_cell_length_c                     9.345
_cell_angle_alpha                  90.
_cell_angle_beta                   90.
_cell_angle_gamma                  90.
_cell_volume                       1069.51
_cell_formula_units_Z              8
_symmetry_space_group_name_H-M     'I 4'
_symmetry_Int_Tables_number        79
_refine_ls_R_factor_all            .0768
loop_
_symmetry_equiv_pos_site_id
_symmetry_equiv_pos_as_xyz
  1	'y, -x, z'
  2	'-y, x, z'
  3	'-x, -y, z'
  4	'x, y, z'
  5	'y+.5, -x+.5, z+.5'
  6	'-y+.5, x+.5, z+.5'
  7	'-x+.5, -y+.5, z+.5'
  8	'x+.5, y+.5, z+.5'
loop_
_atom_type_symbol
_atom_type_oxidation_number
Ca2+	2
Cl1-	-1
O2-	-2
Si4+	4
loop_
_atom_site_label
_atom_site_type_symbol
_atom_site_symmetry_multiplicity
_atom_site_Wyckoff_symbol
_atom_site_fract_x
_atom_site_fract_y
_atom_site_fract_z
_atom_site_occupancy
_atom_site_attached_hydrogens
_atom_site_B_iso_or_equiv
Ca1 Ca2+ 8 c 0.2496 0.0804 0.7286 1. 0 0.877 
Ca2 Ca2+ 8 c 0.2553 0.0804 0.2608 1. 0 0.95 
Si1 Si4+ 8 c 0.1028 0.1874 0.9976 1. 0 0.534 
Cl1 Cl1- 8 c 0.4176 0.242 0.9987 1. 0 1.863 
Cl2 Cl1- 4 b 0 0.5 0.2687 1. 0 1.137 
Cl3 Cl1- 2 a 0 0 0.7096 1. 0 0.98 
Cl4 Cl1- 2 a 0 0 0.289 1. 0 1.162 
O1 O2- 8 c 0.1726 0.05 0.9939 1. 0 0.84 
O2 O2- 8 c 0.1371 0.2503 0.8458 1. 0 0.658 
O3 O2- 8 c 0.1356 0.2496 0.1484 1. 0 0.859 

#End of data_200221-ICSD


