data_408854-ICSD
#?2014 by Fachinformationszentrum Karlsruhe, and the U.S. Secretary of 
#Commerce on behalf of the United States.  All rights reserved.
_database_code_ICSD                408854
_audit_creation_date               1999/06/02
_chemical_name_systematic
;
Potassium Copper Digadolinium Tetrasulfide
;
_chemical_formula_structural       'K (Cu Gd2 S4)'
_chemical_formula_sum              'Cu1 Gd2 K1 S4'
_publ_section_title
;
Synthesis and crystal structure of K Cu Gd2 S4: A threedimensional 
framework with isolated channels
;
loop_
_citation_id
_citation_journal_abbrev
_citation_year
_citation_journal_volume
_citation_page_first
_citation_page_last
_citation_journal_id_ASTM
primary 'Zeitschrift fuer Anorganische und Allgemeine Chemie (1950) (DE)'
 1998 624 1807 1810 ZAACAB
_publ_author_name
;
Stoll, P.;Duerichen, P.;Naether, C.;Bensch, W.
;
_cell_length_a                     3.992(1)
_cell_length_b                     13.523(3)
_cell_length_c                     13.802(3)
_cell_angle_alpha                  90.
_cell_angle_beta                   90.
_cell_angle_gamma                  90.
_cell_volume                       745.08
_cell_formula_units_Z              4
_symmetry_space_group_name_H-M     'C m c m'
_symmetry_Int_Tables_number        63
_refine_ls_R_factor_all            .0463
loop_
_symmetry_equiv_pos_site_id
_symmetry_equiv_pos_as_xyz
  1	'-x, y, -z+.5'
  2	'-x, -y, z+.5'
  3	'-x, y, z'
  4	'-x, -y, -z'
  5	'x, -y, z+.5'
  6	'x, y, -z+.5'
  7	'x, -y, -z'
  8	'x, y, z'
  9	'-x+.5, y+.5, -z+.5'
 10	'-x+.5, -y+.5, z+.5'
 11	'-x+.5, y+.5, z'
 12	'-x+.5, -y+.5, -z'
 13	'x+.5, -y+.5, z+.5'
 14	'x+.5, y+.5, -z+.5'
 15	'x+.5, -y+.5, -z'
 16	'x+.5, y+.5, z'
loop_
_atom_type_symbol
_atom_type_oxidation_number
Cu1+	1
Gd3+	3
K1+	1
S2-	-2
loop_
_atom_site_label
_atom_site_type_symbol
_atom_site_symmetry_multiplicity
_atom_site_Wyckoff_symbol
_atom_site_fract_x
_atom_site_fract_y
_atom_site_fract_z
_atom_site_occupancy
_atom_site_attached_hydrogens
Gd1 Gd3+ 8 f 0.5 0.63421(3) 0.43702(3) 1. 0 
Cu1 Cu1+ 4 c 0 0.66277(13) 0.25 1. 0 
S1 S2- 4 c 0.5 0.5683(2) 0.25 1. 0 
S2 S2- 8 f 0.5 0.7362(2) 0.61179(14) 1. 0 
S3 S2- 4 b 0 0.5 0.5 1. 0 
K1 K1+ 4 c 0 0.3910(2) 0.25 1. 0 

loop_
_atom_site_aniso_label
_atom_site_aniso_type_symbol
_atom_site_aniso_U_11
_atom_site_aniso_U_22
_atom_site_aniso_U_33
_atom_site_aniso_U_12
_atom_site_aniso_U_13
_atom_site_aniso_U_23
Gd1 Gd3+ 0.0116(2) 0.0133(2) 0.0080(2) 0 0 0.00004(15)
Cu1 Cu1+ 0.0188(8) 0.0195(7) 0.0105(6) 0 0 0
S1 S2- 0.0135(13) 0.0148(13) 0.0083(11) 0 0 0
S2 S2- 0.0129(9) 0.0149(9) 0.0081(7) 0 0 -.0017(7)
S3 S2- 0.0129(12) 0.0137(12) 0.0175(12) 0 0 0.0054(12)
K1 K1+ 0.0182(13) 0.0195(13) 0.0281(14) 0 0 0
#End of data_408854-ICSD


