data_159900-ICSD
#?2014 by Fachinformationszentrum Karlsruhe, and the U.S. Secretary of 
#Commerce on behalf of the United States.  All rights reserved.
_database_code_ICSD                159900
_audit_creation_date               2008/08/01
_audit_update_record               2011/02/01
_chemical_name_systematic
;
Tricalcium Tricopper Tetrakis(phosphate(V))
;
_chemical_formula_structural       'Ca3 Cu3 (P O4)4'
_chemical_formula_sum              'Ca3 Cu3 O16 P4'
_publ_section_title
;
Crystal and magnetic structures of the spin-trimer compounds Ca3 Cu3-
x Nix (P O4)4 (x= 0, 1, 2)
;
loop_
_citation_id
_citation_journal_abbrev
_citation_year
_citation_journal_volume
_citation_page_first
_citation_page_last
_citation_journal_id_ASTM
primary 'Physical Review, Serie 3. B - Condensed Matter (18,1978-)'
 2007 76 174433-1 174433-9 PRBMDO
_publ_author_name
;
Pomjakushin, V.Yu.;Furrer, A.;Sheptyakov, D.V.;Pomjakushina, 
E.V.;Conder, K.
;
_cell_length_a                     17.62154(8)
_cell_length_b                     4.90205(2)
_cell_length_c                     8.92224(5)
_cell_angle_alpha                  90.
_cell_angle_beta                   124.0744(3)
_cell_angle_gamma                  90.
_cell_volume                       638.39
_cell_formula_units_Z              2
_symmetry_space_group_name_H-M     'P 1 21/a 1'
_symmetry_Int_Tables_number        14
_refine_ls_R_factor_all            .0184
loop_
_symmetry_equiv_pos_site_id
_symmetry_equiv_pos_as_xyz
  1	'x+.5, -y+.5, z'
  2	'-x, -y, -z'
  3	'-x+.5, y+.5, -z'
  4	'x, y, z'
loop_
_atom_type_symbol
_atom_type_oxidation_number
Ca2+	2
Cu2+	2
O2-	-2
P5+	5
loop_
_atom_site_label
_atom_site_type_symbol
_atom_site_symmetry_multiplicity
_atom_site_Wyckoff_symbol
_atom_site_fract_x
_atom_site_fract_y
_atom_site_fract_z
_atom_site_occupancy
_atom_site_attached_hydrogens
_atom_site_B_iso_or_equiv
Cu1 Cu2+ 2 a 0 0 0 1. 0 0.64(4) 
Cu2 Cu2+ 4 e 0.1198(1) 0.4771(3) 0.9430(2) 1. 0 0.39(4) 
Ca1 Ca2+ 2 b 0.5 0 0.5 1. 0 0.44(6) 
Ca2 Ca2+ 4 e 0.2659(2) 0.4630(6) 0.7265(3) 1. 0 0.80(5) 
P1 P5+ 4 e 0.5934(1) 0.9897(5) 0.2487(3) 1. 0 0.39(4) 
P2 P5+ 4 e 0.8406(2) 0.0161(5) 0.2164(3) 1. 0 0.40(4) 
O1 O2- 4 e 0.6794(2) 0.9046(4) 0.4240(3) 1. 0 0.68(4) 
O2 O2- 4 e 0.0087(1) 0.5519(5) 0.2534(3) 1. 0 0.68(4) 
O3 O2- 4 e 0.6006(1) 0.2866(4) 0.2004(3) 1. 0 0.73(4) 
O4 O2- 4 e 0.5812(1) 0.8074(4) 0.0918(3) 1. 0 0.44(4) 
O5 O2- 4 e 0.8978(2) 0.8549(4) 0.3861(3) 1. 0 1.09(4) 
O6 O2- 4 e 0.8542(1) 0.9282(4) 0.0661(3) 1. 0 0.66(5) 
O7 O2- 4 e 0.3574(1) 0.1752(4) 0.2467(3) 1. 0 0.82(4) 
O8 O2- 4 e 0.7396(1) 0.9661(5) 0.1521(3) 1. 0 0.83(4) 

#End of data_159900-ICSD


