data_26107-ICSD
#?2014 by Fachinformationszentrum Karlsruhe, and the U.S. Secretary of 
#Commerce on behalf of the United States.  All rights reserved.
_database_code_ICSD                26107
_audit_creation_date               1986/10/20
_audit_update_record               2014/08/01
_chemical_name_systematic          'Dipotassium Triiodoargentate'
_chemical_formula_structural       'K2 (Ag I3)'
_chemical_formula_sum              'Ag1 I3 K2'
_publ_section_title
;
The crystal structure of K2 Ag I3 and isomorphous Substances
;
loop_
_citation_id
_citation_journal_abbrev
_citation_year
_citation_journal_volume
_citation_page_first
_citation_page_last
_citation_journal_id_ASTM
primary 'Acta Crystallographica (1,1948-23,1967)' 1952 5 433 436 ACCRA9
_publ_author_name                  'Brink, C.;Stenfert Kroese, H.A.'
_cell_length_a                     19.520(20)
_cell_length_b                     9.98(2)
_cell_length_c                     4.74(4)
_cell_angle_alpha                  90.
_cell_angle_beta                   90.
_cell_angle_gamma                  90.
_cell_volume                       923.4
_cell_formula_units_Z              4
_symmetry_space_group_name_H-M     'P b n m'
_symmetry_Int_Tables_number        62
loop_
_symmetry_equiv_pos_site_id
_symmetry_equiv_pos_as_xyz
  1	'-x+.5, y+.5, z'
  2	'x, y, -z+.5'
  3	'x+.5, -y+.5, z+.5'
  4	'-x, -y, -z'
  5	'x+.5, -y+.5, -z'
  6	'-x, -y, z+.5'
  7	'-x+.5, y+.5, -z+.5'
  8	'x, y, z'
loop_
_atom_type_symbol
_atom_type_oxidation_number
Ag1+	1
I1-	-1
K1+	1
loop_
_atom_site_label
_atom_site_type_symbol
_atom_site_symmetry_multiplicity
_atom_site_Wyckoff_symbol
_atom_site_fract_x
_atom_site_fract_y
_atom_site_fract_z
_atom_site_occupancy
_atom_site_attached_hydrogens
Ag1 Ag1+ 4 c 0.135 0.129 0.25 1. 0 
I1 I1- 4 c 0.278 0.187 0.25 1. 0 
I2 I1- 4 c 0.071 0.382 0.25 1. 0 
I3 I1- 4 c -.099 0.008 0.25 1. 0 
K1 K1+ 4 c 0.714 0.075 0.25 1. 0 
K2 K1+ 4 c 0.464 0.249 0.25 1. 0 

#End of data_26107-ICSD


