data_152284-ICSD
#?2014 by Fachinformationszentrum Karlsruhe, and the U.S. Secretary of 
#Commerce on behalf of the United States.  All rights reserved.
_database_code_ICSD                152284
_audit_creation_date               2006/10/01
_audit_update_record               2013/08/01
_chemical_name_systematic
;
Lanthanum Magnesium Titanium Oxide (1/0.5/0.5/3)
;
_chemical_formula_structural       'La Mg0.5 Ti0.5 O3'
_chemical_formula_sum              'La1 Mg0.5 O3 Ti0.5'
_publ_section_title
;
Structural behavior and Raman spectra of perovskite-like solid 
solutions (1-x)(La Mg0.5 Ti0.5 O3) - x(La2/3 Ti O3)
;
loop_
_citation_id
_citation_journal_abbrev
_citation_year
_citation_journal_volume
_citation_page_first
_citation_page_last
_citation_journal_id_ASTM
primary 'Chemistry of Materials' 2005 17 3273 3280 CMATEX
_publ_author_name
;
Levin, I.;Vanderah, T.A.;Amos, T.G.;Maslar, J.E.
;
_cell_length_a                     5.5638(2)
_cell_length_b                     5.5727(2)
_cell_length_c                     7.8644(2)
_cell_angle_alpha                  90.
_cell_angle_beta                   90.062(4)
_cell_angle_gamma                  90.
_cell_volume                       243.84
_cell_formula_units_Z              4
_symmetry_space_group_name_H-M     'P 1 21/n 1'
_symmetry_Int_Tables_number        14
loop_
_symmetry_equiv_pos_site_id
_symmetry_equiv_pos_as_xyz
  1	'-x+.5, y+.5, -z+.5'
  2	'-x, -y, -z'
  3	'x+.5, -y+.5, z+.5'
  4	'x, y, z'
loop_
_atom_type_symbol
_atom_type_oxidation_number
La3+	3
Mg2+	2
O2-	-2
Ti4+	4
loop_
_atom_site_label
_atom_site_type_symbol
_atom_site_symmetry_multiplicity
_atom_site_Wyckoff_symbol
_atom_site_fract_x
_atom_site_fract_y
_atom_site_fract_z
_atom_site_occupancy
_atom_site_attached_hydrogens
_atom_site_U_iso_or_equiv
La1 La3+ 4 e -0.007(2) 0.028(3) 0.2490(9) 1. 0 0.0069 
Mg1 Mg2+ 2 c 0 0.5 0 1. 0 0.0117(11) 
Ti1 Ti4+ 2 d 0.5 0 0 1. 0 0.0069(17) 
O1 O2- 4 e 0.2254(9) 0.2106(8) -0.0404(6) 1. 0 0.0049 
O2 O2- 4 e 0.2109(9) 0.224(1) 0.5369(7) 1. 0 0.0120 
O3 O2- 4 e 0.4281(7) -0.0150(6) 0.2440(6) 1. 0 0.012 

loop_
_atom_site_aniso_label
_atom_site_aniso_type_symbol
_atom_site_aniso_U_11
_atom_site_aniso_U_22
_atom_site_aniso_U_33
_atom_site_aniso_U_12
_atom_site_aniso_U_13
_atom_site_aniso_U_23
La1 La3+ 0.005(1) 0.009(1) 0.006(1) -0.002(2) -0.003(2) 0.001(2)
O1 O2- 0.005(3) 0.005(2) 0.005(3) -0.004(2) -0.001(2) 0.001(2)
O2 O2- 0.011(3) 0.0014(3) 0.011(3) 0.006(2) -0.002(1) 0.001(2)
O3 O2- 0.010(2) 0.016(2) 0.010(1) -0.0002(9) -0.007(2) 0.010(2)
#End of data_152284-ICSD


