data_65050-ICSD
#?2014 by Fachinformationszentrum Karlsruhe, and the U.S. Secretary of 
#Commerce on behalf of the United States.  All rights reserved.
_database_code_ICSD                65050
_audit_creation_date               1989/06/19
_audit_update_record               2003/04/01
_chemical_name_systematic          'Lithium Cadmium Phosphate(V)'
_chemical_formula_structural       'Li Cd (P O4)'
_chemical_formula_sum              'Cd1 Li1 O4 P1'
_publ_section_title                'Structure of Li Cd P O4'
loop_
_citation_id
_citation_journal_abbrev
_citation_year
_citation_journal_volume
_citation_journal_issue
_citation_page_first
_citation_page_last
_citation_journal_id_ASTM
primary 'Acta Crystallographica, Section C: Crystal Structure Communications'
 1988 44 8 1357 1359 ACSCEE
2 'Phase Transition' 1992 38- 127 220 PHTRDP
_publ_author_name
;
Elammari, L.;Elouadi, B.;Depmeier, W.
;
_cell_length_a                     10.713(4)
_cell_length_b                     4.801(1)
_cell_length_c                     6.284(3)
_cell_angle_alpha                  90.
_cell_angle_beta                   90.
_cell_angle_gamma                  90.
_cell_volume                       323.21
_cell_formula_units_Z              4
_symmetry_space_group_name_H-M     'P n a 21'
_symmetry_Int_Tables_number        33
_refine_ls_R_factor_all            .0206
loop_
_symmetry_equiv_pos_site_id
_symmetry_equiv_pos_as_xyz
  1	'x+.5, -y+.5, z'
  2	'-x+.5, y+.5, z+.5'
  3	'-x, -y, z+.5'
  4	'x, y, z'
loop_
_atom_type_symbol
_atom_type_oxidation_number
Cd2+	2
Li1+	1
O2-	-2
P5+	5
loop_
_atom_site_label
_atom_site_type_symbol
_atom_site_symmetry_multiplicity
_atom_site_Wyckoff_symbol
_atom_site_fract_x
_atom_site_fract_y
_atom_site_fract_z
_atom_site_occupancy
_atom_site_attached_hydrogens
Cd1 Cd2+ 4 a 0.2156(1) 0.0450(1) 0.25 1. 0 
P1 P5+ 4 a 0.9107(1) -.1046(1) 0.2475(4) 1. 0 
O1 O2- 4 a 0.9067(2) 0.2114(4) 0.2509(10) 1. 0 
O2 O2- 4 a 0.0440(2) -.2253(4) 0.2482(12) 1. 0 
O3 O2- 4 a 0.8475(4) -.2464(10) 0.0556(8) 1. 0 
O4 O2- 4 a 0.8414(4) -.2249(10) 0.4471(7) 1. 0 
Li1 Li1+ 4 a 0.9976(30) -.5137(48) 0.0048(52) 1. 0 

#End of data_65050-ICSD


