data_40989-ICSD
#?2014 by Fachinformationszentrum Karlsruhe, and the U.S. Secretary of 
#Commerce on behalf of the United States.  All rights reserved.
_database_code_ICSD                40989
_audit_creation_date               2000/07/15
_audit_update_record               2011/02/01
_chemical_name_systematic
;
Dipotassium Dicalcium Tris(sulfate(VI))
;
_chemical_formula_structural       'K2 Ca2 (S O4)3'
_chemical_formula_sum              'Ca2 K2 O12 S3'
_publ_section_title
;
Phase transitions in langbeinites I: Crystal chemistry and structures 
of K-double sulfates of the langbeinite type M2(2+) K2 (S O4)3, M(2+) 
= Mg, Ni, Co, Zn, Ca
;
loop_
_citation_id
_citation_journal_abbrev
_citation_year
_citation_journal_volume
_citation_page_first
_citation_page_last
_citation_journal_id_ASTM
primary 'Physics and Chemistry of Minerals' 1986 13 17 24 PCMIDU
_publ_author_name                  'Speer, D.;Salje, E.'
_cell_length_a                     10.33
_cell_length_b                     10.5
_cell_length_c                     10.18
_cell_angle_alpha                  90.
_cell_angle_beta                   90.
_cell_angle_gamma                  90.
_cell_volume                       1104.17
_cell_formula_units_Z              4
_symmetry_space_group_name_H-M     'P 21 21 21'
_symmetry_Int_Tables_number        19
_refine_ls_R_factor_all            .0245
loop_
_symmetry_equiv_pos_site_id
_symmetry_equiv_pos_as_xyz
  1	'-x, y+.5, -z+.5'
  2	'x+.5, -y+.5, -z'
  3	'-x+.5, -y, z+.5'
  4	'x, y, z'
loop_
_atom_type_symbol
_atom_type_oxidation_number
Ca2+	2
K1+	1
O2-	-2
S6+	6
loop_
_atom_site_label
_atom_site_type_symbol
_atom_site_symmetry_multiplicity
_atom_site_Wyckoff_symbol
_atom_site_fract_x
_atom_site_fract_y
_atom_site_fract_z
_atom_site_occupancy
_atom_site_attached_hydrogens
K1 K1+ 4 a 0.8308(1) 0.8132(1) 0.8111(1) 1. 0 
K2 K1+ 4 a 0.0343(1) 0.0570(1) 0.0614(1) 1. 0 
Ca1 Ca2+ 4 a 0.3065(1) 0.3395(1) 0.3245(1) 1. 0 
Ca2 Ca2+ 4 a 0.5987(1) 0.5940(1) 0.5752(1) 1. 0 
S1 S6+ 4 a 0.2112(1) 0.3719(1) 0.0191(1) 1. 0 
S2 S6+ 4 a 0.3872(1) 0.0045(1) 0.2507(1) 1. 0 
S3 S6+ 4 a 0.0010(1) 0.2179(1) 0.3697(1) 1. 0 
O1 O2- 4 a 0.3075(3) 0.2695(3) 0.0349(4) 1. 0 
O2 O2- 4 a 0.0866(3) 0.3186(3) 0.9758(4) 1. 0 
O3 O2- 4 a 0.2583(3) 0.4629(3) 0.9203(4) 1. 0 
O4 O2- 4 a 0.1933(4) 0.4345(4) 0.1476(3) 1. 0 
O5 O2- 4 a 0.3047(3) 0.9320(3) 0.3418(3) 1. 0 
O6 O2- 4 a 0.3941(4) 0.1387(3) 0.2908(4) 1. 0 
O7 O2- 4 a 0.5187(3) 0.9521(3) 0.2603(4) 1. 0 
O8 O2- 4 a 0.3367(4) 0.9903(4) 0.1172(3) 1. 0 
O9 O2- 4 a 0.0622(4) 0.1013(3) 0.3200(4) 1. 0 
O10 O2- 4 a 0.9066(4) 0.1877(3) 0.4734(3) 1. 0 
O11 O2- 4 a 0.9294(3) 0.2776(4) 0.2597(4) 1. 0 
O12 O2- 4 a 0.0996(3) 0.3051(3) 0.4214(3) 1. 0 

#End of data_40989-ICSD


