data_69387-ICSD
#?2014 by Fachinformationszentrum Karlsruhe, and the U.S. Secretary of 
#Commerce on behalf of the United States.  All rights reserved.
_database_code_ICSD                69387
_audit_creation_date               1992/08/20
_audit_update_record               2007/08/01
_chemical_name_systematic          'Dicalcium Zinc Digermanate - Ht'
_chemical_formula_structural       'Ca2 Zn (Ge2 O7)'
_chemical_formula_sum              'Ca2 Ge2 O7 Zn1'
_publ_section_title
;
Layer topology, stacking variation and site distortion in melilite-
related compounds in the system CaO-ZnO-GeO2-SiO2
;
loop_
_citation_id
_citation_journal_abbrev
_citation_year
_citation_journal_volume
_citation_page_first
_citation_page_last
_citation_journal_id_ASTM
primary 'American Mineralogist' 1990 75 847 858 AMMIAY
_publ_author_name
;
Armbruster, T.;Roethlisberger, F.;Seifert, F.
;
_cell_length_a                     7.950(1)
_cell_length_b                     7.950(1)
_cell_length_c                     5.186(1)
_cell_angle_alpha                  90.
_cell_angle_beta                   90.
_cell_angle_gamma                  90.
_cell_volume                       327.77
_cell_formula_units_Z              2
_symmetry_space_group_name_H-M     'P -4 21 m'
_symmetry_Int_Tables_number        113
_refine_ls_R_factor_all            .054
loop_
_symmetry_equiv_pos_site_id
_symmetry_equiv_pos_as_xyz
  1	'-y+.5, -x+.5, z'
  2	'y, -x, -z'
  3	'y+.5, x+.5, z'
  4	'-y, x, -z'
  5	'x+.5, -y+.5, -z'
  6	'-x, -y, z'
  7	'-x+.5, y+.5, -z'
  8	'x, y, z'
loop_
_atom_type_symbol
_atom_type_oxidation_number
Ca2+	2
Ge4+	4
O2-	-2
Zn2+	2
loop_
_atom_site_label
_atom_site_type_symbol
_atom_site_symmetry_multiplicity
_atom_site_Wyckoff_symbol
_atom_site_fract_x
_atom_site_fract_y
_atom_site_fract_z
_atom_site_occupancy
_atom_site_attached_hydrogens
Ca1 Ca2+ 4 e 0.3320(2) 0.1680(2) 0.5038(6) 1. 0 
Zn1 Zn2+ 2 a 0 0 0 1. 0 
Ge1 Ge4+ 4 e 0.14206(9) 0.35794(9) 0.9531(2) 1. 0 
O1 O2- 2 c 0.5 0 0.181(3) 1. 0 
O2 O2- 4 e 0.1400(8) 0.3600(8) 0.277(2) 1. 0 
O3 O2- 8 f 0.088(2) 0.179(1) 0.783(2) 1. 0 

loop_
_atom_site_aniso_label
_atom_site_aniso_type_symbol
_atom_site_aniso_U_11
_atom_site_aniso_U_22
_atom_site_aniso_U_33
_atom_site_aniso_U_12
_atom_site_aniso_U_13
_atom_site_aniso_U_23
Ca1 Ca2+ 0.049(1) 0.049(1) 0.0141(8) 0.038(1) 0.0001(5) -.0001(5)
Zn1 Zn2+ 0.0196(4) 0.0196(4) 0.0092(6) 0 0 0
Ge1 Ge4+ 0.0152(2) 0.0152(2) 0.0109(4) 0.0002(3) 0.0040(2) -.0040(2)
O1 O2- 0.11(2) 0.11(2) 0.006(4) -.09(2) 0 0
O2 O2- 0.042(3) 0.042(3) 0.012(3) 0.025(5) -.002(2) 0.002(2)
O3 O2- 0.20(1) 0.042(4) 0.031(4) -.075(7) 0.061(6) -.026(4)
#End of data_69387-ICSD


