data_153515-ICSD
#?2014 by Fachinformationszentrum Karlsruhe, and the U.S. Secretary of 
#Commerce on behalf of the United States.  All rights reserved.
_database_code_ICSD                153515
_audit_creation_date               2006/10/01
_chemical_name_systematic          'Lithium Cobalt Tris(phosphate(V))'
_chemical_formula_structural       'Li Co (P O3)3'
_chemical_formula_sum              'Co1 Li1 O9 P3'
_publ_section_title
;
Synthesis, crystal structure and magnetic properties of a new lithium 
cobalt metaphosphate, Li Co (P O3)3
;
loop_
_citation_id
_citation_journal_abbrev
_citation_year
_citation_journal_volume
_citation_page_first
_citation_page_last
_citation_journal_id_ASTM
primary 'Materials Research Bulletin' 2005 40 1787 1795 MRBUAC
_publ_author_name                  'Choi Seungdon;Hong Seung-Tae'
_cell_length_a                     8.5398(2)
_cell_length_b                     8.6326(2)
_cell_length_c                     8.3520(2)
_cell_angle_alpha                  90.
_cell_angle_beta                   90.
_cell_angle_gamma                  90.
_cell_volume                       615.72
_cell_formula_units_Z              4
_symmetry_space_group_name_H-M     'P 21 21 21'
_symmetry_Int_Tables_number        19
_refine_ls_R_factor_all            .136
loop_
_symmetry_equiv_pos_site_id
_symmetry_equiv_pos_as_xyz
  1	'-x, y+.5, -z+.5'
  2	'x+.5, -y+.5, -z'
  3	'-x+.5, -y, z+.5'
  4	'x, y, z'
loop_
_atom_type_symbol
_atom_type_oxidation_number
Co2+	2
Li1+	1
O2-	-2
P5+	5
loop_
_atom_site_label
_atom_site_type_symbol
_atom_site_symmetry_multiplicity
_atom_site_Wyckoff_symbol
_atom_site_fract_x
_atom_site_fract_y
_atom_site_fract_z
_atom_site_occupancy
_atom_site_attached_hydrogens
_atom_site_U_iso_or_equiv
Co1 Co2+ 4 a 0.3561(5) 0.8434(5) 0.6278(6) 1. 0 0.015(6) 
P1 P5+ 4 a 0.192(1) 0.5595(9) 0.2021(8) 1. 0 0.017(7) 
P2 P5+ 4 a 0.4809(9) 0.6876(8) 0.3131(9) 1. 0 0.015(7) 
P3 P5+ 4 a 0.6794(8) 0.6848(9) 0.0283(8) 1. 0 0.016(6) 
O1 O2- 4 a 0.140(2) 0.405(2) 0.156(2) 1. 0 0.011(6) 
O2 O2- 4 a 0.091(2) 0.655(2) 0.313(2) 1. 0 0.011(6) 
O3 O2- 4 a 0.229(2) 0.657(2) 0.042(2) 1. 0 0.011(6) 
O4 O2- 4 a 0.363(2) 0.548(2) 0.270(2) 1. 0 0.011(6) 
O5 O2- 4 a 0.385(2) 0.820(2) 0.382(2) 1. 0 0.011(6) 
O6 O2- 4 a 0.614(2) 0.635(2) 0.408(2) 1. 0 0.011(6) 
O7 O2- 4 a 0.536(2) 0.736(2) 0.134(2) 1. 0 0.011(6) 
O8 O2- 4 a 0.621(2) 0.586(2) 0.888(2) 1. 0 0.011(6) 
O9 O2- 4 a 0.807(2) 0.618(2) 0.130(2) 1. 0 0.011(6) 
Li1 Li1+ 4 a 0.137(6) 0.879(4) 0.338(5) 1. 0 0.011(6) 

#End of data_153515-ICSD


