data_166611-ICSD
#?2014 by Fachinformationszentrum Karlsruhe, and the U.S. Secretary of 
#Commerce on behalf of the United States.  All rights reserved.
_database_code_ICSD                166611
_audit_creation_date               2010/08/01
_chemical_name_systematic          'Lithium Iron(III) Diphosphate(V)'
_chemical_formula_structural       'Li Fe (P2 O7)'
_chemical_formula_sum              'Fe1 Li1 O7 P2'
_publ_section_title
;
Synthesis and atomic structure of the new double pyrophosphate Li Fe 
P2 O7
;
loop_
_citation_id
_citation_journal_abbrev
_citation_year
_citation_journal_volume
_citation_journal_issue
_citation_page_first
_citation_page_last
_citation_journal_id_ASTM
primary 'Doklady Akademii Nauk SSSR' 1985 284 4 864 867 DANKAS
_publ_author_name
;
Genkina, E.A.;Maximov, B.A.;Timofeeva, V.A.;Bykov, A.B.;Mel'nikov, 
O.K.
;
_cell_length_a                     4.825(1)
_cell_length_b                     6.938(2)
_cell_length_c                     8.079(2)
_cell_angle_alpha                  90.
_cell_angle_beta                   90.
_cell_angle_gamma                  109.38(2)
_cell_volume                       255.13
_cell_formula_units_Z              2
_symmetry_space_group_name_H-M     'P 1 1 21'
_symmetry_Int_Tables_number        4
_refine_ls_R_factor_all            .04
loop_
_symmetry_equiv_pos_site_id
_symmetry_equiv_pos_as_xyz
  1	'-x, -y, z+.5'
  2	'x, y, z'
loop_
_atom_type_symbol
_atom_type_oxidation_number
Fe3+	3
Li1+	1
O2-	-2
P5+	5
loop_
_atom_site_label
_atom_site_type_symbol
_atom_site_symmetry_multiplicity
_atom_site_Wyckoff_symbol
_atom_site_fract_x
_atom_site_fract_y
_atom_site_fract_z
_atom_site_occupancy
_atom_site_attached_hydrogens
_atom_site_B_iso_or_equiv
Li1 Li1+ 2 a 0.804(4) 0.337(2) 0.365(2) 1. 0 1.92 
Fe1 Fe3+ 2 a 0.7805(1) 0.2660(1) 0 1. 0 0.33 
P1 P5+ 2 a 0.6003(2) 0.4797(2) 0.6837(2) 1. 0 0.34 
P2 P5+ 2 a 0.2061(2) 0.0826(2) 0.7845(2) 1. 0 0.38 
O1 O2- 2 a 0.8661(8) 0.1198(5) 0.1953(5) 1. 0 0.76 
O2 O2- 2 a 0.5976(8) 0.3912(5) 0.1838(5) 1. 0 0.77 
O3 O2- 2 a 0.7519(7) 0.4886(5) 0.8506(4) 1. 0 0.62 
O4 O2- 2 a 0.3917(8) 0.0800(6) 0.9365(5) 1. 0 0.82 
O5 O2- 2 a 0.9377(8) 0.1405(6) 0.8255(5) 1. 0 0.85 
O6 O2- 2 a 0.1860(7) 0.4815(5) 0.0398(4) 1. 0 0.65 
O7 O2- 2 a 0.3972(8) 0.2465(5) 0.6549(4) 1. 0 0.69 

#End of data_166611-ICSD


