data_36289-ICSD
#?2014 by Fachinformationszentrum Karlsruhe, and the U.S. Secretary of 
#Commerce on behalf of the United States.  All rights reserved.
_database_code_ICSD                36289
_audit_creation_date               1984/12/31
_audit_update_record               2007/08/01
_chemical_name_systematic          'Zinc Ditantalum Oxide'
_chemical_formula_structural       'Zn Ta2 O6'
_chemical_formula_sum              'O6 Ta2 Zn1'
_publ_section_title
;
Zn Ta2 O6, ein neuer Vertreter des tri Pb O2-alpha Typs (mit 
ergaenzenden Daten ueber Zn Nb2 O6)
;
loop_
_citation_id
_citation_journal_abbrev
_citation_year
_citation_journal_volume
_citation_page_first
_citation_page_last
_citation_journal_id_ASTM
primary 'Zeitschrift fuer Anorganische und Allgemeine Chemie (1950) (DE)'
 1984 508 55 60 ZAACAB
2 'Powder Diffraction' 1988 3 113 121 PODIE2
_publ_author_name                  'Waburg, M.;Mueller Buschbaum, H.'
_cell_length_a                     4.702
_cell_length_b                     17.09399
_cell_length_c                     5.07
_cell_angle_alpha                  90.
_cell_angle_beta                   90.
_cell_angle_gamma                  90.
_cell_volume                       407.51
_cell_formula_units_Z              4
_symmetry_space_group_name_H-M     'P b c n'
_symmetry_Int_Tables_number        60
_refine_ls_R_factor_all            .091
loop_
_symmetry_equiv_pos_site_id
_symmetry_equiv_pos_as_xyz
  1	'x, -y, z+.5'
  2	'-x+.5, y+.5, z'
  3	'x+.5, y+.5, -z+.5'
  4	'-x, -y, -z'
  5	'-x, y, -z+.5'
  6	'x+.5, -y+.5, -z'
  7	'-x+.5, -y+.5, z+.5'
  8	'x, y, z'
loop_
_atom_type_symbol
_atom_type_oxidation_number
O2-	-2
Ta5+	5
Zn2+	2
loop_
_atom_site_label
_atom_site_type_symbol
_atom_site_symmetry_multiplicity
_atom_site_Wyckoff_symbol
_atom_site_fract_x
_atom_site_fract_y
_atom_site_fract_z
_atom_site_occupancy
_atom_site_attached_hydrogens
_atom_site_B_iso_or_equiv
Zn1 Zn2+ 4 c 0 0.1012(5) 0.25 1. 0 0.86(12) 
Ta1 Ta5+ 4 c 0 0.4442(1) 0.25 1. 0 0.16(3) 
Ta2 Ta5+ 4 c 0 0.2199(1) 0.75 1. 0 0.21(3) 
O1 O2- 8 d 0.218(9) 0.466(2) 0.568(9) 1. 0 0.28(51) 
O2 O2- 8 d 0.237(10) 0.130(3) 0.598(8) 1. 0 0.46(53) 
O3 O2- 8 d 0.249(10) 0.210(3) 0.068(10) 1. 0 0.66(58) 

#End of data_36289-ICSD


