data_24656-ICSD
#?2014 by Fachinformationszentrum Karlsruhe, and the U.S. Secretary of 
#Commerce on behalf of the United States.  All rights reserved.
_database_code_ICSD                24656
_audit_creation_date               1980/01/01
_audit_update_record               2007/08/01
_chemical_name_systematic          'Dimagnesium Diborate'
_chemical_formula_structural       'Mg2 (B2 O5)'
_chemical_formula_sum              'B2 Mg2 O5'
_chemical_name_mineral             Suanite
_publ_section_title
;
The crystal structure of magnesium pyroborate
;
loop_
_citation_id
_citation_journal_abbrev
_citation_year
_citation_journal_volume
_citation_page_first
_citation_page_last
_citation_journal_id_ASTM
primary 'Acta Crystallographica (1,1948-23,1967)' 1952 5 574 581 ACCRA9
_publ_author_name                  'Takeuchi, Y.'
_cell_length_a                     12.10(5)
_cell_length_b                     3.12(2)
_cell_length_c                     9.36(5)
_cell_angle_alpha                  90.
_cell_angle_beta                   104.33(50)
_cell_angle_gamma                  90.
_cell_volume                       342.36
_cell_formula_units_Z              4
_symmetry_space_group_name_H-M     'P 1 21/a 1'
_symmetry_Int_Tables_number        14
loop_
_symmetry_equiv_pos_site_id
_symmetry_equiv_pos_as_xyz
  1	'x+.5, -y+.5, z'
  2	'-x, -y, -z'
  3	'-x+.5, y+.5, -z'
  4	'x, y, z'
loop_
_atom_type_symbol
_atom_type_oxidation_number
B3+	3
Mg2+	2
O2-	-2
loop_
_atom_site_label
_atom_site_type_symbol
_atom_site_symmetry_multiplicity
_atom_site_Wyckoff_symbol
_atom_site_fract_x
_atom_site_fract_y
_atom_site_fract_z
_atom_site_occupancy
_atom_site_attached_hydrogens
Mg1 Mg2+ 4 e 0.147 0.31 0.135 1. 0 
Mg2 Mg2+ 4 e 0.061 0.75 0.412 1. 0 
B1 B3+ 4 e 0.298 0.71 0.321 1. 0 
B2 B3+ 4 e 0.408 0.35 0.146 1. 0 
O1 O2- 4 e 0.187 0.81 0.32 1. 0 
O2 O2- 4 e 0.39 0.8 0.438 1. 0 
O3 O2- 4 e 0.315 0.5 0.199 1. 0 
O4 O2- 4 e 0.006 0.25 0.245 1. 0 
O5 O2- 4 e 0.387 0.31 0 1. 0 

#End of data_24656-ICSD


