data_261837-ICSD
#?2014 by Fachinformationszentrum Karlsruhe, and the U.S. Secretary of 
#Commerce on behalf of the United States.  All rights reserved.
_database_code_ICSD                261837
_audit_creation_date               2012/02/01
_chemical_name_systematic          'Lithium Erbium Ditungstate'
_chemical_formula_structural       'Li Er W2 O8'
_chemical_formula_sum              'Er1 Li1 O8 W2'
_publ_section_title
;
Crystal structure of Li Ln W2 O8 (Ln=Lanthanides and Y): An X-ray 
powder diffraction study
;
loop_
_citation_id
_citation_journal_abbrev
_citation_year
_citation_journal_volume
_citation_journal_issue
_citation_page_first
_citation_page_last
_citation_journal_id_ASTM
primary 'Journal of Solid State Chemistry' 2011 184 8 2004 2008 JSSCBI
_publ_author_name
;
Postema, J.M.;Fu, W.T.;Ijdo, D.J.W.
;
_cell_length_a                     9.9632(1)
_cell_length_b                     5.78567(6)
_cell_length_c                     5.00354(5)
_cell_angle_alpha                  90.
_cell_angle_beta                   94.0804(6)
_cell_angle_gamma                  90.
_cell_volume                       287.69
_cell_formula_units_Z              2
_symmetry_space_group_name_H-M     'P 1 2/n 1'
_symmetry_Int_Tables_number        13
_refine_ls_R_factor_all            .0555
loop_
_symmetry_equiv_pos_site_id
_symmetry_equiv_pos_as_xyz
  1	'x+.5, -y, z+.5'
  2	'-x+.5, y, -z+.5'
  3	'-x, -y, -z'
  4	'x, y, z'
loop_
_atom_type_symbol
_atom_type_oxidation_number
Er3+	3
Li1+	1
O2-	-2
W6+	6
loop_
_atom_site_label
_atom_site_type_symbol
_atom_site_symmetry_multiplicity
_atom_site_Wyckoff_symbol
_atom_site_fract_x
_atom_site_fract_y
_atom_site_fract_z
_atom_site_occupancy
_atom_site_attached_hydrogens
_atom_site_B_iso_or_equiv
Li1 Li1+ 2 f 0.25 0.236(6) 0.75 1. 0 -0.01(2) 
Er1 Er3+ 2 e 0.25 0.6980(2) 0.25 1. 0 -0.01(2) 
W1 W6+ 4 g 0.01711(8) 0.1819(2) 0.2519(1) 1. 0 -0.01(2) 
O1 O2- 4 g 0.1154(9) 0.627(1) 0.900(2) 1. 0 -0.01(2) 
O2 O2- 4 g 0.1387(9) 0.378(1) 0.417(2) 1. 0 -0.01(2) 
O3 O2- 4 g 0.116(1) 0.087(1) 0.959(2) 1. 0 -0.01(2) 
O4 O2- 4 g 0.0967(9) 0.888(1) 0.455(2) 1. 0 -0.01(2) 

#End of data_261837-ICSD


