data_15175-ICSD
#?2014 by Fachinformationszentrum Karlsruhe, and the U.S. Secretary of 
#Commerce on behalf of the United States.  All rights reserved.
_database_code_ICSD                15175
_audit_creation_date               1986/08/12
_audit_update_record               2007/08/01
_chemical_name_systematic
;
Zinc Bis(tris(chromato)silicatopentaplumbate) Difluoride
;
_chemical_formula_structural       'Zn (Pb5 (Cr O4)3 (Si O4))2 F2'
_chemical_formula_sum              'Cr6 F2 O32 Pb10 Si2 Zn1'
_chemical_name_mineral             Hemihedrite
_publ_section_title
;
The crystal structure of hemihedrite
;
loop_
_citation_id
_citation_journal_abbrev
_citation_year
_citation_journal_volume
_citation_page_first
_citation_page_last
_citation_journal_id_ASTM
primary 'American Mineralogist' 1970 55 1103 1114 AMMIAY
_publ_author_name                  'McLean, W.J.;Anthony, J.W.'
_cell_length_a                     9.497(3)
_cell_length_b                     11.443(5)
_cell_length_c                     10.841(4)
_cell_angle_alpha                  120.50(4)
_cell_angle_beta                   92.10(4)
_cell_angle_gamma                  55.84(3)
_cell_volume                       787.38
_cell_formula_units_Z              1
_symmetry_space_group_name_H-M     'P -1'
_symmetry_Int_Tables_number        2
_refine_ls_R_factor_all            .04
loop_
_symmetry_equiv_pos_site_id
_symmetry_equiv_pos_as_xyz
  1	'-x, -y, -z'
  2	'x, y, z'
loop_
_atom_type_symbol
_atom_type_oxidation_number
Cr6+	6
F1-	-1
O2-	-2
Pb2+	2
Si4+	4
Zn2+	2
loop_
_atom_site_label
_atom_site_type_symbol
_atom_site_symmetry_multiplicity
_atom_site_Wyckoff_symbol
_atom_site_fract_x
_atom_site_fract_y
_atom_site_fract_z
_atom_site_occupancy
_atom_site_attached_hydrogens
_atom_site_B_iso_or_equiv
Pb1 Pb2+ 2 i 0.2591(1) 0.1116(1) 0.2594(1) 1. 0 0 
Pb2 Pb2+ 2 i 0.2616(1) 0.0862(1) 0.6568(1) 1. 0 0 
Pb3 Pb2+ 2 i 0.9306(1) 0.2442(1) 0.0306(1) 1. 0 0 
Pb4 Pb2+ 2 i 0.7307(1) 0.4165(1) 0.7513(1) 1. 0 0 
Pb5 Pb2+ 2 i 0.3171(1) 0.4530(1) 0.5316(1) 1. 0 0 
Zn1 Zn2+ 1 c 0 0.5 0 1. 0 0 
Cr1 Cr6+ 2 i 0.9591(4) 0.0752(4) 0.3555(4) 1. 0 0 
Cr2 Cr6+ 2 i 0.5642(4) 0.1758(4) 0.1535(4) 1. 0 0 
Cr3 Cr6+ 2 i 0.4470(4) 0.3246(4) 0.8369(4) 1. 0 0 
Si1 Si4+ 2 i 0.0229(6) 0.4516(6) 0.6594(5) 1. 0 0 
F1 F1- 2 i 0.1425(25) 0.2488(24) 0.9318(21) 1. 0 0.87(32) 
O1 O2- 2 i 0.7535(27) 0.2193(27) 0.4835(23) 1. 0 2.12(36) 
O2 O2- 2 i 0.1079(35) 0.0778(34) 0.4436(29) 1. 0 2.38(49) 
O3 O2- 2 i 0.9940(26) 0.1184(25) 0.7361(22) 1. 0 1.92(33) 
O4 O2- 2 i 0.9677(28) 0.1120(27) 0.2294(23) 1. 0 2.36(37) 
O5 O2- 2 i 0.5101(26) 0.1407(25) 0.2712(21) 1. 0 1.54(33) 
O6 O2- 2 i 0.4318(24) 0.1992(23) 0.0573(20) 1. 0 2.16(30) 
O7 O2- 2 i 0.7772(27) 0.0082(26) 0.0274(22) 1. 0 2.06(34) 
O8 O2- 2 i 0.5405(24) 0.3585(23) 0.2686(20) 1. 0 1.76(29) 
O9 O2- 2 i 0.5990(24) 0.2969(24) 0.9141(21) 1. 0 1.87(31) 
O10 O2- 2 i 0.4559(31) 0.3985(29) 0.7442(26) 1. 0 2.45(1) 
O11 O2- 2 i 0.2385(27) 0.4815(26) 0.9767(23) 1. 0 0.97(35) 
O12 O2- 2 i 0.4794(21) 0.136(2) 0.7183(18) 1. 0 1.54(22) 
O13 O2- 2 i 0.2089(25) 0.3053(24) 0.5120(21) 1. 0 1.60(32) 
O14 O2- 2 i 0.0421(25) 0.3859(24) 0.7677(21) 1. 0 1.20(32) 
O15 O2- 2 i 0.9931(20) 0.3717(20) 0.2568(17) 1. 0 0.92(25) 
O16 O2- 2 i 0.8475(27) 0.4788(26) 0.6134(23) 1. 0 1.18(35) 

#End of data_15175-ICSD


