data_83832-ICSD
#?2014 by Fachinformationszentrum Karlsruhe, and the U.S. Secretary of 
#Commerce on behalf of the United States.  All rights reserved.
_database_code_ICSD                83832
_audit_creation_date               1999/01/19
_audit_update_record               2005/10/01
_chemical_name_systematic
;
Lithium Ditin(IV) Tris(phosphate(V)) - Lt
;
_chemical_formula_structural       'Li Sn2 (P O4)3'
_chemical_formula_sum              'Li1 O12 P3 Sn2'
_publ_section_title
;
Phase transition and crystal structures of Li Sn2 (P O4)3
;
loop_
_citation_id
_citation_journal_abbrev
_citation_year
_citation_journal_volume
_citation_page_first
_citation_page_last
_citation_journal_id_ASTM
primary 'European Journal of Solid State Inorganic Chemistry'
 1997 34 947 958 EJSCE5
2 'Golden Book of Phase Transitions, Wroclaw' 2002 1 1 123 GBOPT5
_publ_author_name
;
Morin, E.;Angenault, J.;Couturier, J.C.;Quarton, M.;He, H.;Klinowski, 
J.
;
_cell_length_a                     8.4029(1)
_cell_length_b                     8.4408(2)
_cell_length_c                     8.8897(1)
_cell_angle_alpha                  118.16(1)
_cell_angle_beta                   90.180(1)
_cell_angle_gamma                  119.681(1)
_cell_volume                       459.29
_cell_formula_units_Z              2
_symmetry_space_group_name_H-M     'P -1'
_symmetry_Int_Tables_number        2
_refine_ls_R_factor_all            .035
loop_
_symmetry_equiv_pos_site_id
_symmetry_equiv_pos_as_xyz
  1	'-x, -y, -z'
  2	'x, y, z'
loop_
_atom_type_symbol
_atom_type_oxidation_number
Li1+	1
O2-	-2
P5+	5
Sn4+	4
loop_
_atom_site_label
_atom_site_type_symbol
_atom_site_symmetry_multiplicity
_atom_site_Wyckoff_symbol
_atom_site_fract_x
_atom_site_fract_y
_atom_site_fract_z
_atom_site_occupancy
_atom_site_attached_hydrogens
_atom_site_B_iso_or_equiv
Li1 Li1+ 2 i 0.764(3) 0.254(4) 0.402(3) 1. 0 4.23(5) 
Sn1 Sn4+ 2 i 0.8650(8) 0.2097(9) 0.0701(9) 1. 0 0.44(5) 
Sn2 Sn4+ 2 i 0.6459(9) 0.7949(9) 0.4421(7) 1. 0 0.44(5) 
P1 P5+ 2 i -.0417(9) -.010(1) 0.245(3) 1. 0 0.90(6) 
P2 P5+ 2 i 0.256(2) 0.716(1) 0.2617(9) 1. 0 0.90(6) 
P3 P5+ 2 i 0.5388(9) 0.278(1) 0.2473(9) 1. 0 0.90(6) 
O1 O2- 2 i 0.8265(9) 0.8426(9) 0.3019(9) 1. 0 1.01(3) 
O2 O2- 2 i -.037(1) 0.863(1) 0.0591(8) 1. 0 1.01(3) 
O3 O2- 2 i 0.1593(7) 0.1499(9) 0.3729(8) 1. 0 1.01(3) 
O4 O2- 2 i 0.8817(9) 0.1276(9) 0.2486(8) 1. 0 1.01(3) 
O5 O2- 2 i 0.4539(9) 0.753(1) 0.2637(8) 1. 0 1.01(3) 
O6 O2- 2 i 0.1137(9) 0.504(1) 0.2516(9) 1. 0 1.01(3) 
O7 O2- 2 i 0.2529(9) 0.889(1) 0.4324(8) 1. 0 1.01(3) 
O8 O2- 2 i 0.1868(9) 0.7013(9) 0.0888(7) 1. 0 1.01(3) 
O9 O2- 2 i 0.7330(9) 0.336(1) 0.2274(8) 1. 0 1.01(3) 
O10 O2- 2 i 0.3794(8) 0.0807(9) 0.0753(8) 1. 0 1.01(3) 
O11 O2- 2 i 0.5292(9) 0.232(1) 0.3975(8) 1. 0 1.01(3) 
O12 O2- 2 i 0.5216(9) 0.4735(9) 0.3086(9) 1. 0 1.01(3) 

#End of data_83832-ICSD


