data_1836-ICSD
#?2014 by Fachinformationszentrum Karlsruhe, and the U.S. Secretary of 
#Commerce on behalf of the United States.  All rights reserved.
_database_code_ICSD                1836
_audit_creation_date               1980/01/01
_audit_update_record               2010/02/01
_chemical_name_systematic          'Hexaaquazinc Dithionate'
_chemical_formula_structural       '(Zn (H2 O)6) (S2 O6)'
_chemical_formula_sum              'H12 O12 S2 Zn1'
_publ_section_title                'M S2 O6 (H2 O)6 (M= Mg, Ni, Zn)'
loop_
_citation_id
_citation_journal_abbrev
_citation_year
_citation_journal_volume
_citation_page_first
_citation_page_last
_citation_journal_id_ASTM
primary 'Acta Crystallographica B (24,1968-38,1982)' 1975 31 615 617 ACBCAR
_publ_author_name
;
Black, W.H.;Griffith, E.A.H.;Robertson, B.E.
;
_cell_length_a                     6.799(2)
_cell_length_b                     6.752(3)
_cell_length_c                     6.491(4)
_cell_angle_alpha                  94.58(4)
_cell_angle_beta                   96.20(2)
_cell_angle_gamma                  101.47(2)
_cell_volume                       288.75
_cell_formula_units_Z              1
_symmetry_space_group_name_H-M     'P -1'
_symmetry_Int_Tables_number        2
_refine_ls_R_factor_all            .031
loop_
_symmetry_equiv_pos_site_id
_symmetry_equiv_pos_as_xyz
  1	'-x, -y, -z'
  2	'x, y, z'
loop_
_atom_type_symbol
_atom_type_oxidation_number
H1+	1
O2-	-2
S5+	5
Zn2+	2
loop_
_atom_site_label
_atom_site_type_symbol
_atom_site_symmetry_multiplicity
_atom_site_Wyckoff_symbol
_atom_site_fract_x
_atom_site_fract_y
_atom_site_fract_z
_atom_site_occupancy
_atom_site_attached_hydrogens
_atom_site_U_iso_or_equiv
Zn1 Zn2+ 1 a 0 0 0 1. 0 0 
S1 S5+ 2 i 0.3589(1) 0.5451(1) 0.5016(2) 1. 0 0 
O1 O2- 2 i 0.1211(7) 0.2980(5) -.0428(6) 1. 0 0 
O2 O2- 2 i -.0717(6) 0.0882(6) 0.2911(5) 1. 0 0 
O3 O2- 2 i 0.2830(6) -.0370(7) 0.1328(7) 1. 0 0 
O4 O2- 2 i 0.2239(6) 0.3695(6) 0.5588(6) 1. 0 0 
O5 O2- 2 i 0.4009(6) 0.7204(6) 0.6569(7) 1. 0 0 
O6 O2- 2 i 0.3072(7) 0.5907(6) 0.2903(6) 1. 0 0 
H1 H1+ 2 i 0.176(15) 0.381(15) 0.031(16) 1. 0 0.07(2) 
H2 H1+ 2 i 0.181(12) 0.323(12) -.149(14) 1. 0 0.05(2) 
H3 H1+ 2 i 0.020(13) 0.161(13) 0.356(13) 1. 0 0.05(2) 
H4 H1+ 2 i -.170(12) 0.134(11) 0.299(11) 1. 0 0.04(2) 
H5 H1+ 2 i 0.294(14) -.132(16) 0.167(14) 1. 0 0.06(2) 
H6 H1+ 2 i 0.356(14) 0.048(14) 0.019(13) 1. 0 0.05(2) 

loop_
_atom_site_aniso_label
_atom_site_aniso_type_symbol
_atom_site_aniso_U_11
_atom_site_aniso_U_22
_atom_site_aniso_U_33
_atom_site_aniso_U_12
_atom_site_aniso_U_13
_atom_site_aniso_U_23
Zn1 Zn2+ 0.028(1) 0.022(1) 0.025(1) 0.003(1) -.001(1) -.002(1)
S1 S5+ 0.026(1) 0.026(1) 0.030(1) 0.004(1) -.002(1) -.007(1)
O1 O2- 0.067(3) 0.027(2) 0.031(2) -.008(2) 0.004(2) -.002(1)
O2 O2- 0.037(2) 0.041(2) 0.032(2) 0.008(1) 0.001(1) -.009(1)
O3 O2- 0.036(2) 0.032(2) 0.060(2) 0.004(1) -.015(1) 0.004(2)
O4 O2- 0.038(2) 0.054(2) 0.041(2) -.016(2) 0.009(1) -.006(2)
O5 O2- 0.037(2) 0.048(2) 0.060(2) 0.012(2) -.006(2) -.032(2)
O6 O2- 0.059(2) 0.035(2) 0.045(2) 0.011(2) -.020(2) 0.005(1)
#End of data_1836-ICSD


