data_412535-ICSD
#?2014 by Fachinformationszentrum Karlsruhe, and the U.S. Secretary of 
#Commerce on behalf of the United States.  All rights reserved.
_database_code_ICSD                412535
_audit_creation_date               2003/04/01
_chemical_name_systematic          'Dipotassium Sulfide - Hp'
_chemical_formula_structural       'K2 S'
_chemical_formula_sum              'K2 S1'
_publ_section_title
;
Antifluorite to (Ni2 In)-type phase transition in K2 S at high 
pressures
;
loop_
_citation_id
_citation_journal_abbrev
_citation_year
_citation_journal_volume
_citation_page_first
_citation_page_last
_citation_journal_id_ASTM
primary 'Solid State Sciences' 2002 4 1077 1081 SSSCFJ
_publ_author_name
;
Vegas, A.;Grzechnik, A.;Hanfland, M.;Muehle, C.;Jansen, M.
;
_cell_length_a                     6.5294(18)
_cell_length_b                     5.09396(19)
_cell_length_c                     8.7716(16)
_cell_angle_alpha                  90.
_cell_angle_beta                   90.
_cell_angle_gamma                  90.
_cell_volume                       291.75
_cell_formula_units_Z              4
_symmetry_space_group_name_H-M     'P m m a'
_symmetry_Int_Tables_number        51
_refine_ls_R_factor_all            .0036
loop_
_symmetry_equiv_pos_site_id
_symmetry_equiv_pos_as_xyz
  1	'-x+.5, -y, z'
  2	'x+.5, -y, -z'
  3	'x, -y, z'
  4	'-x, -y, -z'
  5	'x+.5, y, -z'
  6	'-x+.5, y, z'
  7	'-x, y, -z'
  8	'x, y, z'
loop_
_atom_type_symbol
_atom_type_oxidation_number
K1+	1
S2-	-2
loop_
_atom_site_label
_atom_site_type_symbol
_atom_site_symmetry_multiplicity
_atom_site_Wyckoff_symbol
_atom_site_fract_x
_atom_site_fract_y
_atom_site_fract_z
_atom_site_occupancy
_atom_site_attached_hydrogens
_atom_site_U_iso_or_equiv
K1 K1+ 2 a 0 0 0 1. 0 0.025 
K2 K1+ 2 d 0 0.5 0.5 1. 0 0.025 
K3 K1+ 2 e 0.250 0 0.343(5) 1. 0 0.025 
K4 K1+ 2 f 0.250 0.5 0.843(5) 1. 0 0.025 
S1 S2- 2 f 0.250 0.5 0.159(6) 1. 0 0.025 
S2 S2- 2 e 0.250 0 0.659(6) 1. 0 0.025 

#End of data_412535-ICSD


