data_26180-ICSD
#?2014 by Fachinformationszentrum Karlsruhe, and the U.S. Secretary of 
#Commerce on behalf of the United States.  All rights reserved.
_database_code_ICSD                26180
_audit_creation_date               1980/01/01
_audit_update_record               2012/08/01
_chemical_name_systematic          'Potassium Pentasulfate'
_chemical_formula_structural       'K2 S5 O16'
_chemical_formula_sum              'K2 O16 S5'
_publ_section_title
;
The Crystal Structure of Potassium Pentasulphate K2 S5 O16
;
loop_
_citation_id
_citation_journal_abbrev
_citation_year
_citation_journal_volume
_citation_page_first
_citation_page_last
_citation_journal_id_ASTM
primary 'Acta Crystallographica B (24,1968-38,1982)' 1969 25 1696 1699 ACBCAR
_publ_author_name                  'de Vries, R.;Mijlhoff, F.C.'
_cell_length_a                     9.19(4)
_cell_length_b                     10.891(3)
_cell_length_c                     14.522(4)
_cell_angle_alpha                  90.
_cell_angle_beta                   90.
_cell_angle_gamma                  90.
_cell_volume                       1453.48
_cell_formula_units_Z              4
_symmetry_space_group_name_H-M     'P b c n'
_symmetry_Int_Tables_number        60
_refine_ls_R_factor_all            .094
loop_
_symmetry_equiv_pos_site_id
_symmetry_equiv_pos_as_xyz
  1	'x, -y, z+.5'
  2	'-x+.5, y+.5, z'
  3	'x+.5, y+.5, -z+.5'
  4	'-x, -y, -z'
  5	'-x, y, -z+.5'
  6	'x+.5, -y+.5, -z'
  7	'-x+.5, -y+.5, z+.5'
  8	'x, y, z'
loop_
_atom_type_symbol
_atom_type_oxidation_number
K1+	1
O2-	-2
S6+	6
loop_
_atom_site_label
_atom_site_type_symbol
_atom_site_symmetry_multiplicity
_atom_site_Wyckoff_symbol
_atom_site_fract_x
_atom_site_fract_y
_atom_site_fract_z
_atom_site_occupancy
_atom_site_attached_hydrogens
S1 S6+ 4 c 0 0.16790(31) 0.25 1. 0 
S2 S6+ 8 d 0.21690(33) 0.3478(23) 0.29550(16) 1. 0 
S3 S6+ 8 d 0.43060(31) 0.25140(25) 0.42680(19) 1. 0 
K1 K1+ 8 d 0.24300(31) 0.0098(2) 0.04760(13) 1. 0 
O1 O2- 8 d 0.0770(9) 0.2570(7) 0.3220(4) 1. 0 
O2 O2- 8 d 0.345(1) 0.2650(8) 0.3140(5) 1. 0 
O3 O2- 8 d 0.4880(11) 0.3710(7) 0.4390(6) 1. 0 
O4 O2- 8 d 0.310(1) 0.2230(8) 0.4840(6) 1. 0 
O5 O2- 8 d 0.5290(12) 0.1540(9) 0.4050(8) 1. 0 
O6 O2- 8 d 0.2030(11) 0.4430(7) 0.3620(6) 1. 0 
O7 O2- 8 d 0.2080(11) 0.3720(8) 0.2000(5) 1. 0 
O8 O2- 8 d 0.1040(12) 0.1050(8) 0.1980(7) 1. 0 

loop_
_atom_site_aniso_label
_atom_site_aniso_type_symbol
_atom_site_aniso_U_11
_atom_site_aniso_U_22
_atom_site_aniso_U_33
_atom_site_aniso_U_12
_atom_site_aniso_U_13
_atom_site_aniso_U_23
S1 S6+ 0.0157(21) 0.0170(14) 0.0233(15) 0 0 0.0010(17)
S2 S6+ 0.0227(16) 0.0237(10) 0.0163(8) -.0017(12) -.0002(9) -.0046(12)
S3 S6+ 0.0146(13) 0.0215(10) 0.0313(11) 0.0002(13) -.0016(11) -.0031(12)
K1 K1+ 0.0233(12) 0.0233(9) 0.0208(7) -.0021(10) 0.0014(8) 0.0013(13)
O1 O2- 0.0165(41) 0.0344(38) 0.0155(26) -.0019(39) 0.0011(31) -.0002(30)
O2 O2- 0.0336(51) 0.0376(44) 0.0208(33) 0.0011(424) -.0040(33) 0.0004(36)
O3 O2- 0.0388(57) 0.0252(36) 0.0451(47) -.0070(41) -.0041(36) -.0070(47)
O4 O2- 0.0278(53) 0.0476(52) 0.0338(42) -.0066(44) 0.0120(39) 0.0050(40)
O5 O2- 0.0392(67) 0.0422(50) 0.0809(75) 0.0125(50) -0.0070(55) -0.009(6)
O6 O2- 0.0470(63) 0.0245(37) 0.0442(49) 0.0052(43) -.0039(35) -.0128(47)
O7 O2- 0.0525(68) 0.0420(46) 0.0225(33) -.0139(48) 0.0049(34) -.0073(43)
O8 O2- 0.0310(57) 0.0408(49) 0.0514(54) 0.0087(44) -.0085(45) 0.0014(49)
#End of data_26180-ICSD


