data_280226-ICSD
#?2014 by Fachinformationszentrum Karlsruhe, and the U.S. Secretary of 
#Commerce on behalf of the United States.  All rights reserved.
_database_code_ICSD                280226
_audit_creation_date               2002/04/01
_chemical_name_systematic          'Aluminium Lithium Telluride'
_chemical_formula_structural       'Al Li Te2'
_chemical_formula_sum              'Al1 Li1 Te2'
_publ_section_title
;
Synthesis and structures of new ternary aluminium chalcogenides: Li 
Al Se2, alpha-Li Al Te2, and betaLi Al Te2
;
loop_
_citation_id
_citation_journal_abbrev
_citation_year
_citation_journal_volume
_citation_page_first
_citation_page_last
_citation_journal_id_ASTM
primary 'Inorganic Chemistry' 2000 39 3092 3097 INOCAJ
_publ_author_name                  'Kim, J.;Hughbanks, T.'
_cell_length_a                     6.3517(4)
_cell_length_b                     6.3517(4)
_cell_length_c                     11.6904(9)
_cell_angle_alpha                  90.
_cell_angle_beta                   90.
_cell_angle_gamma                  90.
_cell_volume                       471.64
_cell_formula_units_Z              4
_symmetry_space_group_name_H-M     'I -4 2 d'
_symmetry_Int_Tables_number        122
_refine_ls_R_factor_all            .021
loop_
_symmetry_equiv_pos_site_id
_symmetry_equiv_pos_as_xyz
  1	'-y, -x+.5, z+.25'
  2	'y, -x, -z'
  3	'y, x+.5, z+.25'
  4	'-y, x, -z'
  5	'x, -y+.5, -z+.25'
  6	'-x, -y, z'
  7	'-x, y+.5, -z+.25'
  8	'x, y, z'
  9	'-y+.5, -x, z+.75'
 10	'y+.5, -x+.5, -z+.5'
 11	'y+.5, x, z+.75'
 12	'-y+.5, x+.5, -z+.5'
 13	'x+.5, -y, -z+.75'
 14	'-x+.5, -y+.5, z+.5'
 15	'-x+.5, y, -z+.75'
 16	'x+.5, y+.5, z+.5'
loop_
_atom_type_symbol
_atom_type_oxidation_number
Al3+	3
Li1+	1
Te2-	-2
loop_
_atom_site_label
_atom_site_type_symbol
_atom_site_symmetry_multiplicity
_atom_site_Wyckoff_symbol
_atom_site_fract_x
_atom_site_fract_y
_atom_site_fract_z
_atom_site_occupancy
_atom_site_attached_hydrogens
Te1 Te2- 8 d 0.23077(10) 0.25 0.125 1. 0 
Al1 Al3+ 4 a 0 0 0 1. 0 
Li1 Li1+ 4 b 0.5 0.5 0 1. 0 

loop_
_atom_site_aniso_label
_atom_site_aniso_type_symbol
_atom_site_aniso_U_11
_atom_site_aniso_U_22
_atom_site_aniso_U_33
_atom_site_aniso_U_12
_atom_site_aniso_U_13
_atom_site_aniso_U_23
Te1 Te2- 0.0170(4) 0.0183(4) 0.0146(5) 0 0 -.0036(2)
Al1 Al3+ 0.0172(14) 0.0172(14) 0.010(2) 0 0 0
Li1 Li1+ 0.034(11) 0.034(11) 0.020(14) 0 0 0
#End of data_280226-ICSD


