data_28192-ICSD
#?2014 by Fachinformationszentrum Karlsruhe, and the U.S. Secretary of 
#Commerce on behalf of the United States.  All rights reserved.
_database_code_ICSD                28192
_audit_creation_date               1980/01/01
_audit_update_record               1985/05/22
_chemical_name_systematic          'Lithium Catena-silicate'
_chemical_formula_structural       'Li2 Si O3'
_chemical_formula_sum              'Li2 O3 Si1'
_publ_section_title
;
Crystal Structure of Lithium Metasilicate Li2 Si O3
;
loop_
_citation_id
_citation_journal_abbrev
_citation_year
_citation_journal_volume
_citation_page_first
_citation_page_last
_citation_journal_id_ASTM
primary 'Doklady Akademii Nauk SSSR' 1968 178 1309 1312 DANKAS
_publ_author_name
;
Maksimov, B.A.;Kharitonov, Yu.A.;Ilyukhin, V.V.;Belov, N.V.
;
_cell_length_a                     9.38
_cell_length_b                     5.4
_cell_length_c                     4.68
_cell_angle_alpha                  90.
_cell_angle_beta                   90.
_cell_angle_gamma                  90.
_cell_volume                       237.05
_cell_formula_units_Z              4
_symmetry_space_group_name_H-M     'C m c 21'
_symmetry_Int_Tables_number        36
_refine_ls_R_factor_all            .13
loop_
_symmetry_equiv_pos_site_id
_symmetry_equiv_pos_as_xyz
  1	'x, -y, z+.5'
  2	'-x, -y, z+.5'
  3	'-x, y, z'
  4	'x, y, z'
  5	'x+.5, -y+.5, z+.5'
  6	'-x+.5, -y+.5, z+.5'
  7	'-x+.5, y+.5, z'
  8	'x+.5, y+.5, z'
loop_
_atom_type_symbol
_atom_type_oxidation_number
Li1+	1
O2-	-2
Si4+	4
loop_
_atom_site_label
_atom_site_type_symbol
_atom_site_symmetry_multiplicity
_atom_site_Wyckoff_symbol
_atom_site_fract_x
_atom_site_fract_y
_atom_site_fract_z
_atom_site_occupancy
_atom_site_attached_hydrogens
_atom_site_B_iso_or_equiv
Li1 Li1+ 8 b 0.17 0.33 0 1. 0 0.1 
Si1 Si4+ 4 a 0 0.167 0.496 1. 0 0.1 
O1 O2- 8 b 0.147 0.31 0.406 1. 0 0.1 
O2 O2- 4 a 0 0.108 0.845 1. 0 0.1 

#End of data_28192-ICSD


