data_74956-ICSD
#?2014 by Fachinformationszentrum Karlsruhe, and the U.S. Secretary of 
#Commerce on behalf of the United States.  All rights reserved.
_database_code_ICSD                74956
_audit_creation_date               1995/10/17
_chemical_name_systematic          'Tetrapotassium Disodium Dithallate'
_chemical_formula_structural       'K4 Na2 (Tl2 O6)'
_chemical_formula_sum              'K4 Na2 O6 Tl2'
_publ_section_title
;
Oxydation intermetallischer Phasen: K4(Na2(Tl2O6)) aus NaTlund K2O2
;
loop_
_citation_id
_citation_journal_abbrev
_citation_year
_citation_journal_volume
_citation_page_first
_citation_page_last
_citation_journal_id_ASTM
primary 'Zeitschrift fuer Anorganische und Allgemeine Chemie (1950) (DE)'
 1994 620 781 785 ZAACAB
_publ_author_name                  'Lulei, M.;Hoppe, R.'
_cell_length_a                     6.413
_cell_length_b                     6.9114
_cell_length_c                     11.8846
_cell_angle_alpha                  90.
_cell_angle_beta                   95.686
_cell_angle_gamma                  90.
_cell_volume                       524.17
_cell_formula_units_Z              2
_symmetry_space_group_name_H-M     'P 1 21/c 1'
_symmetry_Int_Tables_number        14
_refine_ls_R_factor_all            .057
loop_
_symmetry_equiv_pos_site_id
_symmetry_equiv_pos_as_xyz
  1	'x, -y+.5, z+.5'
  2	'-x, -y, -z'
  3	'-x, y+.5, -z+.5'
  4	'x, y, z'
loop_
_atom_type_symbol
_atom_type_oxidation_number
K1+	1
Na1+	1
O2-	-2
Tl3+	3
loop_
_atom_site_label
_atom_site_type_symbol
_atom_site_symmetry_multiplicity
_atom_site_Wyckoff_symbol
_atom_site_fract_x
_atom_site_fract_y
_atom_site_fract_z
_atom_site_occupancy
_atom_site_attached_hydrogens
Tl1 Tl3+ 4 e 0.8522(1) 0.1257(1) 0.9098 1. 0 
Na1 Na1+ 4 e 0.3581(9) 0.1259(9) 0.4136(5) 1. 0 
K1 K1+ 4 e 0.9301(6) 0.8591(6) 0.3565(4) 1. 0 
K2 K1+ 4 e 0.4215(7) 0.6665(6) 0.3522(4) 1. 0 
O1 O2- 4 e 0.1892(16) 0.3997(16) 0.4588(10) 1. 0 
O2 O2- 4 e 0.2839(16) 0.6173(16) 0.0354(10) 1. 0 
O3 O2- 4 e 0.2431(20) 0.0069(19) 0.2455(10) 1. 0 

loop_
_atom_site_aniso_label
_atom_site_aniso_type_symbol
_atom_site_aniso_U_11
_atom_site_aniso_U_22
_atom_site_aniso_U_33
_atom_site_aniso_U_12
_atom_site_aniso_U_13
_atom_site_aniso_U_23
Tl1 Tl3+ 0.0243(2) 0.0197(2) 0.0178(2) 0.0008(2) -.0009(2) 0.0019(2)
Na1 Na1+ 0.0224(25) 0.0233(23) 0.0216(24) -.0005(26) 0.0002(19) 0.0006(27)
K1 K1+ 0.0333(18) 0.0302(18) 0.0372(18) -.0001(15) 0.0068(14) 0.0003(15)
K2 K1+ 0.0407(21) 0.0366(21) 0.040(2) 0.0098(16) 0.0149(16) 0.0039(16)
O1 O2- 0.0270(44) 0.0224(43) 0.0372(48) -.013(4) 0.0028(38) 0.0125(41)
O2 O2- 0.0261(44) 0.0233(43) 0.0382(48) 0.0054(40) 0.0082(38) 0.0028(42)
O3 O2- 0.0421(54) 0.0412(50) 0.0222(50) -.0069(46) -.0044(43) 0.0084(43)
#End of data_74956-ICSD


