data_166897-ICSD
#?2014 by Fachinformationszentrum Karlsruhe, and the U.S. Secretary of 
#Commerce on behalf of the United States.  All rights reserved.
_database_code_ICSD                166897
_audit_creation_date               2010/08/01
_chemical_name_systematic          'Aluminium Phosphate(V)'
_chemical_formula_structural       'Al (P O4)'
_chemical_formula_sum              'Al1 O4 P1'
_publ_section_title
;
Novel large-pore aluminophosphate molecular sieve STA-15 prepared 
using the tetrapropylammonium cation as a structure directing agent
;
loop_
_citation_id
_citation_journal_abbrev
_citation_year
_citation_journal_volume
_citation_journal_issue
_citation_page_first
_citation_page_last
_citation_journal_id_ASTM
primary 'Chemistry of Materials' 2010 22 2 338 346 CMATEX
_publ_author_name
;
Han Zhongxia;Picone, A.L.;Slawin, A.M.Z.;Seymour, v.R.;Ashbrook, 
S.E.;Zhou Wuzong;Thompson, S.P.;Parker, J.E.;Wright, P.A.
;
_cell_length_a                     14.7696(6)
_cell_length_b                     27.6372(11)
_cell_length_c                     8.35796(22)
_cell_angle_alpha                  90.0
_cell_angle_beta                   90.0
_cell_angle_gamma                  90.0
_cell_volume                       3411.64
_cell_formula_units_Z              32
_symmetry_space_group_name_H-M     'I b a 2'
_symmetry_Int_Tables_number        45
_refine_ls_R_factor_all            .066
loop_
_symmetry_equiv_pos_site_id
_symmetry_equiv_pos_as_xyz
  1	'x, -y, z+.5'
  2	'-x, y, z+.5'
  3	'-x, -y, z'
  4	'x, y, z'
  5	'x+.5, -y+.5, z'
  6	'-x+.5, y+.5, z'
  7	'-x+.5, -y+.5, z+.5'
  8	'x+.5, y+.5, z+.5'
loop_
_atom_type_symbol
_atom_type_oxidation_number
Al3+	3
O2-	-2
P5+	5
loop_
_atom_site_label
_atom_site_type_symbol
_atom_site_symmetry_multiplicity
_atom_site_Wyckoff_symbol
_atom_site_fract_x
_atom_site_fract_y
_atom_site_fract_z
_atom_site_occupancy
_atom_site_attached_hydrogens
_atom_site_U_iso_or_equiv
P1 P5+ 8 c 0.9001(9) 0.7795(4) 0.0397(13) 1.0 0 0.0146(12) 
P2 P5+ 8 c 0.9052(8) 0.6719(4) 0.5384(14) 1.0 0 0.0146(12) 
P3 P5+ 8 c 0.7215(7) 0.6394(4) 0.0292(12) 1.0 0 0.0146(12) 
P4 P5+ 8 c 0.3984(8) 0.5550(4) 0.0255(14) 1.0 0 0.0146(12) 
Al1 Al3+ 8 c 0.9070(10) 0.7783(4) 0.6646(13) 1.0 0 0.0146(12) 
Al2 Al3+ 8 c 0.8991(8) 0.6743(4) 0.1608(14) 1.0 0 0.0146(12) 
Al3 Al3+ 8 c 0.5967(9) 0.5546(4) 0.1442(15) 1.0 0 0.0146(12) 
Al4 Al3+ 8 c 0.2729(8) 0.6375(4) 0.1548(12) 1.0 0 0.0146(12) 
O1 O2- 8 c 0.8758(14) 0.7332(4) 0.1237(20) 1.0 0 0.0394(24) 
O2 O2- 8 c 0.9887(11) 0.7979(5) 0.1040(25) 1.0 0 0.0394(24) 
O3 O2- 8 c 0.8244(12) 0.8150(6) 0.0611(19) 1.0 0 0.0394(24) 
O4 O2- 8 c 0.9077(10) 0.7699(5) 0.8651(12) 1.0 0 0.0394(24) 
O5 O2- 8 c 0.8846(14) 0.7231(4) 0.5805(21) 1.0 0 0.0394(24) 
O6 O2- 8 c 0.8394(9) 0.6363(6) 0.6096(20) 1.0 0 0.0394(24) 
O7 O2- 8 c 0.8985(10) 0.6670(5) 0.3616(12) 1.0 0 0.0394(24) 
O8 O2- 8 c 0.0014(9) 0.6572(5) 0.0878(23) 1.0 0 0.0394(24) 
O9 O2- 8 c 0.8190(9) 0.6373(6) 0.0795(21) 1.0 0 0.0394(24) 
O10 O2- 8 c 0.6736(13) 0.6808(6) 0.1110(21) 1.0 0 0.0394(24) 
O11 O2- 8 c 0.7140(11) 0.6467(6) 0.8536(11) 1.0 0 0.0394(24) 
O12 O2- 8 c 0.6791(12) 0.5919(6) 0.0714(22) 1.0 0 0.0394(24) 
O13 O2- 8 c 0.4902(10) 0.5722(6) 0.0848(25) 1.0 0 0.0394(24) 
O14 O2- 8 c 0.3827(12) 0.5033(5) 0.0802(22) 1.0 0 0.0394(24) 
O15 O2- 8 c 0.3228(12) 0.5857(7) 0.0916(22) 1.0 0 0.0394(24) 
O16 O2- 8 c 0.3955(10) 0.5566(5) 0.8473(14) 1.0 0 0.0394(24) 

#End of data_166897-ICSD


