data_280252-ICSD
#?2014 by Fachinformationszentrum Karlsruhe, and the U.S. Secretary of 
#Commerce on behalf of the United States.  All rights reserved.
_database_code_ICSD                280252
_audit_creation_date               2002/04/01
_chemical_name_systematic          'Dicalcium Germanium Dinitride'
_chemical_formula_structural       'Ca2 Ge N2'
_chemical_formula_sum              'Ca2 Ge1 N2'
_publ_section_title
;
New calcium germanium nitrides: Ca2 Ge N2, Ca4 Ge N4, and Ca5 Ge2 N6
;
loop_
_citation_id
_citation_journal_abbrev
_citation_year
_citation_journal_volume
_citation_page_first
_citation_page_last
_citation_journal_id_ASTM
primary 'Inorganic Chemistry' 2000 39 2631 2634 INOCAJ
_publ_author_name                  'Clarke, S.J.;DiSalvo, F.J.'
_cell_length_a                     11.2004(8)
_cell_length_b                     11.2004(8)
_cell_length_c                     5.0482(6)
_cell_angle_alpha                  90.
_cell_angle_beta                   90.
_cell_angle_gamma                  90.
_cell_volume                       633.29
_cell_formula_units_Z              8
_symmetry_space_group_name_H-M     'P 42/m b c'
_symmetry_Int_Tables_number        135
_refine_ls_R_factor_all            .0201
loop_
_symmetry_equiv_pos_site_id
_symmetry_equiv_pos_as_xyz
  1	'-y+.5, -x+.5, z+.5'
  2	'-x+.5, y+.5, z'
  3	'y, -x, z+.5'
  4	'-x, -y, z'
  5	'-y+.5, -x+.5, -z+.5'
  6	'-x+.5, y+.5, -z'
  7	'y, -x, -z+.5'
  8	'-x, -y, -z'
  9	'y+.5, x+.5, -z+.5'
 10	'x+.5, -y+.5, -z'
 11	'-y, x, -z+.5'
 12	'x, y, -z'
 13	'y+.5, x+.5, z+.5'
 14	'x+.5, -y+.5, z'
 15	'-y, x, z+.5'
 16	'x, y, z'
loop_
_atom_type_symbol
_atom_type_oxidation_number
Ca2+	2
Ge2+	2
N3-	-3
loop_
_atom_site_label
_atom_site_type_symbol
_atom_site_symmetry_multiplicity
_atom_site_Wyckoff_symbol
_atom_site_fract_x
_atom_site_fract_y
_atom_site_fract_z
_atom_site_occupancy
_atom_site_attached_hydrogens
_atom_site_U_iso_or_equiv
Ca1 Ca2+ 8 h 0.36719(9) 0.42420(9) 0 1. 0 0 
Ca2 Ca2+ 8 h 0.02108(9) 0.34983(9) 0 1. 0 0 
Ge1 Ge2+ 8 h 0.25469(5) 0.15590(4) 0 1. 0 0 
N1 N3- 8 h 0.0899(4) 0.1362(4) 0 1. 0 0.0093(9) 
N2 N3- 8 h 0.3358(4) 0.0097(3) 0 1. 0 0.0099(9) 

loop_
_atom_site_aniso_label
_atom_site_aniso_type_symbol
_atom_site_aniso_U_11
_atom_site_aniso_U_22
_atom_site_aniso_U_33
_atom_site_aniso_U_12
_atom_site_aniso_U_13
_atom_site_aniso_U_23
Ca1 Ca2+ 0.0096(5) 0.0077(5) 0.0079(5) -.0002(4) 0 0
Ca2 Ca2+ 0.0088(5) 0.0076(6) 0.0079(4) -.0011(4) 0 0
Ge1 Ge2+ 0.0068(3) 0.0069(3) 0.0099(3) 0.0001(2) 0 0
#End of data_280252-ICSD


