data_163377-ICSD
#?2014 by Fachinformationszentrum Karlsruhe, and the U.S. Secretary of 
#Commerce on behalf of the United States.  All rights reserved.
_database_code_ICSD                163377
_audit_creation_date               2009/08/01
_chemical_name_systematic
;
Sodium Potassium Tetrahydridoborate
;
_chemical_formula_structural       'Na K (B H4)2'
_chemical_formula_sum              'H8 B2 K1 Na1'
_publ_section_title
;
Metastability and crystal structure of the bialkali complex metal 
borohydride Na K (B H4)2
;
loop_
_citation_id
_citation_journal_abbrev
_citation_year
_citation_journal_volume
_citation_page_first
_citation_page_last
_citation_journal_id_ASTM
primary 'Journal of Alloys and Compounds' 2009 476 446 450 JALCEU
_publ_author_name
;
Seballos, L.;Zhang Jin Z.;Roennebro, E.;Herberg, J.L.;Majzoub, E.H.
;
_cell_length_a                     4.52898
_cell_length_b                     4.52898
_cell_length_c                     22.22138
_cell_angle_alpha                  90.
_cell_angle_beta                   90.
_cell_angle_gamma                  120.
_cell_volume                       394.73
_cell_formula_units_Z              3
_symmetry_space_group_name_H-M     'R -3 H'
_symmetry_Int_Tables_number        148
loop_
_symmetry_equiv_pos_site_id
_symmetry_equiv_pos_as_xyz
  1	'x-y, x, -z'
  2	'y, -x+y, -z'
  3	'-x, -y, -z'
  4	'-x+y, -x, z'
  5	'-y, x-y, z'
  6	'x, y, z'
  7	'x-y+.6666, x+.3333, -z+.3333'
  8	'x-y+.3333, x+.6666, -z+.6666'
  9	'y+.6666, -x+y+.3333, -z+.3333'
 10	'y+.3333, -x+y+.6666, -z+.6666'
 11	'-x+.6666, -y+.3333, -z+.3333'
 12	'-x+.3333, -y+.6666, -z+.6666'
 13	'-x+y+.6666, -x+.3333, z+.3333'
 14	'-x+y+.3333, -x+.6666, z+.6666'
 15	'-y+.6666, x-y+.3333, z+.3333'
 16	'-y+.3333, x-y+.6666, z+.6666'
 17	'x+.6666, y+.3333, z+.3333'
 18	'x+.3333, y+.6666, z+.6666'
loop_
_atom_type_symbol
_atom_type_oxidation_number
B3+	3
H1-	-1
K1+	1
Na1+	1
loop_
_atom_site_label
_atom_site_type_symbol
_atom_site_symmetry_multiplicity
_atom_site_Wyckoff_symbol
_atom_site_fract_x
_atom_site_fract_y
_atom_site_fract_z
_atom_site_occupancy
_atom_site_attached_hydrogens
H1 H1- 18 f 0.62155 0.86403 0.39270 1. 0 
H2 H1- 6 c 0 0 0.79965 1. 0 
B1 B3+ 6 c 0 0 0.74422 1. 0 
Na1 Na1+ 3 a 0 0 0 1. 0 
K1 K1+ 3 b 0 0 0.5 1. 0 

#End of data_163377-ICSD


