data_2456-ICSD
#?2014 by Fachinformationszentrum Karlsruhe, and the U.S. Secretary of 
#Commerce on behalf of the United States.  All rights reserved.
_database_code_ICSD                2456
_audit_creation_date               1980/01/01
_audit_update_record               2000/07/15
_chemical_name_systematic          'Zinc Sulfate(VI) - Ht'
_chemical_formula_structural       'Zn (S O4)'
_chemical_formula_sum              'O4 S1 Zn1'
_publ_section_title
;
H-Zn S O4, das erste Sulfat mit einer kubischen H-Cristobalit-
Struktur
;
loop_
_citation_id
_citation_journal_abbrev
_citation_year
_citation_journal_volume
_citation_page_first
_citation_page_last
_citation_journal_id_ASTM
primary Naturwissenschaften 1978 65 594 594 NATWAY
_publ_author_name                  'Spiess, M.;Gruehn, R.'
_cell_length_a                     7.176(1)
_cell_length_b                     7.176(1)
_cell_length_c                     7.176(1)
_cell_angle_alpha                  90.
_cell_angle_beta                   90.
_cell_angle_gamma                  90.
_cell_volume                       369.53
_cell_formula_units_Z              4
_symmetry_space_group_name_H-M     'F 2 3'
_symmetry_Int_Tables_number        196
_refine_ls_R_factor_all            .06
loop_
_symmetry_equiv_pos_site_id
_symmetry_equiv_pos_as_xyz
  1	'-z, -x, y'
  2	'-y, -z, x'
  3	'-x, -y, z'
  4	'-z, x, -y'
  5	'-y, z, -x'
  6	'-x, y, -z'
  7	'z, -x, -y'
  8	'y, -z, -x'
  9	'x, -y, -z'
 10	'z, x, y'
 11	'y, z, x'
 12	'x, y, z'
 13	'-z, -x+.5, y+.5'
 14	'-z+.5, -x, y+.5'
 15	'-z+.5, -x+.5, y'
 16	'-y, -z+.5, x+.5'
 17	'-y+.5, -z, x+.5'
 18	'-y+.5, -z+.5, x'
 19	'-x, -y+.5, z+.5'
 20	'-x+.5, -y, z+.5'
 21	'-x+.5, -y+.5, z'
 22	'-z, x+.5, -y+.5'
 23	'-z+.5, x, -y+.5'
 24	'-z+.5, x+.5, -y'
 25	'-y, z+.5, -x+.5'
 26	'-y+.5, z, -x+.5'
 27	'-y+.5, z+.5, -x'
 28	'-x, y+.5, -z+.5'
 29	'-x+.5, y, -z+.5'
 30	'-x+.5, y+.5, -z'
 31	'z, -x+.5, -y+.5'
 32	'z+.5, -x, -y+.5'
 33	'z+.5, -x+.5, -y'
 34	'y, -z+.5, -x+.5'
 35	'y+.5, -z, -x+.5'
 36	'y+.5, -z+.5, -x'
 37	'x, -y+.5, -z+.5'
 38	'x+.5, -y, -z+.5'
 39	'x+.5, -y+.5, -z'
 40	'z, x+.5, y+.5'
 41	'z+.5, x, y+.5'
 42	'z+.5, x+.5, y'
 43	'y, z+.5, x+.5'
 44	'y+.5, z, x+.5'
 45	'y+.5, z+.5, x'
 46	'x, y+.5, z+.5'
 47	'x+.5, y, z+.5'
 48	'x+.5, y+.5, z'
loop_
_atom_type_symbol
_atom_type_oxidation_number
O2-	-2
S6+	6
Zn2+	2
loop_
_atom_site_label
_atom_site_type_symbol
_atom_site_symmetry_multiplicity
_atom_site_Wyckoff_symbol
_atom_site_fract_x
_atom_site_fract_y
_atom_site_fract_z
_atom_site_occupancy
_atom_site_attached_hydrogens
_atom_site_B_iso_or_equiv
Zn1 Zn2+ 4 d 0.75 0.75 0.75 1. 0 3. 
S1 S6+ 4 a 0 0 0 1. 0 3. 
O1 O2- 16 e 0.88 0.88 0.88 1. 0 3. 

#End of data_2456-ICSD


