data_27312-ICSD
#?2014 by Fachinformationszentrum Karlsruhe, and the U.S. Secretary of 
#Commerce on behalf of the United States.  All rights reserved.
_database_code_ICSD                27312
_audit_creation_date               1980/01/01
_audit_update_record               1988/01/18
_chemical_name_systematic          'Calcium Diytterbium Oxide'
_chemical_formula_structural       'Ca Yb2 O4'
_chemical_formula_sum              'Ca1 O4 Yb2'
_publ_section_title
;
Calcium Ytterbate, Ca Yb2 O4, an Orthorhombic Calcium Ferrite 
Isomorph
;
loop_
_citation_id
_citation_journal_abbrev
_citation_year
_citation_journal_volume
_citation_page_first
_citation_page_last
_citation_journal_id_ASTM
primary 'Journal of the American Ceramic Society' 1967 50 491 492 JACTAW
_publ_author_name                  'Reid, A.F.'
_cell_length_a                     9.742(5)
_cell_length_b                     3.316(3)
_cell_length_c                     11.594(5)
_cell_angle_alpha                  90.
_cell_angle_beta                   90.
_cell_angle_gamma                  90.
_cell_volume                       374.54
_cell_formula_units_Z              4
_symmetry_space_group_name_H-M     'P n m a'
_symmetry_Int_Tables_number        62
_refine_ls_R_factor_all            .24
loop_
_symmetry_equiv_pos_site_id
_symmetry_equiv_pos_as_xyz
  1	'x+.5, y, -z+.5'
  2	'x, -y+.5, z'
  3	'-x+.5, y+.5, z+.5'
  4	'-x, -y, -z'
  5	'-x+.5, -y, z+.5'
  6	'-x, y+.5, -z'
  7	'x+.5, -y+.5, -z+.5'
  8	'x, y, z'
loop_
_atom_type_symbol
_atom_type_oxidation_number
Ca2+	2
O2-	-2
Yb3+	3
loop_
_atom_site_label
_atom_site_type_symbol
_atom_site_symmetry_multiplicity
_atom_site_Wyckoff_symbol
_atom_site_fract_x
_atom_site_fract_y
_atom_site_fract_z
_atom_site_occupancy
_atom_site_attached_hydrogens
_atom_site_U_iso_or_equiv
Ca1 Ca2+ 4 c 0.245 0.25 0.346 1. 0 0.024 
Yb1 Yb3+ 4 c 0.067 0.25 0.112 1. 0 0.012 
Yb2 Yb3+ 4 c 0.08 0.25 0.607 1. 0 0.012 
O1 O2- 4 c 0.297 0.25 0.672 1. 0 0.021 
O2 O2- 4 c 0.378 0.25 -.019 1. 0 0.016 
O3 O2- 4 c 0.481 0.25 0.214 1. 0 0.016 
O4 O2- 4 c 0.08 0.25 -.07 1. 0 0.016 

#End of data_27312-ICSD


