data_417983-ICSD
#?2014 by Fachinformationszentrum Karlsruhe, and the U.S. Secretary of 
#Commerce on behalf of the United States.  All rights reserved.
_database_code_ICSD                417983
_audit_creation_date               2008/08/01
_chemical_name_systematic
;
Tetrapotassium Dihydroxooctaborodigermanate
;
_chemical_formula_structural       'K4 (B8 Ge2 O17 (O H)2)'
_chemical_formula_sum              'H2 B8 Ge2 K4 O19'
_publ_section_title
;
A borogermanate with three-dimensional open-framework layers
;
loop_
_citation_id
_citation_journal_abbrev
_citation_year
_citation_journal_volume
_citation_journal_issue
_citation_page_first
_citation_page_last
_citation_journal_id_ASTM
primary 'Chemistry - A European Journal' 2007 13 35 9862 9865 CEUJED
_publ_author_name
;
Xiong Ding Bang;Zhao Jing Tai;Chen Hao Hong;Yang Xin Xin
;
_cell_length_a                     12.095(2)
_cell_length_b                     6.7979(14)
_cell_length_c                     19.944(4)
_cell_angle_alpha                  90.00
_cell_angle_beta                   93.04(3)
_cell_angle_gamma                  90.00
_cell_volume                       1637.5
_cell_formula_units_Z              4
_symmetry_space_group_name_H-M     'C 1 2/c 1'
_symmetry_Int_Tables_number        15
_refine_ls_R_factor_all            .0295
loop_
_symmetry_equiv_pos_site_id
_symmetry_equiv_pos_as_xyz
  1	'x, -y, z+.5'
  2	'-x, -y, -z'
  3	'-x, y, -z+.5'
  4	'x, y, z'
  5	'x+.5, -y+.5, z+.5'
  6	'-x+.5, -y+.5, -z'
  7	'-x+.5, y+.5, -z+.5'
  8	'x+.5, y+.5, z'
loop_
_atom_type_symbol
_atom_type_oxidation_number
B3+	3
Ge4+	4
H1+	1
K1+	1
O2-	-2
loop_
_atom_site_label
_atom_site_type_symbol
_atom_site_symmetry_multiplicity
_atom_site_Wyckoff_symbol
_atom_site_fract_x
_atom_site_fract_y
_atom_site_fract_z
_atom_site_occupancy
_atom_site_attached_hydrogens
_atom_site_U_iso_or_equiv
Ge1 Ge4+ 8 f 0.47736(3) 0.14240(4) 0.325045(15) 1 0 0.00994(12) 
K1 K1+ 8 f 0.63961(7) -0.32837(11) 0.29775(4) 1 0 0.02269(19) 
K2 K1+ 8 f 0.63232(7) -0.08946(11) 0.48696(4) 1 0 0.02188(19) 
O1 O2- 8 f 0.42330(18) -0.3650(3) 0.34362(10) 1 0 0.0110(5) 
O2 O2- 8 f 0.36891(18) 0.3042(3) 0.30910(10) 1 0 0.0136(5) 
O3 O2- 4 e 0.5000 0.0175(4) 0.2500 1 0 0.0124(6) 
O4 O2- 8 f 0.59471(18) 0.2845(3) 0.34899(11) 1 0 0.0128(5) 
O5 O2- 8 f 0.78009(19) -0.6323(3) 0.36334(11) 1 0 0.0160(5) 
O6 O2- 8 f 0.6197(2) -0.4738(4) 0.46333(12) 1 0 0.0218(6) 
O7 O2- 8 f 0.47021(18) -0.0356(3) 0.38627(10) 1 0 0.0132(5) 
O8 O2- 8 f 0.6405(2) -0.4025(3) 0.57563(10) 1 0 0.0160(5) 
O9 O2- 8 f 0.73134(18) 0.0331(3) 0.33975(11) 1 0 0.0167(5) 
O10 O2- 8 f 0.60778(19) 0.2630(3) 0.54222(10) 1 0 0.0157(5) 
B1 B3+ 8 f 0.7054(3) -0.7759(5) 0.34940(18) 1 0 0.0139(7) 
B2 B3+ 8 f 0.3929(3) -0.2010(5) 0.38481(17) 1 0 0.0123(7) 
B3 B3+ 8 f 0.8497(3) -0.0298(5) 0.35321(18) 1 0 0.0128(7) 
B4 B3+ 8 f 0.8804(3) 0.0444(5) 0.47201(18) 1 0 0.0147(8) 
H1 H1+ 8 f 0.609(3) -0.552(6) 0.4364(19) 1 0 0.023(11) 

loop_
_atom_site_aniso_label
_atom_site_aniso_type_symbol
_atom_site_aniso_U_11
_atom_site_aniso_U_22
_atom_site_aniso_U_33
_atom_site_aniso_U_12
_atom_site_aniso_U_13
_atom_site_aniso_U_23
Ge1 Ge4+ 0.00904(19) 0.00893(18) 0.01180(18) 0.00003(13) 0.00005(13) 
-0.00049(12)
K1 K1+ 0.0211(4) 0.0197(4) 0.0271(4) -0.0014(3) -0.0008(3) 0.0006(3)
K2 K1+ 0.0231(4) 0.0153(4) 0.0270(4) 0.0022(3) -0.0007(3) -0.0008(3)
O1 O2- 0.0118(11) 0.0100(10) 0.0114(11) -0.0006(9) 0.0010(9) -0.0006(8)
O2 O2- 0.0122(12) 0.0115(11) 0.0168(11) 0.0025(9) -0.0026(9) -0.0028(8)
O3 O2- 0.0141(17) 0.0107(15) 0.0123(15) 0.000 0.0004(13) 0.000
O4 O2- 0.0071(11) 0.0102(10) 0.0208(12) 0.0004(9) -0.0008(9) -0.0028(9)
O5 O2- 0.0112(12) 0.0096(11) 0.0269(13) 0.0008(9) -0.0025(10) -0.0006(9)
O6 O2- 0.0372(16) 0.0152(13) 0.0130(12) -0.0010(11) 0.0014(11) -0.0017(9)
O7 O2- 0.0126(12) 0.0122(11) 0.0145(11) -0.0025(9) -0.0014(9) 0.0023(8)
O8 O2- 0.0230(13) 0.0111(11) 0.0137(11) -0.0027(10) 0.0001(10) 0.0006(8)
O9 O2- 0.0107(12) 0.0114(11) 0.0278(13) 0.0024(9) -0.0011(10) -0.0034(9)
O10 O2- 0.0250(14) 0.0101(11) 0.0124(11) 0.0001(10) 0.0030(10) -0.0010(8)
B1 B3+ 0.0148(19) 0.0151(18) 0.0122(17) 0.0006(15) 0.0038(15) 0.0039(13)
B2 B3+ 0.0114(19) 0.0125(17) 0.0130(17) -0.0009(14) 0.0005(14) 0.0005(13)
B3 B3+ 0.0133(19) 0.0119(17) 0.0130(17) 0.0022(14) 0.0002(14) -0.0030(13)
B4 B3+ 0.0089(18) 0.0175(19) 0.0178(19) -0.0002(15) 0.0018(15) 0.0003(14)
#End of data_417983-ICSD


