data_29545-ICSD
#?2014 by Fachinformationszentrum Karlsruhe, and the U.S. Secretary of 
#Commerce on behalf of the United States.  All rights reserved.
_database_code_ICSD                29545
_audit_creation_date               1988/05/17
_audit_update_record               1998/06/26
_chemical_name_systematic          'Calcium Borosilicate *'
_chemical_formula_structural       'Ca B2 Si2 O8'
_chemical_formula_sum              'B2 Ca1 O8 Si2'
_chemical_name_mineral             Danburite
_publ_section_title
;
Unusual thermal expansion of a B-O-bond in the structure of danburite 
Ca B2 Si2 O8
;
loop_
_citation_id
_citation_journal_abbrev
_citation_year
_citation_journal_volume
_citation_page_first
_citation_page_last
_citation_journal_id_ASTM
primary 'Zeitschrift fuer Kristallographie (1979-2010)' 1985 173 293 304 ZEKRDZ
_publ_author_name                  'Sugiyama, K.;Takeuchi, Y.'
_cell_length_a                     8.037(1)
_cell_length_b                     8.757(1)
_cell_length_c                     7.7218(9)
_cell_angle_alpha                  90.
_cell_angle_beta                   90.
_cell_angle_gamma                  90.
_cell_volume                       543.46
_cell_formula_units_Z              4
_symmetry_space_group_name_H-M     'P n a m'
_symmetry_Int_Tables_number        62
_refine_ls_R_factor_all            .0259
loop_
_symmetry_equiv_pos_site_id
_symmetry_equiv_pos_as_xyz
  1	'x+.5, -y+.5, z'
  2	'x, y, -z+.5'
  3	'-x+.5, y+.5, z+.5'
  4	'-x, -y, -z'
  5	'-x+.5, y+.5, -z'
  6	'-x, -y, z+.5'
  7	'x+.5, -y+.5, -z+.5'
  8	'x, y, z'
loop_
_atom_type_symbol
_atom_type_oxidation_number
B3+	3
Ca2+	2
O2-	-2
Si4+	4
loop_
_atom_site_label
_atom_site_type_symbol
_atom_site_symmetry_multiplicity
_atom_site_Wyckoff_symbol
_atom_site_fract_x
_atom_site_fract_y
_atom_site_fract_z
_atom_site_occupancy
_atom_site_attached_hydrogens
Ca1 Ca2+ 4 c 0.38555(3) 0.07648(3) 0.25 1. 0 
B1 B3+ 8 d 0.2589(1) 0.4192(1) 0.4206(1) 1. 0 
Si1 Si4+ 8 d 0.05333(3) 0.19250(3) -.05574(3) 1. 0 
O1 O2- 8 d 0.19291(8) 0.06797(7) -.00324(9) 1. 0 
O2 O2- 8 d 0.12632(7) 0.36496(6) -.04233(9) 1. 0 
O3 O2- 8 d 0.39965(7) 0.31351(7) 0.07820(8) 1. 0 
O4 O2- 4 c 0.5137(1) 0.6640(1) 0.25 1. 0 
O5 O2- 4 c 0.1838(1) 0.4282(1) 0.25 1. 0 

#End of data_29545-ICSD


