data_170191-ICSD
#?2014 by Fachinformationszentrum Karlsruhe, and the U.S. Secretary of 
#Commerce on behalf of the United States.  All rights reserved.
_database_code_ICSD                170191
_audit_creation_date               2006/04/01
_chemical_name_systematic          'Cesium Holmium Zinc Trirelluride'
_chemical_formula_structural       'Cs Ho Zn Te3'
_chemical_formula_sum              'Cs1 Ho1 Te3 Zn1'
_publ_section_title
;
Syntheses, structure, some band gaps, and electronic structures of Cs 
Ln Zn Te3 (Ln = La, Pr, Nd, Sm, Gd, Tb, Dy, Ho, Er, Tm, Y)
;
loop_
_citation_id
_citation_journal_abbrev
_citation_year
_citation_journal_volume
_citation_journal_issue
_citation_page_first
_citation_page_last
_citation_journal_id_ASTM
primary 'Inorganic Chemistry' 2004 43 24 7735 7740 INOCAJ
_publ_author_name
;
Yao, J.;Deng, B.;Sherry, L.J.;McFarland, A.D.;Ellis, D.E.;van Duyne, 
R.P.;Ibers, J.A.
;
_cell_length_a                     4.3761(14)
_cell_length_b                     16.721(5)
_cell_length_c                     11.582(4)
_cell_angle_alpha                  90.00
_cell_angle_beta                   90.00
_cell_angle_gamma                  90.00
_cell_volume                       847.49
_cell_formula_units_Z              4
_symmetry_space_group_name_H-M     'C m c m'
_symmetry_Int_Tables_number        63
_refine_ls_R_factor_all            .0276
loop_
_symmetry_equiv_pos_site_id
_symmetry_equiv_pos_as_xyz
  1	'-x, y, -z+.5'
  2	'-x, -y, z+.5'
  3	'-x, y, z'
  4	'-x, -y, -z'
  5	'x, -y, z+.5'
  6	'x, y, -z+.5'
  7	'x, -y, -z'
  8	'x, y, z'
  9	'-x+.5, y+.5, -z+.5'
 10	'-x+.5, -y+.5, z+.5'
 11	'-x+.5, y+.5, z'
 12	'-x+.5, -y+.5, -z'
 13	'x+.5, -y+.5, z+.5'
 14	'x+.5, y+.5, -z+.5'
 15	'x+.5, -y+.5, -z'
 16	'x+.5, y+.5, z'
loop_
_atom_type_symbol
_atom_type_oxidation_number
Cs1+	1
Ho3+	3
Te2-	-2
Zn2+	2
loop_
_atom_site_label
_atom_site_type_symbol
_atom_site_symmetry_multiplicity
_atom_site_Wyckoff_symbol
_atom_site_fract_x
_atom_site_fract_y
_atom_site_fract_z
_atom_site_occupancy
_atom_site_attached_hydrogens
_atom_site_U_iso_or_equiv
Cs1 Cs1+ 4 c 0.0000 0.74448(3) 0.2500 1 0 0.01566(19) 
Ho1 Ho3+ 4 a 0.0000 0.0000 0.0000 1 0 0.00949(17) 
Zn1 Zn2+ 4 c 0.0000 0.46034(6) 0.2500 1 0 0.0114(2) 
Te1 Te2- 8 f 0.0000 0.37760(2) 0.05595(3) 1 0 0.00975(17) 
Te2 Te2- 4 c 0.0000 0.05887(3) 0.2500 1 0 0.00924(19) 

loop_
_atom_site_aniso_label
_atom_site_aniso_type_symbol
_atom_site_aniso_U_11
_atom_site_aniso_U_22
_atom_site_aniso_U_33
_atom_site_aniso_U_12
_atom_site_aniso_U_13
_atom_site_aniso_U_23
Cs1 Cs1+ 0.0145(3) 0.0148(3) 0.0177(3) 0.000 0.000 0.000
Ho1 Ho3+ 0.0100(3) 0.0135(3) 0.0050(2) 0.000 0.000 0.00022(12)
Zn1 Zn2+ 0.0120(5) 0.0156(5) 0.0067(4) 0.000 0.000 0.000
Te1 Te2- 0.0107(3) 0.0121(3) 0.0065(3) 0.000 0.000 -0.00004(12)
Te2 Te2- 0.0105(3) 0.0123(3) 0.0049(3) 0.000 0.000 0.000
#End of data_170191-ICSD


