data_93591-ICSD
#?2014 by Fachinformationszentrum Karlsruhe, and the U.S. Secretary of 
#Commerce on behalf of the United States.  All rights reserved.
_database_code_ICSD                93591
_audit_creation_date               2003/04/01
_chemical_name_systematic
;
Disilver Tricobalt Bis(diphosphate(V))
;
_chemical_formula_structural       'Ag2 Co3 (P2 O7)2'
_chemical_formula_sum              'Ag2 Co3 O14 P4'
_publ_section_title
;
Identification of a new family of diphosphate compounds, A(I)2 B(II)3 
(P2 O7)2: structures of Ag2 Co3 (P2 O7)2, Ag2 Mn3 (P2 O7)2, and Na2 
Cd3 (P2 O7)2
;
loop_
_citation_id
_citation_journal_abbrev
_citation_year
_citation_journal_volume
_citation_journal_issue
_citation_page_first
_citation_page_last
_citation_journal_id_ASTM
primary 'Journal of Chemical Crystallography' 2000 30 11 705 716 JCCYEV
_publ_author_name
;
Bennazha, J.;Erragh, F.;Boukhari, A.;Holt, E.M.
;
_cell_length_a                     5.351(4)
_cell_length_b                     6.375(4)
_cell_length_c                     16.532(10)
_cell_angle_alpha                  80.83(6)
_cell_angle_beta                   81.45(4)
_cell_angle_gamma                  72.87(5)
_cell_volume                       528.94
_cell_formula_units_Z              2
_symmetry_space_group_name_H-M     'P -1'
_symmetry_Int_Tables_number        2
_refine_ls_R_factor_all            .043
loop_
_symmetry_equiv_pos_site_id
_symmetry_equiv_pos_as_xyz
  1	'-x, -y, -z'
  2	'x, y, z'
loop_
_atom_type_symbol
_atom_type_oxidation_number
Ag1+	1
Co2+	2
O2-	-2
P5+	5
loop_
_atom_site_label
_atom_site_type_symbol
_atom_site_symmetry_multiplicity
_atom_site_Wyckoff_symbol
_atom_site_fract_x
_atom_site_fract_y
_atom_site_fract_z
_atom_site_occupancy
_atom_site_attached_hydrogens
_atom_site_U_iso_or_equiv
Ag1 Ag1+ 2 i 0.89692(10) 0.73863(9) 0.02171(3) 1. 0 0.02259(15) 
Ag2 Ag1+ 2 i 0.39227(9) 0.74307(9) 0.13335(3) 1. 0 0.0244(2) 
Co1 Co2+ 2 i 0.23795(15) -.03804(13) 0.34228(5) 1. 0 0.0123(2) 
Co2 Co2+ 2 i 0.80630(15) 0.71774(13) 0.41312(5) 1. 0 0.0138(2) 
Co3 Co2+ 2 i 0.96516(15) 0.36730(13) 0.19884(5) 1. 0 0.01315(2) 
P1 P5+ 2 i 0.5682(3) 0.2483(2) 0.08766(9) 1. 0 0.0130(3) 
O1 O2- 2 i 0.7256(9) 0.4011(8) 0.1026(3) 1. 0 0.0188(8) 
O2 O2- 2 i 0.6830(10) 0.1395(8) 0.0094(3) 1. 0 0.0226(9) 
O3 O2- 2 i 0.2717(8) 0.3526(8) 0.0941(3) 1. 0 0.0192(8) 
O4 O2- 2 i 0.5963(8) 0.0485(7) 0.1635(3) 1. 0 0.0167(8) 
P2 P5+ 2 i 0.8154(3) 0.9029(2) 0.22122(9) 1. 0 0.0111(3) 
O5 O2- 2 i 0.9478(8) 0.6993(7) 0.1776(3) 1. 0 0.0154(8) 
O6 O2- 2 i 0.0131(8) 0.0304(7) 0.2264(3) 1. 0 0.0151(8) 
O7 O2- 2 i 0.6495(8) 0.8602(7) 0.3020(2) 1. 0 0.0139(7) 
P3 P5+ 2 i 0.7054(3) 0.2179(2) 0.45871(8) 1. 0 0.0102(3) 
O8 O2- 2 i 0.8385(8) 0.3974(7) 0.4514(3) 1. 0 0.0167(8) 
O9 O2- 2 i 0.8813(7) 0.0156(7) 0.4200(2) 1. 0 0.0130(7) 
O10 O2- 2 i 0.5892(8) 0.1565(7) 0.5469(2) 1. 0 0.0138(7) 
O11 O2- 2 i 0.4437(8) 0.3008(7) 0.4123(3) 1. 0 0.0169(8) 
P4 P5+ 2 i 0.3618(3) 0.4290(2) 0.32495(8) 1. 0 0.0106(3) 
O12 O2- 2 i 0.6020(8) 0.4483(8) 0.2687(3) 1. 0 0.0201(9) 
O13 O2- 2 i 0.2086(8) 0.2891(7) 0.2962(2) 1. 0 0.0138(7) 
O14 O2- 2 i 0.1768(8) 0.6535(7) 0.3440(2) 1. 0 0.0124(7) 

loop_
_atom_site_aniso_label
_atom_site_aniso_type_symbol
_atom_site_aniso_U_11
_atom_site_aniso_U_22
_atom_site_aniso_U_33
_atom_site_aniso_U_12
_atom_site_aniso_U_13
_atom_site_aniso_U_23
Ag1 Ag1+ 0.0211(2) 0.0287(3) 0.0201(2) -0.0090(2) -0.0020(2) -0.0053(2)
Ag2 Ag1+ 0.0170(2) 0.0283(3) 0.0287(3) -0.0065(2) -0.0009(2) -0.0066(2)
Co1 Co2+ 0.0096(3) 0.0131(4) 0.0143(3) -0.0035(3) -0.0016(3) -0.0009(3)
Co2 Co2+ 0.0111(3) 0.0135(3) 0.0166(4) -0.0038(3) -0.0002(3) -0.0016(3)
Co3 Co2+ 0.0102(3) 0.0145(4) 0.0156(4) -0.0040(3) -0.0031(3) -0.0015(3)
P1 P5+ 0.0104(6) 0.0150(6) 0.0136(6) -0.0031(5) -0.0017(5) -0.0023(5)
O1 O2- 0.018(2) 0.022(2) 0.019(2) -0.009(2) -0.007(2) -0.001(2)
O2 O2- 0.024(2) 0.028(2) 0.014(2) -0.004(2) -0.001(2) -0.006(2)
O3 O2- 0.012(5) 0.020(2) 0.022(2) 0.000(2) -0.003(2) -0.001(2)
O4 O2- 0.014(2) 0.018(2) 0.018(2) -0.0050(15) -0.0064(15) 0.0030(15)
P2 P5+ 0.0080(5) 0.0134(6) 0.013(2) -0.0038(5) -0.0020(5) -0.0018(5)
O5 O2- 0.017(2) 0.012(2) 0.016(2) -0.0033(15) 0.0001(15) -0.0046(14)
O6 O2- 0.013(2) 0.014(2) 0.019(2) -0.0050(15) -0.0012(15) -0.0027(15)
O7 O2- 0.009(2) 0.021(2) 0.012(2) -0.0048(15) -0.0013(14) -0.0020(14)
P3 P5+ 0.0073(5) 0.0112(6) 0.0120(6) -0.0019(4) -0.0022(4) -0.0011(4)
O8 O2- 0.015(2) 0.015(2) 0.022(2) -0.0072(15) 0.000(2) -0.0035(15)
O9 O2- 0.008(2) 0.015(2) 0.016(2) -0.0037(14) -0.0002(14) -0.0047(14)
O10 O2- 0.014(2) 0.018(2) 0.010(2) -0.0049(15) -0.0044(14) -0.0010(14)
O11 O2- 0.011(2) 0.019(2) 0.020(2) -0.0025(15) -0.0085(15) 0.003(2)
P4 P5+ 0.0086(5) 0.0117(6) 0.0117(6) -0.0025(5) -0.0023(5) -0.0016(5)
O12 O2- 0.012(2) 0.027(2) 0.022(2) -0.007(2) 0.003(2) -0.008(2)
O13 O2- 0.012(2) 0.016(2) 0.015(2) -0.0049(15) -0.0030(14) -0.0037(14)
O14 O2- 0.013(2) 0.012(2) 0.013(2) -0.0047(14) -0.0017(14) -0.0023(13)
#End of data_93591-ICSD


