data_628195-ICSD
#?2014 by Fachinformationszentrum Karlsruhe, and the U.S. Secretary of 
#Commerce on behalf of the United States.  All rights reserved.
_database_code_ICSD                628195
_audit_creation_date               2013/02/01
_chemical_name_systematic
;
Potassium Dicopper Tetrathioniobate
;
_chemical_formula_structural       'K Cu2 (Nb S4)'
_chemical_formula_sum              'Cu2 K1 Nb1 S4'
_publ_section_title
;
Synthesis and characterization of the new quaternary two-dimensional 
materials K Cu2 Nb Q4 (Q = Se, S)
;
loop_
_citation_id
_citation_journal_abbrev
_citation_year
_citation_journal_volume
_citation_page_first
_citation_page_last
_citation_journal_id_ASTM
primary 'Journal of Solid State Chemistry' 1991 94 381 385 JSSCBI
_publ_author_name                  'Lu, Y.-J.;Ibers, J.A.'
_cell_length_a                     7.45
_cell_length_b                     18.46
_cell_length_c                     5.76
_cell_angle_alpha                  90.0
_cell_angle_beta                   90.0
_cell_angle_gamma                  90.0
_cell_volume                       792.16
_cell_formula_units_Z              4
_symmetry_space_group_name_H-M     'A m a 2'
_symmetry_Int_Tables_number        40
loop_
_symmetry_equiv_pos_site_id
_symmetry_equiv_pos_as_xyz
  1	'x+.5, -y, z'
  2	'-x+.5, y, z'
  3	'-x, -y, z'
  4	'x, y, z'
  5	'x+.5, -y+.5, z+.5'
  6	'-x+.5, y+.5, z+.5'
  7	'-x, -y+.5, z+.5'
  8	'x, y+.5, z+.5'
loop_
_atom_type_symbol
_atom_type_oxidation_number
Cu1+	1
K1+	1
Nb5+	5
S2-	-2
loop_
_atom_site_label
_atom_site_type_symbol
_atom_site_symmetry_multiplicity
_atom_site_Wyckoff_symbol
_atom_site_fract_x
_atom_site_fract_y
_atom_site_fract_z
_atom_site_occupancy
_atom_site_attached_hydrogens
Nb1 Nb5+ 4 b 0.25 0.889 0.500 1. 0 
Cu1 Cu1+ 4 a 0 0 0.479 1. 0 
Cu2 Cu1+ 4 b 0.25 0.392 0.500 1. 0 
S1 S2- 4 b 0.25 0.4906 0.246 1. 0 
S2 S2- 4 b 0.25 0.286 0.250 1. 0 
S3 S2- 8 c 0.008 0.109 0.251 1. 0 
K1 K1+ 4 b 0.25 0.683 0.246 1. 0 

#End of data_628195-ICSD


