data_420329-ICSD
#?2014 by Fachinformationszentrum Karlsruhe, and the U.S. Secretary of 
#Commerce on behalf of the United States.  All rights reserved.
_database_code_ICSD                420329
_audit_creation_date               2009/08/01
_chemical_name_systematic          'Barium Calcium Polyphosphate'
_chemical_formula_structural       'Ba Ca (P4 O12)'
_chemical_formula_sum              'Ba1 Ca1 O12 P4'
_publ_section_title
;
Crystal structure, vibrational spectra and activation of Ba Ca (P4 
O12) with Eu2+ compared with beta - Sr (P O3)2 : Eu
;
loop_
_citation_id
_citation_journal_abbrev
_citation_year
_citation_journal_volume
_citation_journal_issue
_citation_page_first
_citation_page_last
_citation_journal_id_ASTM
primary 'European Journal of Inorganic Chemistry  (online)'
 2009 2009 21 3127 3130 EJICFO
_publ_author_name                  'Hoeppe, H.A.;Panzer, J.M.U.'
_cell_length_a                     7.2300(11)
_cell_length_b                     9.1705(19)
_cell_length_c                     15.247(2)
_cell_angle_alpha                  90.00
_cell_angle_beta                   90.995(12)
_cell_angle_gamma                  90.00
_cell_volume                       1010.77
_cell_formula_units_Z              4
_symmetry_space_group_name_H-M     'P 1 21/n 1'
_symmetry_Int_Tables_number        14
_refine_ls_R_factor_all            .0503
loop_
_symmetry_equiv_pos_site_id
_symmetry_equiv_pos_as_xyz
  1	'-x+.5, y+.5, -z+.5'
  2	'-x, -y, -z'
  3	'x+.5, -y+.5, z+.5'
  4	'x, y, z'
loop_
_atom_type_symbol
_atom_type_oxidation_number
Ba2+	2
Ca2+	2
O2-	-2
P5+	5
loop_
_atom_site_label
_atom_site_type_symbol
_atom_site_symmetry_multiplicity
_atom_site_Wyckoff_symbol
_atom_site_fract_x
_atom_site_fract_y
_atom_site_fract_z
_atom_site_occupancy
_atom_site_attached_hydrogens
_atom_site_U_iso_or_equiv
Ba1 Ba2+ 4 e 0.98459(11) 0.60748(10) 0.13382(6) 1 0 0.0258(3) 
Ca1 Ca2+ 4 e 0.5002(4) 0.7599(3) 0.15445(19) 1 0 0.0236(7) 
P1 P5+ 4 e 0.2372(4) 0.6026(4) 0.3231(2) 1 0 0.0228(8) 
P2 P5+ 4 e 0.7657(4) 0.2495(4) 0.0438(3) 1 0 0.0235(9) 
P3 P5+ 4 e 0.1259(5) 0.8402(4) 0.4378(3) 1 0 0.0244(9) 
P4 P5+ 4 e 0.6326(5) 0.5166(4) 0.3270(3) 1 0 0.0229(8) 
O1 O2- 4 e 0.6687(10) 0.6042(11) 0.2490(6) 1 0 0.026(2) 
O2 O2- 4 e 0.1929(12) 0.9610(9) 0.3840(6) 1 0 0.025(2) 
O3 O2- 4 e 0.1486(12) 0.8485(9) 0.5351(7) 1 0 0.028(2) 
O4 O2- 4 e 0.6984(12) 0.3649(10) 0.3322(6) 1 0 0.027(2) 
O5 O2- 4 e 0.7847(11) 0.0953(11) 0.0874(6) 1 0 0.030(2) 
O6 O2- 4 e 0.2143(13) 0.6869(10) 0.4132(7) 1 0 0.031(2) 
O7 O2- 4 e 0.0799(11) 0.5007(9) 0.3102(6) 1 0 0.023(2) 
O8 O2- 4 e 0.9246(13) 0.3446(10) 0.0668(8) 1 0 0.038(3) 
O9 O2- 4 e 0.7336(13) 0.2230(10) -0.0500(6) 1 0 0.031(2) 
O10 O2- 4 e 0.5892(11) 0.3137(10) 0.0890(7) 1 0 0.030(2) 
O11 O2- 4 e 0.2644(12) 0.7046(9) 0.2495(7) 1 0 0.026(2) 
O12 O2- 4 e 0.4184(11) 0.5098(10) 0.3462(7) 1 0 0.028(2) 

loop_
_atom_site_aniso_label
_atom_site_aniso_type_symbol
_atom_site_aniso_U_11
_atom_site_aniso_U_22
_atom_site_aniso_U_33
_atom_site_aniso_U_12
_atom_site_aniso_U_13
_atom_site_aniso_U_23
Ba1 Ba2+ 0.0193(4) 0.0299(5) 0.0283(5) 0.0022(4) -0.0017(3) -0.0020(5)
Ca1 Ca2+ 0.0174(13) 0.0282(15) 0.025(2) 0.0018(12) -0.0004(12) 0.0011(12)
P1 P5+ 0.0196(16) 0.0221(17) 0.027(2) -0.0018(16) -0.0003(14) -0.0028(18)
P2 P5+ 0.0173(17) 0.0244(19) 0.029(3) 0.0022(14) -0.0014(16) 0.0016(17)
P3 P5+ 0.0195(17) 0.028(2) 0.026(2) -0.0033(14) 0.0006(15) 0.0005(16)
P4 P5+ 0.0170(17) 0.0254(19) 0.026(2) -0.0004(14) 0.0007(15) -0.0036(16)
O1 O2- 0.022(4) 0.031(5) 0.026(6) 0.007(5) -0.004(4) 0.012(5)
O2 O2- 0.023(5) 0.025(5) 0.026(7) 0.000(4) 0.003(4) -0.006(4)
O3 O2- 0.019(5) 0.031(6) 0.034(7) 0.001(4) -0.008(4) 0.007(4)
O4 O2- 0.025(4) 0.027(6) 0.030(6) 0.004(4) -0.001(4) -0.006(4)
O5 O2- 0.026(5) 0.038(6) 0.024(6) -0.007(5) -0.004(4) 0.010(5)
O6 O2- 0.031(5) 0.032(6) 0.030(7) -0.004(4) 0.004(5) -0.004(4)
O7 O2- 0.014(4) 0.020(5) 0.035(6) -0.005(3) -0.008(4) -0.002(4)
O8 O2- 0.026(5) 0.028(6) 0.059(8) -0.004(4) -0.013(5) -0.006(5)
O9 O2- 0.028(5) 0.048(6) 0.017(6) 0.009(4) -0.003(4) -0.001(5)
O10 O2- 0.023(5) 0.025(5) 0.026(7) 0.000(4) 0.003(4) -0.006(4)
O11 O2- 0.020(5) 0.034(5) 0.023(6) 0.002(4) -0.001(4) 0.005(4)
O12 O2- 0.022(4) 0.031(5) 0.026(6) 0.007(5) -0.004(4) 0.012(5)
#End of data_420329-ICSD


