data_401042-ICSD
#?2014 by Fachinformationszentrum Karlsruhe, and the U.S. Secretary of 
#Commerce on behalf of the United States.  All rights reserved.
_database_code_ICSD                401042
_audit_creation_date               1995/10/17
_audit_update_record               2010/08/01
_chemical_name_systematic
;
Tetrapotassium Chloropentadecaoxocupropentavanadate
;
_chemical_formula_structural       'K4 (Cu V5 O15 Cl)'
_chemical_formula_sum              'Cl1 Cu1 K4 O15 V5'
_publ_section_title                'Zur Kenntnis von K4 Cu V5 O15 Cl'
loop_
_citation_id
_citation_journal_abbrev
_citation_year
_citation_journal_volume
_citation_page_first
_citation_page_last
_citation_journal_id_ASTM
primary 'Zeitschrift fuer Naturforschung, B: Chemical Sciences'
 1994 49 1459 1462 ZNBSEN
_publ_author_name                  'Martin, F.D.;Mueller Buschbaum, H.'
_cell_length_a                     8.8690(8)
_cell_length_b                     8.8690(8)
_cell_length_c                     5.420(2)
_cell_angle_alpha                  90.
_cell_angle_beta                   90.
_cell_angle_gamma                  90.
_cell_volume                       426.33
_cell_formula_units_Z              1
_symmetry_space_group_name_H-M     'P 4'
_symmetry_Int_Tables_number        75
_refine_ls_R_factor_all            .033
loop_
_symmetry_equiv_pos_site_id
_symmetry_equiv_pos_as_xyz
  1	'-y, x, z'
  2	'y, -x, z'
  3	'-x, -y, z'
  4	'x, y, z'
loop_
_atom_type_symbol
_atom_type_oxidation_number
Cl1-	-1
Cu2+	2
K1+	1
O2-	-2
V5+	5
loop_
_atom_site_label
_atom_site_type_symbol
_atom_site_symmetry_multiplicity
_atom_site_Wyckoff_symbol
_atom_site_fract_x
_atom_site_fract_y
_atom_site_fract_z
_atom_site_occupancy
_atom_site_attached_hydrogens
K1 K1+ 4 d 0.68226(7) 0.15638(7) 0.42595(14) 1. 0 
Cu1 Cu2+ 1 a 0 0 0.83933(12) 1. 0 
V1 V5+ 4 d 0.37142(4) 0.13896(4) 0.89607(8) 1. 0 
V2 V5+ 1 b 0.5 0.5 0.8571(2) 1. 0 
Cl1 Cl1- 1 a 0 0 0.3066(3) 1. 0 
O1 O2- 4 d 0.3833(3) 0.1411(2) 0.1957(4) 1. 0 
O2 O2- 4 d 0.1996(2) 0.0943(2) 0.7989(5) 1. 0 
O3 O2- 4 d 0.4170(3) 0.3128(2) 0.7670(5) 1. 0 
O4 O2- 2 c 0.5 0 0.7733(6) 1. 0 
O5 O2- 1 b 0.5 0.5 0.1441(9) 1. 0 

loop_
_atom_site_aniso_label
_atom_site_aniso_type_symbol
_atom_site_aniso_U_11
_atom_site_aniso_U_22
_atom_site_aniso_U_33
_atom_site_aniso_U_12
_atom_site_aniso_U_13
_atom_site_aniso_U_23
K1 K1+ 0.0274(2) 0.0328(3) 0.0256(3) -.0095(2) -.0013(3) 0.0004(3)
Cu1 Cu2+ 0.01123(12) 0.01123(12) 0.0205(3) 0 0 0
V1 V5+ 0.01182(12) 0.01282(12) 0.01751(14) -.00047(11) -.0002(2) -.0001(2)
V2 V5+ 0.0122(2) 0.0122(2) 0.0209(4) 0 0 0
Cl1 Cl1- 0.0277(3) 0.0277(3) 0.0185(6) 0 0 0
O1 O2- 0.0227(9) 0.0271(9) 0.0212(9) 0.0030(8) 0.0016(8) -.0024(8)
O2 O2- 0.0142(7) 0.0235(8) 0.0380(12) -.0072(6) -.0047(8) 0.0061(9)
O3 O2- 0.0334(10) 0.0176(8) 0.0333(12) -.0100(8) -.0029(10) 0.0016(9)
O4 O2- 0.0230(12) 0.0242(12) 0.0235(13) 0.0079(10) 0 0
O5 O2- 0.0332(14) 0.0332(14) 0.025(2) 0 0 0
#End of data_401042-ICSD


