data_249717-ICSD
#?2014 by Fachinformationszentrum Karlsruhe, and the U.S. Secretary of 
#Commerce on behalf of the United States.  All rights reserved.
_database_code_ICSD                249717
_audit_creation_date               2009/02/01
_chemical_name_systematic
;
Tripotassium Neodymium Bis(tetrathiophosphate)
;
_chemical_formula_structural       'K3 Nd (P S4)2'
_chemical_formula_sum              'K3 Nd1 P2 S8'
_publ_section_title
;
Syntheses, structures, and spectroscopic properties of K9 Nd [P S4]4, 
K3 Nd [P S4]2, Cs3 Nd [P S4]2, and K3 Nd3 [P S4]4
;
loop_
_citation_id
_citation_journal_abbrev
_citation_year
_citation_journal_volume
_citation_journal_issue
_citation_page_first
_citation_page_last
_citation_journal_id_ASTM
primary 'Inorganic Chemistry' 2008 47 17 7523 7534 INOCAJ
_publ_author_name                  'Wu Yuan Dong;Bensch, W.'
_cell_length_a                     9.1799(7)
_cell_length_b                     16.8797(12)
_cell_length_c                     9.4828(7)
_cell_angle_alpha                  90.00
_cell_angle_beta                   90.198(9)
_cell_angle_gamma                  90.00
_cell_volume                       1469.39
_cell_formula_units_Z              4
_symmetry_space_group_name_H-M     'P 1 21/c 1'
_symmetry_Int_Tables_number        14
_refine_ls_R_factor_all            .0393
loop_
_symmetry_equiv_pos_site_id
_symmetry_equiv_pos_as_xyz
  1	'x, -y+.5, z+.5'
  2	'-x, -y, -z'
  3	'-x, y+.5, -z+.5'
  4	'x, y, z'
loop_
_atom_type_symbol
_atom_type_oxidation_number
K1+	1
Nd3+	3
P5+	5
S2-	-2
loop_
_atom_site_label
_atom_site_type_symbol
_atom_site_symmetry_multiplicity
_atom_site_Wyckoff_symbol
_atom_site_fract_x
_atom_site_fract_y
_atom_site_fract_z
_atom_site_occupancy
_atom_site_attached_hydrogens
_atom_site_U_iso_or_equiv
Nd1 Nd3+ 4 e 0.22885(4) 0.014812(16) 0.02511(4) 1 0 0.01414(12) 
P1 P5+ 4 e 0.00512(18) 0.60093(9) 0.25355(17) 1 0 0.0140(3) 
P2 P5+ 4 e 0.47612(17) 0.40110(9) 0.27784(17) 1 0 0.0139(3) 
S1 S2- 4 e 0.1205(2) 0.67647(10) 0.1366(2) 1 0 0.0247(4) 
S2 S2- 4 e 0.21264(18) 0.11506(11) 0.27732(18) 1 0 0.0237(4) 
S3 S2- 4 e 0.0538(2) 0.48330(8) 0.2380(2) 1 0 0.0237(4) 
S4 S2- 4 e 0.03599(18) 0.62145(9) 0.46563(18) 1 0 0.0210(3) 
S5 S2- 4 e 0.43434(19) 0.37397(10) 0.07557(17) 1 0 0.0209(3) 
S6 S2- 4 e 0.3386(2) 0.34132(9) 0.40789(18) 1 0 0.0221(3) 
S7 S2- 4 e 0.68641(17) 0.37180(10) 0.32569(19) 1 0 0.0220(4) 
S8 S2- 4 e 0.54167(19) 0.02100(8) 0.18187(19) 1 0 0.0192(3) 
K1 K1+ 4 e 0.1216(2) 0.29341(10) 0.1249(2) 1 0 0.0381(5) 
K2 K1+ 4 e 0.6170(3) 0.21215(11) 0.1313(2) 1 0 0.0498(6) 
K3 K1+ 4 e 0.73035(15) 0.47075(7) 0.01623(14) 1 0 0.0140(2) 

loop_
_atom_site_aniso_label
_atom_site_aniso_type_symbol
_atom_site_aniso_U_11
_atom_site_aniso_U_22
_atom_site_aniso_U_33
_atom_site_aniso_U_12
_atom_site_aniso_U_13
_atom_site_aniso_U_23
Nd1 Nd3+ 0.01506(17) 0.00978(17) 0.01754(18) -0.00003(10) -0.00645(14) 
0.00018(11)
P1 P5+ 0.0166(7) 0.0115(7) 0.0140(7) 0.0021(5) -0.0067(6) -0.0003(5)
P2 P5+ 0.0144(7) 0.0105(7) 0.0166(7) -0.0002(5) -0.0081(6) 0.0001(5)
S1 S2- 0.0304(9) 0.0154(7) 0.0282(8) -0.0053(6) -0.0055(7) 0.0083(6)
S2 S2- 0.0189(7) 0.0299(8) 0.0222(7) -0.0045(6) -0.0123(7) 0.0032(6)
S3 S2- 0.0364(10) 0.0093(7) 0.0254(8) -0.0006(6) -0.0073(8) 0.0011(5)
S4 S2- 0.0248(8) 0.0193(7) 0.0187(7) 0.0067(6) -0.0126(7) -0.0053(6)
S5 S2- 0.0248(8) 0.0205(7) 0.0171(7) 0.0000(6) -0.0092(6) -0.0026(6)
S6 S2- 0.0279(8) 0.0134(7) 0.0250(8) -0.0054(6) -0.0047(7) 0.0029(6)
S7 S2- 0.0180(7) 0.0155(7) 0.0324(8) 0.0044(5) -0.0138(7) -0.0049(6)
S8 S2- 0.0217(8) 0.0109(7) 0.0249(8) 0.0015(5) -0.0043(7) -0.0010(5)
K1 K1+ 0.0358(9) 0.0228(8) 0.0558(11) -0.0077(6) -0.0213(9) 0.0041(7)
K2 K1+ 0.0703(14) 0.0234(8) 0.0555(12) 0.0161(9) -0.0398(11) -0.0166(8)
K3 K1+ 0.0157(5) 0.0129(5) 0.0133(5) -0.0014(5) -0.0002(5) 0.0008(4)
#End of data_249717-ICSD


