data_18179-ICSD
#?2014 by Fachinformationszentrum Karlsruhe, and the U.S. Secretary of 
#Commerce on behalf of the United States.  All rights reserved.
_database_code_ICSD                18179
_audit_creation_date               1980/01/01
_audit_update_record               2007/08/01
_chemical_name_systematic          'Dicalcium Silicate - Gamma'
_chemical_formula_structural       'Ca2 (Si O4)'
_chemical_formula_sum              'Ca2 O4 Si1'
_publ_section_title
;
The structure of gamma dicalcium silicate
;
loop_
_citation_id
_citation_journal_abbrev
_citation_year
_citation_journal_volume
_citation_page_first
_citation_page_last
_citation_journal_id_ASTM
primary 'Acta Crystallographica (1,1948-23,1967)' 1965 18 787 795 ACCRA9
2 'Phase Transition' 1992 38 127 220 PHTRDP
_publ_author_name
;
Smith, D.K.jr.;Majumdar, A.;Ordway, F.
;
_cell_length_a                     5.091(10)
_cell_length_b                     11.371(20)
_cell_length_c                     6.782(10)
_cell_angle_alpha                  90.
_cell_angle_beta                   90.
_cell_angle_gamma                  90.
_cell_volume                       392.61
_cell_formula_units_Z              4
_symmetry_space_group_name_H-M     'P b n m'
_symmetry_Int_Tables_number        62
_refine_ls_R_factor_all            .1
loop_
_symmetry_equiv_pos_site_id
_symmetry_equiv_pos_as_xyz
  1	'-x+.5, y+.5, z'
  2	'x, y, -z+.5'
  3	'x+.5, -y+.5, z+.5'
  4	'-x, -y, -z'
  5	'x+.5, -y+.5, -z'
  6	'-x, -y, z+.5'
  7	'-x+.5, y+.5, -z+.5'
  8	'x, y, z'
loop_
_atom_type_symbol
_atom_type_oxidation_number
Ca2+	2
O2-	-2
Si4+	4
loop_
_atom_site_label
_atom_site_type_symbol
_atom_site_symmetry_multiplicity
_atom_site_Wyckoff_symbol
_atom_site_fract_x
_atom_site_fract_y
_atom_site_fract_z
_atom_site_occupancy
_atom_site_attached_hydrogens
_atom_site_B_iso_or_equiv
Ca1 Ca2+ 4 a 0 0 0 1. 0 0.79 
Ca2 Ca2+ 4 c -.0116(12) 0.2804(5) 0.25 1. 0 0.68 
Si1 Si4+ 4 c 0.4272(16) 0.0985(7) 0.25 1. 0 0.6 
O1 O2- 4 c -.2623(36) 0.0867(17) 0.25 1. 0 0.55 
O2 O2- 4 c 0.3020(34) -.0421(17) 0.25 1. 0 0.48 
O3 O2- 8 d 0.2925(27) 0.1633(11) 0.0599(22) 1. 0 1.16 

#End of data_18179-ICSD


