data_94226-ICSD
#?2014 by Fachinformationszentrum Karlsruhe, and the U.S. Secretary of 
#Commerce on behalf of the United States.  All rights reserved.
_database_code_ICSD                94226
_audit_creation_date               2003/10/01
_chemical_name_systematic
;
Barium Erbium Zinc Oxide (5/8/4/21)
;
_chemical_formula_structural       'Ba5 Er8 Zn4 O21'
_chemical_formula_sum              'Ba5 Er8 O21 Zn4'
_publ_section_title
;
Crystallographic studies and X-ray diffraction patterns of Ba5 R8 Zn4 
O21 by Rietveld refinements
;
loop_
_citation_id
_citation_journal_abbrev
_citation_year
_citation_journal_volume
_citation_journal_issue
_citation_page_first
_citation_page_last
_citation_journal_id_ASTM
primary 'Powder Diffraction' 2001 16 3 131 143 PODIE2
_publ_author_name
;
Wong-Ng, W.;Kaduk, J.A.;Dillingham, J.
;
_cell_length_a                     13.71838(8)
_cell_length_b                     13.71838(8)
_cell_length_c                     5.69019(4)
_cell_angle_alpha                  90
_cell_angle_beta                   90
_cell_angle_gamma                  90
_cell_volume                       1070.86
_cell_formula_units_Z              2
_symmetry_space_group_name_H-M     'I 4/m'
_symmetry_Int_Tables_number        87
_refine_ls_R_factor_all            .0248
loop_
_symmetry_equiv_pos_site_id
_symmetry_equiv_pos_as_xyz
  1	'-y, x, -z'
  2	'y, -x, -z'
  3	'x, y, -z'
  4	'-x, -y, -z'
  5	'y, -x, z'
  6	'-y, x, z'
  7	'-x, -y, z'
  8	'x, y, z'
  9	'-y+.5, x+.5, -z+.5'
 10	'y+.5, -x+.5, -z+.5'
 11	'x+.5, y+.5, -z+.5'
 12	'-x+.5, -y+.5, -z+.5'
 13	'y+.5, -x+.5, z+.5'
 14	'-y+.5, x+.5, z+.5'
 15	'-x+.5, -y+.5, z+.5'
 16	'x+.5, y+.5, z+.5'
loop_
_atom_type_symbol
_atom_type_oxidation_number
Ba2+	2
Er3+	3
O2-	-2
Zn2+	2
loop_
_atom_site_label
_atom_site_type_symbol
_atom_site_symmetry_multiplicity
_atom_site_Wyckoff_symbol
_atom_site_fract_x
_atom_site_fract_y
_atom_site_fract_z
_atom_site_occupancy
_atom_site_attached_hydrogens
_atom_site_U_iso_or_equiv
Er1 Er3+ 8 h 0.2480(2) 0.1682(2) 0 1. 0 0.0018(4) 
Er2 Er3+ 8 h 0.4118(2) 0.3572(2) 0 1. 0 0.0018(4) 
Ba1 Ba2+ 2 a 0 0 0 1. 0 0.0036(5) 
Ba2 Ba2+ 8 h 0.5354(2) 0.1401(2) 0 1. 0 0.0036(5) 
Zn1 Zn2+ 8 h 0.0395(4) 0.2511(4) 0 1. 0 0.0006(10) 
O1 O2- 2 b 0.5 0.5 0 1. 0 0.005 
O2 O2- 8 h 0.6306(16) 0.9600(15) 0 1. 0 0.005 
O3 O2- 16 i 0.6773(17) 0.5437(9) 0.7475(33) 1. 0 0.005 
O4 O2- 16 i 0.3505(11) 0.2448(9) 0.2512(29) 1. 0 0.005 

#End of data_94226-ICSD


