data_14005-ICSD
#?2014 by Fachinformationszentrum Karlsruhe, and the U.S. Secretary of 
#Commerce on behalf of the United States.  All rights reserved.
_database_code_ICSD                14005
_audit_creation_date               1980/01/01
_audit_update_record               2005/10/01
_chemical_name_systematic          'Calcium Tecto-digermanate'
_chemical_formula_structural       'Ca (Ge2 O5)'
_chemical_formula_sum              'Ca1 Ge2 O5'
_publ_section_title
;
Die Kristallstruktur der Hoch- und der Tieftemperaturform von Ca Ge2 
O5
;
loop_
_citation_id
_citation_journal_abbrev
_citation_year
_citation_journal_volume
_citation_page_first
_citation_page_last
_citation_journal_id_ASTM
primary
;
Zeitschrift fuer Kristallographie, Kristallgeometrie, Kristallphysik, 
Kristallchemie (-144,1977)
;
 1976 144 82 90 ZEKGAX
2 'Golden Book of Phase Transitions, Wroclaw' 2002 1 1 123 GBOPT5
_publ_author_name
;
Aust, H.;Voellenkle, H.;Wittmann, A.
;
_cell_length_a                     6.53
_cell_length_b                     8.8
_cell_length_c                     7.4
_cell_angle_alpha                  90.75
_cell_angle_beta                   121.25
_cell_angle_gamma                  91.05
_cell_volume                       363.35
_cell_formula_units_Z              4
_symmetry_space_group_name_H-M     'C -1'
_symmetry_Int_Tables_number        2
_refine_ls_R_factor_all            .104
loop_
_symmetry_equiv_pos_site_id
_symmetry_equiv_pos_as_xyz
  1	'-x, -y, -z'
  2	'x, y, z'
  3	'-x+.5, -y+.5, -z'
  4	'x+.5, y+.5, z'
loop_
_atom_type_symbol
_atom_type_oxidation_number
Ca2+	2
Ge4+	4
O2-	-2
loop_
_atom_site_label
_atom_site_type_symbol
_atom_site_symmetry_multiplicity
_atom_site_Wyckoff_symbol
_atom_site_fract_x
_atom_site_fract_y
_atom_site_fract_z
_atom_site_occupancy
_atom_site_attached_hydrogens
_atom_site_B_iso_or_equiv
Ca1 Ca2+ 4 i 0.5257(6) 0.5806(5) 0.2664(4) 1. 0 0.97 
Ge1 Ge4+ 4 i 0.4972(3) 0.9355(2) 0.2437(3) 1. 0 0.8 
Ge2 Ge4+ 2 c 0.75 0.75 0 1. 0 0.97 
Ge3 Ge4+ 2 f 0.75 0.25 0.5 1. 0 0.96 
O1 O2- 4 i 0.751(2) 0.956(2) 0.906(2) 1. 0 1. 
O2 O2- 4 i 0.003(2) 0.821(2) 0.251(2) 1. 0 0.6 
O3 O2- 4 i 0.520(2) 0.803(2) 0.079(2) 1. 0 0.9 
O4 O2- 4 i 0.491(2) 0.825(2) 0.434(2) 1. 0 1.1 
O5 O2- 4 i 0.748(2) 0.446(2) 0.615(2) 1. 0 0.7 

#End of data_14005-ICSD


