data_15545-ICSD
#?2014 by Fachinformationszentrum Karlsruhe, and the U.S. Secretary of 
#Commerce on behalf of the United States.  All rights reserved.
_database_code_ICSD                15545
_audit_creation_date               1981/12/31
_audit_update_record               2012/02/01
_chemical_name_systematic
;
Tetrasodium Dizirconium Tris(silicate)
;
_chemical_formula_structural       'Na4 Zr2 (Si O4)3'
_chemical_formula_sum              'Na4 O12 Si3 Zr2'
_publ_section_title
;
Crystal structure and ionic conductivity in Na4 Zr2 Si3 O12
;
loop_
_citation_id
_citation_journal_abbrev
_citation_year
_citation_journal_volume
_citation_page_first
_citation_page_last
_citation_journal_id_ASTM
primary 'Journal of Solid State Chemistry' 1981 39 219 229 JSSCBI
2 'Mineralogiceskij Zhurnal' 1985 7 78 82 MINZDR
_publ_author_name
;
Duc Tran Qui;Capponi, J.J.;Joubert, J.C.;Shannon, R.D.
;
_cell_length_a                     9.1863(5)
_cell_length_b                     9.1863
_cell_length_c                     22.181(2)
_cell_angle_alpha                  90.
_cell_angle_beta                   90.
_cell_angle_gamma                  120.
_cell_volume                       1621.04
_cell_formula_units_Z              6
_symmetry_space_group_name_H-M     'R -3 c H'
_symmetry_Int_Tables_number        167
_refine_ls_R_factor_all            .019
loop_
_symmetry_equiv_pos_site_id
_symmetry_equiv_pos_as_xyz
  1	'x-y, -y, -z+.5'
  2	'-x, -x+y, -z+.5'
  3	'y, x, -z+.5'
  4	'x-y, x, -z'
  5	'y, -x+y, -z'
  6	'-x, -y, -z'
  7	'-x+y, y, z+.5'
  8	'x, x-y, z+.5'
  9	'-y, -x, z+.5'
 10	'-x+y, -x, z'
 11	'-y, x-y, z'
 12	'x, y, z'
 13	'x-y+.6666, -y+.3333, -z+.8333'
 14	'x-y+.3333, -y+.6666, -z+.1666'
 15	'-x+.6666, -x+y+.3333, -z+.8333'
 16	'-x+.3333, -x+y+.6666, -z+.1666'
 17	'y+.6666, x+.3333, -z+.8333'
 18	'y+.3333, x+.6666, -z+.1666'
 19	'x-y+.6666, x+.3333, -z+.3333'
 20	'x-y+.3333, x+.6666, -z+.6666'
 21	'y+.6666, -x+y+.3333, -z+.3333'
 22	'y+.3333, -x+y+.6666, -z+.6666'
 23	'-x+.6666, -y+.3333, -z+.3333'
 24	'-x+.3333, -y+.6666, -z+.6666'
 25	'-x+y+.6666, y+.3333, z+.8333'
 26	'-x+y+.3333, y+.6666, z+.1666'
 27	'x+.6666, x-y+.3333, z+.8333'
 28	'x+.3333, x-y+.6666, z+.1666'
 29	'-y+.6666, -x+.3333, z+.8333'
 30	'-y+.3333, -x+.6666, z+.1666'
 31	'-x+y+.6666, -x+.3333, z+.3333'
 32	'-x+y+.3333, -x+.6666, z+.6666'
 33	'-y+.6666, x-y+.3333, z+.3333'
 34	'-y+.3333, x-y+.6666, z+.6666'
 35	'x+.6666, y+.3333, z+.3333'
 36	'x+.3333, y+.6666, z+.6666'
loop_
_atom_type_symbol
_atom_type_oxidation_number
Na1+	1
O2-	-2
Si4+	4
Zr4+	4
loop_
_atom_site_label
_atom_site_type_symbol
_atom_site_symmetry_multiplicity
_atom_site_Wyckoff_symbol
_atom_site_fract_x
_atom_site_fract_y
_atom_site_fract_z
_atom_site_occupancy
_atom_site_attached_hydrogens
Zr1 Zr4+ 12 c 0 0 0.14679(1) 1. 0 
Na1 Na1+ 6 b 0 0 0 1. 0 
Na2 Na1+ 18 e -.36253(26) 0 0.25 1. 0 
O1 O2- 36 f 0.18532(23) 0.16658(26) 0.08488(9) 1. 0 
O2 O2- 36 f 0.18458(28) -.01714(30) 0.19119(12) 1. 0 
Si1 Si4+ 18 e 0.29683(12) 0 0.25 1. 0 

loop_
_atom_site_aniso_label
_atom_site_aniso_type_symbol
_atom_site_aniso_U_11
_atom_site_aniso_U_22
_atom_site_aniso_U_33
_atom_site_aniso_U_12
_atom_site_aniso_U_13
_atom_site_aniso_U_23
Zr1 Zr4+ 0.0052(1) 0.0052 0.0054(1) 0.0026 0 0
Na1 Na1+ 0.0260(12) 0.026 0.0080(14) 0.013 0 0
Na2 Na1+ 0.0162(9) 0.0133(9) 0.059(2) 0.00665 0.00485 0.0097(9)
O1 O2- 0.0129(6) 0.0109(9) 0.0104(9) 0.0076(7) 0.0085(6) 0.0017(7)
O2 O2- 0.0152(9) 0.018(1) 0.0216(11) 0.0092(8) -.0093(8) 0.0008(8)
Si1 Si4+ 0.0052(2) 0.0046(3) 0.0089(4) 0.0023 0.0006 0.0012(3)
#End of data_15545-ICSD


