data_405506-ICSD
#?2014 by Fachinformationszentrum Karlsruhe, and the U.S. Secretary of 
#Commerce on behalf of the United States.  All rights reserved.
_database_code_ICSD                405506
_audit_creation_date               1997/05/13
_chemical_name_systematic          'Octasilver Trigermanate'
_chemical_formula_structural       'Ag8 (Ge3 O10)'
_chemical_formula_sum              'Ag8 Ge3 O10'
_publ_section_title
;
Darstellung, Kristallstruktur und physikalische Eigenschaften von 
Oktasilbertrigermanat, Ag8 Ge3 O10
;
loop_
_citation_id
_citation_journal_abbrev
_citation_year
_citation_journal_volume
_citation_page_first
_citation_page_last
_citation_journal_id_ASTM
primary 'Zeitschrift fuer Naturforschung, B: Chemical Sciences'
 1996 51 1591 1597 ZNBSEN
_publ_author_name                  'Linke, C.;Jansen, M.'
_cell_length_a                     12.1549(11)
_cell_length_b                     10.7375(14)
_cell_length_c                     18.517(2)
_cell_angle_alpha                  90.
_cell_angle_beta                   92.326(10)
_cell_angle_gamma                  90.
_cell_volume                       2414.72
_cell_formula_units_Z              8
_symmetry_space_group_name_H-M     'P 1 c 1'
_symmetry_Int_Tables_number        7
_refine_ls_R_factor_all            .1279
loop_
_symmetry_equiv_pos_site_id
_symmetry_equiv_pos_as_xyz
  1	'x, -y, z+.5'
  2	'x, y, z'
loop_
_atom_type_symbol
_atom_type_oxidation_number
Ag1+	1
Ge4+	4
O2-	-2
loop_
_atom_site_label
_atom_site_type_symbol
_atom_site_symmetry_multiplicity
_atom_site_Wyckoff_symbol
_atom_site_fract_x
_atom_site_fract_y
_atom_site_fract_z
_atom_site_occupancy
_atom_site_attached_hydrogens
_atom_site_U_iso_or_equiv
Ag1 Ag1+ 2 a 0.7066(6) 0.1118(6) 0.5683(3) 1. 0 0 
Ag2 Ag1+ 2 a 0.5235(4) 0.8870(5) 0.5268(3) 1. 0 0 
Ag3 Ag1+ 2 a 0.4699(4) 0.3636(5) 0.9693(3) 1. 0 0 
Ag4 Ag1+ 2 a 0.2240(4) 0.6344(5) 0.5517(2) 1. 0 0 
Ag5 Ag1+ 2 a 0.5086(4) 0.6244(5) 0.8319(2) 1. 0 0 
Ag6 Ag1+ 2 a 0.0055(5) 0.1315(5) 0.8502(3) 1. 0 0 
Ag7 Ag1+ 2 a 0.2979(4) 0.8597(4) 0.6254(2) 1. 0 0 
Ag8 Ag1+ 2 a 0.5702(6) 0.3925(5) 0.5248(3) 1. 0 0 
Ag9 Ag1+ 2 a 0.4322(5) 0.8535(5) 0.9773(3) 1. 0 0 
Ag10 Ag1+ 2 a 0.1278(5) 0.3631(5) 0.6802(3) 1. 0 0 
Ag11 Ag1+ 2 a 0.8459(4) 0.8849(5) 0.8218(3) 1. 0 0 
Ag12 Ag1+ 2 a 0.9394(5) 0.3881(7) 0.7829(3) 1. 0 0 
Ag13 Ag1+ 2 a 0.3395(5) 0.8884(7) 0.8101(4) 1. 0 0 
Ag14 Ag1+ 2 a 0.6430(5) 0.3531(5) 0.6977(3) 1. 0 0 
Ag15 Ag1+ 2 a 0.9328(5) 0.1141(6) 0.4840(3) 1. 0 0 
Ag16 Ag1+ 2 a 0.0543(4) 0.6248(5) 0.0156(2) 1. 0 0 
Ag17 Ag1+ 2 a 0.8068(4) 0.8628(6) 0.6239(3) 1. 0 0 
Ag18 Ag1+ 2 a 0.4357(4) 0.3876(5) 0.7701(3) 1. 0 0 
Ag19 Ag1+ 2 a 0.2389(4) 0.1404(5) 0.7410(3) 1. 0 0 
Ag20 Ag1+ 2 a 0.7614(4) 0.6189(5) 0.7450(3) 1. 0 0 
Ag21 Ag1+ 2 a 0.2246(4) 0.1240(5) 0.5785(3) 1. 0 0 
Ag22 Ag1+ 2 a 0.3457(5) 0.3818(5) 0.6111(3) 1. 0 0 
Ag23 Ag1+ 2 a 0.6348(4) 0.8497(4) 0.8953(3) 1. 0 0 
Ag24 Ag1+ 2 a 0.8467(5) 0.3552(5) 0.6157(3) 1. 0 0 
Ag25 Ag1+ 2 a 0.1504(5) 0.8659(5) 0.9132(3) 1. 0 0 
Ag26 Ag1+ 2 a 0.5177(4) 0.1174(5) 0.8488(3) 1. 0 0 
Ag27 Ag1+ 2 a 0.0542(4) 0.8640(5) 0.5405(2) 1. 0 0 
Ag28 Ag1+ 2 a 0.9809(4) 0.3600(5) 0.9680(2) 1. 0 0 
Ag29 Ag1+ 2 a 0.7545(4) 0.6097(5) 0.5661(3) 1. 0 0 
Ag30 Ag1+ 2 a 0.0367(4) 0.6386(5) 0.8505(3) 1. 0 0 
Ag31 Ag1+ 2 a 0.2743(4) 0.6314(5) 0.7433(2) 1. 0 0 
Ag32 Ag1+ 2 a 0.7694(4) 0.1256(5) 0.7610(2) 1. 0 0 
Ge1 Ge4+ 2 a 0.2944(4) 0.6196(5) 0.9323(3) 1. 0 0 
Ge2 Ge4+ 2 a 0.2042(5) 0.3748(5) 0.8602(3) 1. 0 0 
Ge3 Ge4+ 2 a 0.2823(5) 0.1213(5) 0.9468(3) 1. 0 0 
Ge4 Ge4+ 2 a 0.7715(5) 0.1261(5) 0.9415(3) 1. 0 0 
Ge5 Ge4+ 2 a 0.6922(5) 0.3814(6) 0.8709(3) 1. 0 0 
Ge6 Ge4+ 2 a 0.8008(5) 0.6309(6) 0.9373(3) 1. 0 0 
Ge7 Ge4+ 2 a 0.9981(5) 0.6193(5) 0.6470(3) 1. 0 0 
Ge8 Ge4+ 2 a 0.0761(4) 0.8736(5) 0.7335(3) 1. 0 0 
Ge9 Ge4+ 2 a 0.9864(5) 0.1189(5) 0.6598(3) 1. 0 0 
Ge10 Ge4+ 2 a 0.5074(4) 0.6274(5) 0.6517(3) 1. 0 0 
Ge11 Ge4+ 2 a 0.5874(5) 0.8792(5) 0.7215(3) 1. 0 0 
Ge12 Ge4+ 2 a 0.4785(5) 0.1295(6) 0.6539(4) 1. 0 0 
O1 O2- 2 a 0.2364(26) 0.6727(29) 1.0103(16) 1. 0 0.027(7) 
O2 O2- 2 a 0.2224(24) 0.6839(28) 0.8611(15) 1. 0 0.017(6) 
O3 O2- 2 a 0.4341(22) 0.6654(24) 0.9330(14) 1. 0 0.016(6) 
O4 O2- 2 a 0.2907(21) 0.4520(25) 0.9236(13) 1. 0 0.016(6) 
O5 O2- 2 a 0.2498(22) 0.4092(25) 0.7748(13) 1. 0 0.007(5) 
O6 O2- 2 a 0.0646(17) 0.4223(20) 0.8720(11) 1. 0 0.011(5) 
O7 O2- 2 a 0.2352(16) 0.2144(18) 0.8714(10) 1. 0 0.014(4) 
O8 O2- 2 a 0.3405(28) 0.2187(33) 1.0161(17) 1. 0 0.022(8) 
O9 O2- 2 a 0.3719(18) 0.0232(21) 0.9026(12) 1. 0 0.018(5) 
O10 O2- 2 a 0.1720(18) 0.0373(21) 0.9748(11) 1. 0 0.016(5) 
O11 O2- 2 a 0.7028(19) 0.0794(21) 1.0155(12) 1. 0 0.013(5) 
O12 O2- 2 a 0.9095(23) 0.0743(25) 0.9458(14) 1. 0 0.018(6) 
O13 O2- 2 a 0.7072(31) 0.0701(34) 0.8649(19) 1. 0 0.032(9) 
O14 O2- 2 a 0.7708(19) 0.2950(22) 0.9409(12) 1. 0 0.008(5) 
O15 O2- 2 a 0.5534(24) 0.3340(26) 0.8669(15) 1. 0 0.011(5) 
O16 O2- 2 a 0.7550(17) 0.3864(20) 0.7951(11) 1. 0 0.016(4) 
O17 O2- 2 a 0.6853(12) 0.5310(14) 0.9163(8) 1. 0 0.005(3) 
O18 O2- 2 a 0.8749(22) 0.5520(25) 1.0108(13) 1. 0 0.023(6) 
O19 O2- 2 a 0.8660(12) 0.6611(15) 0.8551(8) 1. 0 0.014(3) 
O20 O2- 2 a 0.7540(16) 0.7662(18) 0.9698(10) 1. 0 0.025(4) 
O21 O2- 2 a 0.9363(24) 0.7128(28) 0.5804(15) 1. 0 0.013(6) 
O22 O2- 2 a 0.8923(18) 0.5263(21) 0.6786(11) 1. 0 0.017(5) 
O23 O2- 2 a 1.0988(19) 0.5291(22) 0.6053(12) 1. 0 0.020(5) 
O24 O2- 2 a 1.0683(15) 0.7127(17) 0.7147(9) 1. 0 0.010(4) 
O25 O2- 2 a 0.2112(19) 0.8987(22) 0.7223(12) 1. 0 0.018(5) 
O26 O2- 2 a 0.0288(30) 0.9138(33) 0.8143(18) 1. 0 0.026(8) 
O27 O2- 2 a 0.9973(19) 0.9531(23) 0.6623(12) 1. 0 0.010(5) 
O28 O2- 2 a 1.0528(24) 0.1861(28) 0.7382(15) 1. 0 0.016(6) 
O29 O2- 2 a 0.8464(22) 0.1486(24) 0.6569(14) 1. 0 0.017(6) 
O30 O2- 2 a 1.0466(20) 0.1592(23) 0.5782(13) 1. 0 0.012(5) 
O31 O2- 2 a 0.5725(20) 0.5959(23) 0.5706(13) 1. 0 0.018(6) 
O32 O2- 2 a 0.5742(19) 0.5625(22) 0.7295(12) 1. 0 0.004(5) 
O33 O2- 2 a 0.3692(22) 0.5900(25) 0.6452(14) 1. 0 0.015(6) 
O34 O2- 2 a 0.5084(25) 0.7932(28) 0.6613(15) 1. 0 0.024(7) 
O35 O2- 2 a 0.5212(17) 0.8592(20) 0.8071(11) 1. 0 0.018(5) 
O36 O2- 2 a 0.7245(36) 0.8397(39) 0.7280(22) 1. 0 0.037(10) 
O37 O2- 2 a 0.5738(25) 1.0382(30) 0.6976(16) 1. 0 0.057(8) 
O38 O2- 2 a 0.3958(19) 0.0538(22) 0.5929(12) 1. 0 0.014(5) 
O39 O2- 2 a 0.5691(20) 0.2395(22) 0.6133(12) 1. 0 0.037(5) 
O40 O2- 2 a 0.3961(24) 0.2171(28) 0.7005(16) 1. 0 0.063(8) 

loop_
_atom_site_aniso_label
_atom_site_aniso_type_symbol
_atom_site_aniso_U_11
_atom_site_aniso_U_22
_atom_site_aniso_U_33
_atom_site_aniso_U_12
_atom_site_aniso_U_13
_atom_site_aniso_U_23
Ag1 Ag1+ 0.046(3) 0.047(3) 0.037(3) -.003(3) 0.012(2) 0.006(2)
Ag2 Ag1+ 0.012(2) 0.039(3) 0.029(2) -.003(2) 0.001(2) 0.001(2)
Ag3 Ag1+ 0.021(2) 0.038(3) 0.039(3) -.007(2) 0.001(2) 0.002(2)
Ag4 Ag1+ 0.017(2) 0.028(2) 0.020(2) -.002(2) 0.004(2) 0.004(2)
Ag5 Ag1+ 0.025(3) 0.023(2) 0.021(2) 0.000(2) 0.008(2) -.007(2)
Ag6 Ag1+ 0.039(3) 0.016(2) 0.032(3) -.004(2) 0.017(2) 0.001(2)
Ag7 Ag1+ 0.024(2) 0.019(2) 0.026(2) -.004(2) 0.011(2) -.008(2)
Ag8 Ag1+ 0.055(4) 0.032(3) 0.034(3) -.013(3) 0.001(2) -.003(2)
Ag9 Ag1+ 0.037(3) 0.022(3) 0.051(3) 0.003(2) 0.017(2) 0.000(2)
Ag10 Ag1+ 0.039(3) 0.022(2) 0.032(3) -.004(2) -.010(2) 0.007(2)
Ag11 Ag1+ 0.014(2) 0.038(3) 0.048(3) -.004(2) -.004(2) 0.012(2)
Ag12 Ag1+ 0.019(3) 0.074(4) 0.043(3) 0.003(3) -.010(2) 0.012(3)
Ag13 Ag1+ 0.017(3) 0.076(4) 0.048(4) -.002(3) -.005(2) -.010(3)
Ag14 Ag1+ 0.021(2) 0.039(3) 0.036(3) -.006(2) 0.003(2) -.014(2)
Ag15 Ag1+ 0.047(3) 0.036(3) 0.050(3) -.014(2) 0.006(2) -.018(2)
Ag16 Ag1+ 0.019(2) 0.023(2) 0.024(2) -.001(2) 0.000(2) 0.001(2)
Ag17 Ag1+ 0.019(2) 0.060(3) 0.024(2) 0.004(2) 0.003(2) -.011(2)
Ag18 Ag1+ 0.014(2) 0.033(3) 0.037(3) -.001(2) 0.002(2) -.001(2)
Ag19 Ag1+ 0.018(2) 0.027(2) 0.033(2) 0.001(2) -.001(2) -.007(2)
Ag20 Ag1+ 0.022(2) 0.025(2) 0.044(3) -.003(2) 0.007(2) 0.000(2)
Ag21 Ag1+ 0.012(2) 0.024(2) 0.030(2) 0.004(2) -.005(2) -.002(2)
Ag22 Ag1+ 0.039(3) 0.032(3) 0.053(3) -.002(2) -.018(2) -.003(2)
Ag23 Ag1+ 0.021(2) 0.023(2) 0.026(2) 0.000(2) 0.000(2) 0.005(2)
Ag24 Ag1+ 0.034(3) 0.021(2) 0.043(3) -.006(2) 0.004(2) 0.012(2)
Ag25 Ag1+ 0.043(3) 0.021(2) 0.028(2) 0.000(2) -.007(2) -.009(2)
Ag26 Ag1+ 0.019(2) 0.031(3) 0.063(4) -.011(2) 0.001(2) -.015(2)
Ag27 Ag1+ 0.020(2) 0.021(2) 0.028(2) -.004(2) 0.006(2) 0.011(2)
Ag28 Ag1+ 0.028(3) 0.034(3) 0.020(2) -.005(2) 0.012(2) -.001(2)
Ag29 Ag1+ 0.012(2) 0.044(3) 0.034(3) -.002(2) 0.005(2) 0.001(2)
Ag30 Ag1+ 0.025(2) 0.024(2) 0.042(3) 0.010(2) 0.014(2) 0.014(2)
Ag31 Ag1+ 0.030(3) 0.026(2) 0.024(2) 0.003(2) 0.013(2) 0.004(2)
Ag32 Ag1+ 0.027(3) 0.028(2) 0.022(2) 0.000(2) 0.006(2) 0.001(2)
Ge1 Ge4+ 0.011(3) 0.007(2) 0.011(2) 0.000(2) 0.005(2) -.002(2)
Ge2 Ge4+ 0.016(3) 0.004(2) 0.016(2) -.001(2) 0.005(2) 0.004(2)
Ge3 Ge4+ 0.012(3) 0.006(2) 0.019(3) 0.001(2) -.004(2) 0.000(2)
Ge4 Ge4+ 0.014(3) 0.003(2) 0.020(2) 0.000(2) 0.007(2) 0.004(2)
Ge5 Ge4+ 0.014(3) 0.011(3) 0.030(3) 0.004(2) -.007(2) 0.005(2)
Ge6 Ge4+ 0.011(3) 0.012(3) 0.024(3) 0.001(2) -.011(2) 0.006(2)
Ge7 Ge4+ 0.010(2) 0.009(2) 0.007(2) 0.000(2) 0.007(2) 0.000(2)
Ge8 Ge4+ 0.005(2) 0.015(2) 0.010(2) -.001(2) -.005(2) 0.004(2)
Ge9 Ge4+ 0.008(3) 0.012(3) 0.021(3) -.002(2) -.004(2) 0.002(2)
Ge10 Ge4+ 0.007(2) 0.017(2) 0.006(2) -.001(2) -.003(2) 0.003(2)
Ge11 Ge4+ 0.014(3) 0.009(2) 0.015(2) 0.005(2) -.005(2) 0.003(2)
Ge12 Ge4+ 0.014(3) 0.012(3) 0.028(3) 0.004(2) 0.001(2) -.005(2)
#End of data_405506-ICSD


