data_249533-ICSD
#?2014 by Fachinformationszentrum Karlsruhe, and the U.S. Secretary of 
#Commerce on behalf of the United States.  All rights reserved.
_database_code_ICSD                249533
_audit_creation_date               2008/08/01
_chemical_name_systematic
;
Dipotassium Tricopper Uranium(V) Pentasulfide
;
_chemical_formula_structural       'K2 Cu3 U S5'
_chemical_formula_sum              'Cu3 K2 S5 U1'
_publ_section_title
;
A U(V) chalcogenide: Synthesis, structure, and characterization of K2 
Cu3 U S5
;
loop_
_citation_id
_citation_journal_abbrev
_citation_year
_citation_journal_volume
_citation_journal_issue
_citation_page_first
_citation_page_last
_citation_journal_id_ASTM
primary 'Inorganic Chemistry' 2007 46 17 6992 6996 INOCAJ
_publ_author_name
;
Gray, D.L.;Backus, L.A.;Krug von Nidda, H.A.;Skanthakumar, S.;Loidl, 
A.;Soderholm, L.;Ibers, J.A.
;
_cell_length_a                     3.9374(6)
_cell_length_b                     13.813(2)
_cell_length_c                     17.500(3)
_cell_angle_alpha                  90.00
_cell_angle_beta                   90.00
_cell_angle_gamma                  90.00
_cell_volume                       951.78
_cell_formula_units_Z              4
_symmetry_space_group_name_H-M     'C m c m'
_symmetry_Int_Tables_number        63
_refine_ls_R_factor_all            .0229
loop_
_symmetry_equiv_pos_site_id
_symmetry_equiv_pos_as_xyz
  1	'-x, y, -z+.5'
  2	'-x, -y, z+.5'
  3	'-x, y, z'
  4	'-x, -y, -z'
  5	'x, -y, z+.5'
  6	'x, y, -z+.5'
  7	'x, -y, -z'
  8	'x, y, z'
  9	'-x+.5, y+.5, -z+.5'
 10	'-x+.5, -y+.5, z+.5'
 11	'-x+.5, y+.5, z'
 12	'-x+.5, -y+.5, -z'
 13	'x+.5, -y+.5, z+.5'
 14	'x+.5, y+.5, -z+.5'
 15	'x+.5, -y+.5, -z'
 16	'x+.5, y+.5, z'
loop_
_atom_type_symbol
_atom_type_oxidation_number
Cu1+	1
K1+	1
S2-	-2
U5+	5
loop_
_atom_site_label
_atom_site_type_symbol
_atom_site_symmetry_multiplicity
_atom_site_Wyckoff_symbol
_atom_site_fract_x
_atom_site_fract_y
_atom_site_fract_z
_atom_site_occupancy
_atom_site_attached_hydrogens
_atom_site_U_iso_or_equiv
U1 U5+ 4 b 0.0000 0.5000 0.0000 1 0 0.00512(14) 
Cu1 Cu1+ 8 f 0.0000 0.04355(5) 0.14403(4) 1 0 0.00822(18) 
Cu2 Cu1+ 4 c 0.0000 0.55498(7) 0.2500 1 0 0.0095(2) 
K1 K1+ 8 f 0.0000 0.23650(8) 0.63457(7) 1 0 0.0101(3) 
S1 S2- 4 c 0.0000 0.14870(14) 0.2500 1 0 0.0070(4) 
S2 S2- 8 f 0.0000 0.12670(10) 0.02903(8) 1 0 0.0065(3) 
S3 S2- 8 f 0.0000 0.44545(10) 0.14143(7) 1 0 0.0068(3) 

loop_
_atom_site_aniso_label
_atom_site_aniso_type_symbol
_atom_site_aniso_U_11
_atom_site_aniso_U_22
_atom_site_aniso_U_33
_atom_site_aniso_U_12
_atom_site_aniso_U_13
_atom_site_aniso_U_23
U1 U5+ 0.00476(19) 0.0072(2) 0.00345(19) 0.000 0.000 -0.00002(9)
Cu1 Cu1+ 0.0086(3) 0.0108(4) 0.0052(3) 0.000 0.000 -0.0009(3)
Cu2 Cu1+ 0.0078(4) 0.0128(5) 0.0078(5) 0.000 0.000 0.000
K1 K1+ 0.0103(6) 0.0095(6) 0.0105(6) 0.000 0.000 -0.0020(4)
S1 S2- 0.0083(8) 0.0088(9) 0.0040(8) 0.000 0.000 0.000
S2 S2- 0.0068(6) 0.0072(7) 0.0056(7) 0.000 0.000 -0.0003(5)
S3 S2- 0.0066(6) 0.0090(6) 0.0049(6) 0.000 0.000 0.0005(5)
#End of data_249533-ICSD


