data_36635-ICSD
#?2014 by Fachinformationszentrum Karlsruhe, and the U.S. Secretary of 
#Commerce on behalf of the United States.  All rights reserved.
_database_code_ICSD                36635
_audit_creation_date               1993/01/06
_audit_update_record               2013/08/01
_chemical_name_systematic          'Calcium Iodate Hydrate'
_chemical_formula_structural       'Ca (I O3)2 (H2 O)'
_chemical_formula_sum              'H2 Ca1 I2 O7'
_chemical_name_mineral             Brueggenite
_publ_section_title
;
Zur Kenntnis des Calciumbromats und -iodats, Kristallstruktur, 
roentgenographische, IR- und Raman-spektroskopische und thermo- 
analytische Untersuchungen
;
loop_
_citation_id
_citation_journal_abbrev
_citation_year
_citation_journal_volume
_citation_page_first
_citation_page_last
_citation_journal_id_ASTM
primary 'Zeitschrift fuer Anorganische und Allgemeine Chemie (1950) (DE)'
 1992 608 135 144 ZAACAB
_publ_author_name                  'Alici, E.;Schmidt, T.;Lutz, H.'
_cell_length_a                     8.5055(10)
_cell_length_b                     10.0221(20)
_cell_length_c                     7.5052(10)
_cell_angle_alpha                  90.
_cell_angle_beta                   95.31(1)
_cell_angle_gamma                  90.
_cell_volume                       637.02
_cell_formula_units_Z              4
_symmetry_space_group_name_H-M     'P 1 21/c 1'
_symmetry_Int_Tables_number        14
_refine_ls_R_factor_all            .0487
loop_
_symmetry_equiv_pos_site_id
_symmetry_equiv_pos_as_xyz
  1	'x, -y+.5, z+.5'
  2	'-x, -y, -z'
  3	'-x, y+.5, -z+.5'
  4	'x, y, z'
loop_
_atom_type_symbol
_atom_type_oxidation_number
Ca2+	2
H1+	1
I5+	5
O2-	-2
loop_
_atom_site_label
_atom_site_type_symbol
_atom_site_symmetry_multiplicity
_atom_site_Wyckoff_symbol
_atom_site_fract_x
_atom_site_fract_y
_atom_site_fract_z
_atom_site_occupancy
_atom_site_attached_hydrogens
_atom_site_U_iso_or_equiv
Ca1 Ca2+ 4 e 0.78679(13) 0.50723(11) 0.33351(15) 1. 0 0 
I1 I5+ 4 e 0.97317(4) 0.19012(3) 0.45710(4) 1. 0 0 
I2 I5+ 4 e 0.48508(4) 0.68598(4) 0.05272(5) 1. 0 0 
O1 O2- 4 e 0.9791(6) 0.3598(5) 0.5427(6) 1. 0 0 
O2 O2- 4 e 1.1708(5) 0.1705(5) 0.3982(7) 1. 0 0 
O3 O2- 4 e 0.9901(7) 0.1014(6) 0.6695(7) 1. 0 0 
O4 O2- 4 e 0.6477(8) 0.3132(6) 0.3842(10) 1. 0 0 
O5 O2- 4 e 0.6623(7) 0.4373(6) 0.0200(7) 1. 0 0 
O6 O2- 4 e 0.5405(6) 0.6231(6) 0.2753(6) 1. 0 0 
O7 O2- 4 e 0.6984(7) 0.5640(6) 0.6253(7) 1. 0 0 
H1 H1+ 4 e 0.627(20) 0.504(16) 0.679(21) 1. 0 0.04 
H2 H1+ 4 e 0.784(19) 0.616(17) 0.738(21) 1. 0 0.04 

loop_
_atom_site_aniso_label
_atom_site_aniso_type_symbol
_atom_site_aniso_U_11
_atom_site_aniso_U_22
_atom_site_aniso_U_33
_atom_site_aniso_U_12
_atom_site_aniso_U_13
_atom_site_aniso_U_23
Ca1 Ca2+ 0.0092(4) 0.0084(4) 0.0089(4) 0.0005(3) 0.0010(3) 0.0008(3)
I1 I5+ 0.0074(1) 0.0081(1) 0.0049(1) -.0005(1) -.0004(1) 0.0008(8)
I2 I5+ 0.0077(1) 0.0092(1) 0.0068(1) 0.0013(1) 0.0009(1) 0.0012(1)
O1 O2- 0.015(2) 0.011(2) 0.011(2) 0.002(1) 0.000(1) -.003(1)
O2 O2- 0.006(1) 0.014(2) 0.017(2) 0.000(1) 0.003(1) -.002(2)
O3 O2- 0.022(2) 0.023(2) 0.009(2) -.010(2) -.004(2) 0.009(2)
O4 O2- 0.020(2) 0.013(2) 0.038(3) -.009(2) 0.011(2) -.003(2)
O5 O2- 0.017(2) 0.026(3) 0.015(2) -.006(2) -.001(2) -.008(2)
O6 O2- 0.015(2) 0.021(2) 0.006(1) 0.002(2) 0.000(1) 0.003(1)
O7 O2- 0.021(2) 0.021(2) 0.013(2) -.008(2) 0.001(2) 0.002(2)
#End of data_36635-ICSD


