data_63024-ICSD
#?2014 by Fachinformationszentrum Karlsruhe, and the U.S. Secretary of 
#Commerce on behalf of the United States.  All rights reserved.
_database_code_ICSD                63024
_audit_creation_date               1989/06/19
_audit_update_record               1998/06/26
_chemical_name_systematic
;
Diammonium Hexaaquamagnesium Bis(sulfate)
;
_chemical_formula_structural       '(N H4)2 (Mg (H2 O)6) (S O4)2'
_chemical_formula_sum              'H20 Mg1 N2 O14 S2'
_chemical_name_mineral             Boussingaultite
_publ_section_title
;
The structures of Tuttons's salts. I. Diammonium hexaaqua 
magnesium(II) sulfate.
;
loop_
_citation_id
_citation_journal_abbrev
_citation_year
_citation_journal_volume
_citation_page_first
_citation_page_last
_citation_journal_id_ASTM
primary 'Acta Crystallographica, Section C: Crystal Structure Communications'
 1988 44 409 412 ACSCEE
_publ_author_name
;
Maslen, E.N.;Ridout, S.C.;Watson, K.J.;Moore, F.H.
;
_cell_length_a                     9.316(3)
_cell_length_b                     12.596(6)
_cell_length_c                     6.198(2)
_cell_angle_alpha                  90.
_cell_angle_beta                   107.09(3)
_cell_angle_gamma                  90.
_cell_volume                       695.19
_cell_formula_units_Z              2
_symmetry_space_group_name_H-M     'P 1 21/a 1'
_symmetry_Int_Tables_number        14
_refine_ls_R_factor_all            .065
loop_
_symmetry_equiv_pos_site_id
_symmetry_equiv_pos_as_xyz
  1	'x+.5, -y+.5, z'
  2	'-x, -y, -z'
  3	'-x+.5, y+.5, -z'
  4	'x, y, z'
loop_
_atom_type_symbol
_atom_type_oxidation_number
H1+	1
Mg2+	2
N3-	-3
O2-	-2
S6+	6
loop_
_atom_site_label
_atom_site_type_symbol
_atom_site_symmetry_multiplicity
_atom_site_Wyckoff_symbol
_atom_site_fract_x
_atom_site_fract_y
_atom_site_fract_z
_atom_site_occupancy
_atom_site_attached_hydrogens
_atom_site_B_iso_or_equiv
Mg1 Mg2+ 2 a 0 0 0 1. 0 1.46 
S1 S6+ 4 e 0.40464(2) 0.13948(1) 0.74256(3) 1. 0 1.6 
O1 O2- 4 e 0.40411(7) 0.22954(4) 0.58976(9) 1. 0 2.83 
O2 O2- 4 e 0.54670(6) 0.08230(5) 0.78785(12) 1. 0 3.42 
O3 O2- 4 e 0.28066(5) 0.06732(4) 0.62795(9) 1. 0 2.1 
O4 O2- 4 e 0.38211(6) 0.17874(4) 0.95470(9) 1. 0 2.54 
O5 O2- 4 e 0.16848(6) 0.10443(5) 0.16657(10) 1. 0 2.26 
O6 O2- 4 e -.16000(6) 0.10941(4) 0.03128(10) 1. 0 2.27 
O7 O2- 4 e -.00150(6) -.06898(4) 0.29781(9) 1. 0 2.13 
N1 N3- 4 e 0.13158(9) 0.35085(6) 0.36101(13) 1. 0 2.51 
H1 H1+ 4 e 0.069(1) 0.337(1) 0.229(2) 1. 0 4.26 
H2 H1+ 4 e 0.205(1) 0.306(1) 0.395(2) 1. 0 3.47 
H3 H1+ 4 e 0.085(1) 0.346(1) 0.452(2) 1. 0 4.15 
H4 H1+ 4 e 0.159(1) 0.413(1) 0.363(2) 1. 0 3.16 
H5 H1+ 4 e 0.205(1) 0.093(1) 0.288(2) 1. 0 2.73 
H6 H1+ 4 e 0.224(1) 0.121(1) 0.117(2) 1. 0 2.86 
H7 H1+ 4 e -.239(1) 0.100(1) -.036(2) 1. 0 3.44 
H8 H1+ 4 e -.146(1) 0.171(1) 0.010(2) 1. 0 3.28 
H9 H1+ 4 e -.071(1) -.065(1) 0.329(2) 1. 0 3.67 
H10 H1+ 4 e 0.021(1) -.131(1) 0.325(2) 1. 0 3.08 

#End of data_63024-ICSD


