data_85583-ICSD
#?2014 by Fachinformationszentrum Karlsruhe, and the U.S. Secretary of 
#Commerce on behalf of the United States.  All rights reserved.
_database_code_ICSD                85583
_audit_creation_date               1999/11/30
_audit_update_record               2003/04/01
_chemical_name_systematic
;
Dipotassium Tetragold Cadmium Sulfide
;
_chemical_formula_structural       'K2 Au4 Cd S4'
_chemical_formula_sum              'Au4 Cd1 K2 S4'
_publ_section_title
;
First examples of gold thiocadmates: A2 Au2 Cd2 S4 (A = rb, Cs) andK2 
Au4 Cd S4 : bright photoluminescence from new alkali metal/gold 
thiocadmates
;
loop_
_citation_id
_citation_journal_abbrev
_citation_year
_citation_journal_volume
_citation_journal_issue
_citation_page_first
_citation_page_last
_citation_journal_id_ASTM
primary 'Chemistry - A European Journal' 1998 4 12 2435 2441 CEUJED
_publ_author_name                  'Axtell, E.A.;Kanatzidis, M.G.'
_cell_length_a                     10.568(3)
_cell_length_b                     6.973(2)
_cell_length_c                     14.690(5)
_cell_angle_alpha                  90.
_cell_angle_beta                   90.
_cell_angle_gamma                  90.
_cell_volume                       1082.52
_cell_formula_units_Z              4
_symmetry_space_group_name_H-M     'I b a m'
_symmetry_Int_Tables_number        72
_refine_ls_R_factor_all            .052
loop_
_symmetry_equiv_pos_site_id
_symmetry_equiv_pos_as_xyz
  1	'-x, y, z+.5'
  2	'x, -y, z+.5'
  3	'x, y, -z'
  4	'-x, -y, -z'
  5	'x, -y, -z+.5'
  6	'-x, y, -z+.5'
  7	'-x, -y, z'
  8	'x, y, z'
  9	'-x+.5, y+.5, z'
 10	'x+.5, -y+.5, z'
 11	'x+.5, y+.5, -z+.5'
 12	'-x+.5, -y+.5, -z+.5'
 13	'x+.5, -y+.5, -z'
 14	'-x+.5, y+.5, -z'
 15	'-x+.5, -y+.5, z+.5'
 16	'x+.5, y+.5, z+.5'
loop_
_atom_type_symbol
_atom_type_oxidation_number
Au1+	1
Cd2+	2
K1+	1
S2-	-2
loop_
_atom_site_label
_atom_site_type_symbol
_atom_site_symmetry_multiplicity
_atom_site_Wyckoff_symbol
_atom_site_fract_x
_atom_site_fract_y
_atom_site_fract_z
_atom_site_occupancy
_atom_site_attached_hydrogens
_atom_site_B_iso_or_equiv
Au1 Au1+ 8 i 0.5 0 0.1385(1) 1. 0 1.76(8) 
Au2 Au1+ 8 e 0.25 0.25 0.25 1. 0 1.90(8) 
Cd1 Cd2+ 4 a 0.5 0.5 0.25 1. 0 1.5(2) 
K1 K1+ 8 j 0.850(1) 0.840(2) 0 1. 0 2.0(5) 
S1 S2- 16 k 0.390(1) 0.285(1) 0.1293(7) 1. 0 1.8(4) 

#End of data_85583-ICSD


