data_60103-ICSD
#?2014 by Fachinformationszentrum Karlsruhe, and the U.S. Secretary of 
#Commerce on behalf of the United States.  All rights reserved.
_database_code_ICSD                60103
_audit_creation_date               1986/04/14
_chemical_name_systematic          'Potassium Germanium Oxide (2/1/3)'
_chemical_formula_structural       'K2 Ge O3'
_chemical_formula_sum              'Ge1 K2 O3'
_publ_section_title                'Zur Kenntnis von K2 Ge O3'
loop_
_citation_id
_citation_journal_abbrev
_citation_year
_citation_journal_volume
_citation_page_first
_citation_page_last
_citation_journal_id_ASTM
primary 'Zeitschrift fuer Anorganische und Allgemeine Chemie (1950) (DE)'
 1985 525 86 100 ZAACAB
_publ_author_name                  'Werthmann, R.;Hoppe, R.'
_cell_length_a                     23.025(3)
_cell_length_b                     32.863(5)
_cell_length_c                     5.452(1)
_cell_angle_alpha                  90.
_cell_angle_beta                   90.
_cell_angle_gamma                  90.
_cell_volume                       4125.37
_cell_formula_units_Z              40
_symmetry_space_group_name_H-M     'P b c a'
_symmetry_Int_Tables_number        61
_refine_ls_R_factor_all            .1383
loop_
_symmetry_equiv_pos_site_id
_symmetry_equiv_pos_as_xyz
  1	'x+.5, y, -z+.5'
  2	'x, -y+.5, z+.5'
  3	'-x+.5, y+.5, z'
  4	'-x, -y, -z'
  5	'-x+.5, -y, z+.5'
  6	'-x, y+.5, -z+.5'
  7	'x+.5, -y+.5, -z'
  8	'x, y, z'
loop_
_atom_type_symbol
_atom_type_oxidation_number
Ge4+	4
K1+	1
O2-	-2
loop_
_atom_site_label
_atom_site_type_symbol
_atom_site_symmetry_multiplicity
_atom_site_Wyckoff_symbol
_atom_site_fract_x
_atom_site_fract_y
_atom_site_fract_z
_atom_site_occupancy
_atom_site_attached_hydrogens
_atom_site_U_iso_or_equiv
K1 K1+ 8 c 0.0381(3) 0.4745(2) 0.2536(14) 1. 0 0.0128(16) 
K2 K1+ 8 c 0.0267(3) 0.0939(2) 0.2509(15) 1. 0 0.0172(17) 
K3 K1+ 8 c 0.0399(4) 0.7008(3) 0.2664(19) 1. 0 0.0344(26) 
K4 K1+ 8 c 0.0585(4) 0.2869(2) 0.2316(16) 1. 0 0.0329(20) 
K5 K1+ 8 c 0.0618(4) 0.6319(2) 0.7474(16) 1. 0 0.0248(22) 
K6 K1+ 8 c 0.2006(3) 0.4993(2) 0.2393(12) 1. 0 0.0018(12) 
K7 K1+ 8 c 0.1873(3) 0.0710(2) 0.2426(13) 1. 0 0.0062(14) 
K8 K1+ 8 c 0.1959(3) 0.6698(2) 0.2561(13) 1. 0 0.0112(16) 
K9 K1+ 8 c 0.2242(3) 0.2834(2) 0.2596(14) 1. 0 0.0230(19) 
K10 K1+ 8 c 0.2150(3) 0.9025(2) 0.2457(13) 1. 0 0.0063(15) 
Ge1 Ge4+ 8 c 0.3784(2) 0.8816(1) 0.2222(9) 1. 0 0.0129(10) 
Ge2 Ge4+ 8 c 0.3865(2) 0.4783(1) 0.2267(8) 1. 0 0.0124(10) 
Ge3 Ge4+ 8 c 0.3795(1) 0.0820(1) 0.2278(7) 1. 0 0.0029(8) 
Ge4 Ge4+ 8 c 0.3645(2) 0.6792(1) 0.2222(7) 1. 0 0.0020(7) 
Ge5 Ge4+ 8 c 0.3675(2) 0.2796(1) 0.2728(6) 1. 0 0.0050(8) 
O1 O2- 8 c 0.9218(13) 0.1252(8) 0.2435(49) 1. 0 0.0317(72) 
O2 O2- 8 c 0.4402(11) 0.2852(7) 0.2663(38) 1. 0 0.0130(52) 
O3 O2- 8 c 0.3035(10) 0.4162(6) 0.7519(43) 1. 0 0.0107(51) 
O4 O2- 8 c 0.3315(8) 0.3247(5) 0.2500(33) 1. 0 0.0006(40) 
O5 O2- 8 c 0.4346(7) 0.5182(5) 0.2609(35) 1. 0 0.0010(36) 
O6 O2- 8 c 0.8332(8) 0.9238(5) 0.2463(36) 1. 0 0.0031(40) 
O7 O2- 8 c 0.1467(8) 0.1606(5) 0.9170(33) 1. 0 0.0001(40) 
O8 O2- 8 c 0.3104(9) 0.4880(6) 0.2313(42) 1. 0 0.0110(47) 
O9 O2- 8 c 0.3427(8) 0.2571(6) 0.5598(42) 1. 0 0.0060(48) 
O10 O2- 8 c 0.1976(11) 0.2045(6) 0.2755(51) 1. 0 0.0342(64) 
O11 O2- 8 c 0.0482(9) 0.1084(6) 0.7622(40) 1. 0 0.0123(49) 
O12 O2- 8 c 0.0900(11) 0.9551(6) 0.9398(46) 1. 0 0.0198(58) 
O13 O2- 8 c 0.6322(10) 0.1344(6) 0.1025(42) 1. 0 0.0200(52) 
O14 O2- 8 c 0.0961(10) 0.9388(7) 0.4409(43) 1. 0 0.0170(54) 
O15 O2- 8 c 0.0701(10) 0.2043(6) 0.2399(48) 1. 0 0.0282(55) 

#End of data_60103-ICSD


