data_14017-ICSD
#?2014 by Fachinformationszentrum Karlsruhe, and the U.S. Secretary of 
#Commerce on behalf of the United States.  All rights reserved.
_database_code_ICSD                14017
_audit_creation_date               1980/01/01
_audit_update_record               2013/08/01
_chemical_name_systematic
;
Sodium Catena-diselenoarsenate(III)
;
_chemical_formula_structural       'Na As Se2'
_chemical_formula_sum              'As1 Na1 Se2'
_publ_section_title
;
Ueber Seleno- und Telluroarsenite, -antimonite und -bismutite
;
loop_
_citation_id
_citation_journal_abbrev
_citation_year
_citation_journal_volume
_citation_page_first
_citation_page_last
_citation_journal_id_ASTM
primary 'Zeitschrift fuer Anorganische und Allgemeine Chemie (1950) (DE)'
 1979 456 87 94 ZAACAB
_publ_author_name                  'Eisenmann, B.;Schaefer, H.'
_cell_length_a                     5.83(1)
_cell_length_b                     24.27(5)
_cell_length_c                     11.82(2)
_cell_angle_alpha                  90.
_cell_angle_beta                   90.
_cell_angle_gamma                  90.
_cell_volume                       1672.46
_cell_formula_units_Z              16
_symmetry_space_group_name_H-M     'P b c a'
_symmetry_Int_Tables_number        61
_refine_ls_R_factor_all            .093
loop_
_symmetry_equiv_pos_site_id
_symmetry_equiv_pos_as_xyz
  1	'x+.5, y, -z+.5'
  2	'x, -y+.5, z+.5'
  3	'-x+.5, y+.5, z'
  4	'-x, -y, -z'
  5	'-x+.5, -y, z+.5'
  6	'-x, y+.5, -z+.5'
  7	'x+.5, -y+.5, -z'
  8	'x, y, z'
loop_
_atom_type_symbol
_atom_type_oxidation_number
As3+	3
Na1+	1
Se2-	-2
loop_
_atom_site_label
_atom_site_type_symbol
_atom_site_symmetry_multiplicity
_atom_site_Wyckoff_symbol
_atom_site_fract_x
_atom_site_fract_y
_atom_site_fract_z
_atom_site_occupancy
_atom_site_attached_hydrogens
_atom_site_U_iso_or_equiv
As1 As3+ 8 c 0.2252(7) 0.6385(2) 0.1441(4) 1. 0 0 
As2 As3+ 8 c 0.2122(7) 0.3878(2) 0.1435(4) 1. 0 0 
Se1 Se2- 8 c 0.3574(7) 0.1219(2) 0.3447(4) 1. 0 0 
Se2 Se2- 8 c 0.2932(7) 0.3716(2) 0.3447(4) 1. 0 0 
Se3 Se2- 8 c 0.2405(8) 0.4818(2) 0.1239(4) 1. 0 0 
Se4 Se2- 8 c 0.2969(8) 0.2331(2) 0.1266(4) 1. 0 0 
Na1 Na1+ 8 c 0.2599(36) -.0007(8) 0.3734(18) 1. 0 0.0415(46) 
Na2 Na1+ 8 c 0.3010(31) 0.2481(8) 0.3753(17) 1. 0 0.0400(45) 

loop_
_atom_site_aniso_label
_atom_site_aniso_type_symbol
_atom_site_aniso_U_11
_atom_site_aniso_U_22
_atom_site_aniso_U_33
_atom_site_aniso_U_12
_atom_site_aniso_U_13
_atom_site_aniso_U_23
As1 As3+ 0.0275(23) 0.0275(23) 0.0275(24) -.0023(17) -.0005(19) -.0028(20)
As2 As3+ 0.0294(23) 0.0282(23) 0.0237(23) 0.0045(17) 0.0015(19) -.0016(20)
Se1 Se2- 0.0305(22) 0.0227(20) 0.0332(25) -.0014(17) 0.0013(19) 0.0051(19)
Se2 Se2- 0.0345(24) 0.0232(21) 0.0282(24) 0.0017(17) -.0006(19) 0.0052(19)
Se3 Se2- 0.0299(23) 0.0294(23) 0.0298(27) -.0036(17) -.0010(18) 0.0042(21)
Se4 Se2- 0.0318(24) 0.0283(23) 0.0260(26) -.0022(17) -.0013(19) 0.0069(19)
#End of data_14017-ICSD


