data_100201-ICSD
#?2014 by Fachinformationszentrum Karlsruhe, and the U.S. Secretary of 
#Commerce on behalf of the United States.  All rights reserved.
_database_code_ICSD                100201
_audit_creation_date               1980/01/01
_audit_update_record               2012/02/01
_chemical_name_systematic
;
Tetrazinc Disilicate Dihydroxide Hydrate
;
_chemical_formula_structural       'Zn4 (Si2 O7) (O H)2 (H2 O)'
_chemical_formula_sum              'H4 O10 Si2 Zn4'
_chemical_name_mineral             Hemimorphite
_publ_section_title
;
A neutron-diffraction study of hemimorphite
;
loop_
_citation_id
_citation_journal_abbrev
_citation_year
_citation_journal_volume
_citation_page_first
_citation_page_last
_citation_journal_id_ASTM
primary
;
Zeitschrift fuer Kristallographie, Kristallgeometrie, Kristallphysik, 
Kristallchemie (145,1977-148,1979)
;
 1977 146 241 259 ZKKKAJ
_publ_author_name
;
Hill, R.J.;Gibbs, G.V.;Craig, J.R.;Ross, F.K.;Williams, J.M.
;
_cell_length_a                     8.367(5)
_cell_length_b                     10.730(6)
_cell_length_c                     5.115(3)
_cell_angle_alpha                  90.
_cell_angle_beta                   90.
_cell_angle_gamma                  90.
_cell_volume                       459.21
_cell_formula_units_Z              2
_symmetry_space_group_name_H-M     'I m m 2'
_symmetry_Int_Tables_number        44
_refine_ls_R_factor_all            .028
loop_
_symmetry_equiv_pos_site_id
_symmetry_equiv_pos_as_xyz
  1	'x, -y, z'
  2	'-x, y, z'
  3	'-x, -y, z'
  4	'x, y, z'
  5	'x+.5, -y+.5, z+.5'
  6	'-x+.5, y+.5, z+.5'
  7	'-x+.5, -y+.5, z+.5'
  8	'x+.5, y+.5, z+.5'
loop_
_atom_type_symbol
_atom_type_oxidation_number
H1+	1
O2-	-2
Si4+	4
Zn2+	2
loop_
_atom_site_label
_atom_site_type_symbol
_atom_site_symmetry_multiplicity
_atom_site_Wyckoff_symbol
_atom_site_fract_x
_atom_site_fract_y
_atom_site_fract_z
_atom_site_occupancy
_atom_site_attached_hydrogens
Zn1 Zn2+ 8 e 0.2047(1) 0.1613(1) 0 1. 0 
Si1 Si4+ 4 d 0 0.1465(2) 0.5076(5) 1. 0 
O1 O2- 8 e 0.1602(2) 0.2055(1) 0.6362(4) 1. 0 
O2 O2- 4 d 0 0.1669(2) 0.1938(4) 1. 0 
O3 O2- 4 c 0.3050(2) 0 0.0410(6) 1. 0 
O4 O2- 2 a 0 0 0.5912(6) 1. 0 
O5 O2- 2 b 0.5 0 0.5195(13) 1. 0 
H1 H1+ 4 c 0.3740(8) 0 0.190(2) 1. 0 
H2 H1+ 4 c 0.4256(14) 0 0.643(4) 1. 0 

#End of data_100201-ICSD


