data_421886-ICSD
#?2014 by Fachinformationszentrum Karlsruhe, and the U.S. Secretary of 
#Commerce on behalf of the United States.  All rights reserved.
_database_code_ICSD                421886
_audit_creation_date               2011/08/01
_chemical_name_systematic          'Dipotassium Perfluorododecaborate'
_chemical_formula_structural       'K2 (B12 F12)'
_chemical_formula_sum              'B12 F12 K2'
_publ_section_title
;
K2 B12 F12: a rare A2 X structure for an ionic compound at ambient 
conditions
;
loop_
_citation_id
_citation_journal_abbrev
_citation_year
_citation_journal_volume
_citation_page_first
_citation_page_last
_citation_journal_id_ASTM
primary 'Journal of Fluorine Chemistry' 2010 131 1252 1256 JFLCAR
_publ_author_name                  'Peryshkov, D.V.;Strauss, S.H.'
_cell_length_a                     8.2072(8)
_cell_length_b                     14.2818(17)
_cell_length_c                     11.3441(9)
_cell_angle_alpha                  90.00
_cell_angle_beta                   92.832(5)
_cell_angle_gamma                  90.00
_cell_volume                       1328.06
_cell_formula_units_Z              4
_symmetry_space_group_name_H-M     'C 1 2/c 1'
_symmetry_Int_Tables_number        15
_refine_ls_R_factor_all            .0493
loop_
_symmetry_equiv_pos_site_id
_symmetry_equiv_pos_as_xyz
  1	'x, -y, z+.5'
  2	'-x, -y, -z'
  3	'-x, y, -z+.5'
  4	'x, y, z'
  5	'x+.5, -y+.5, z+.5'
  6	'-x+.5, -y+.5, -z'
  7	'-x+.5, y+.5, -z+.5'
  8	'x+.5, y+.5, z'
loop_
_atom_type_symbol
_atom_type_oxidation_number
B.833+	.833
F1-	-1
K1+	1
loop_
_atom_site_label
_atom_site_type_symbol
_atom_site_symmetry_multiplicity
_atom_site_Wyckoff_symbol
_atom_site_fract_x
_atom_site_fract_y
_atom_site_fract_z
_atom_site_occupancy
_atom_site_attached_hydrogens
_atom_site_U_iso_or_equiv
B1 B.833+ 8 f 0.4677(4) 0.1700(2) 0.0992(2) 1 0 0.0154(6) 
B2 B.833+ 8 f 0.4286(4) 0.0701(2) 0.1878(2) 1 0 0.0155(6) 
B3 B.833+ 8 f 0.3029(4) 0.1700(2) 0.1970(2) 1 0 0.0150(6) 
B4 B.833+ 8 f 0.4290(4) 0.2711(2) 0.1867(3) 1 0 0.0167(6) 
B5 B.833+ 8 f 0.6334(4) 0.2325(3) 0.1719(2) 1 0 0.0186(7) 
B6 B.833+ 8 f 0.6338(4) 0.1079(2) 0.1711(2) 1 0 0.0184(7) 
F1 F1- 8 f 0.4391(2) 0.16868(12) -0.02152(12) 1 0 0.0230(4) 
F2 F1- 8 f 0.3648(2) -0.01272(12) 0.14004(13) 1 0 0.0275(4) 
F3 F1- 8 f 0.1405(2) 0.16595(12) 0.15674(12) 1 0 0.0221(4) 
F4 F1- 8 f 0.3771(2) 0.35622(13) 0.14089(14) 1 0 0.0278(5) 
F5 F1- 8 f 0.7406(2) 0.28854(15) 0.11312(13) 1 0 0.0346(5) 
F6 F1- 8 f 0.7470(2) 0.05655(14) 0.11189(13) 1 0 0.0310(5) 
K1 K1+ 4 e 0.0000 0.33347(6) 0.2500 1 0 0.0155(2) 
K2 K1+ 4 a -0.5000 0.5000 0.0000 1 0 0.0423(3) 

loop_
_atom_site_aniso_label
_atom_site_aniso_type_symbol
_atom_site_aniso_U_11
_atom_site_aniso_U_22
_atom_site_aniso_U_33
_atom_site_aniso_U_12
_atom_site_aniso_U_13
_atom_site_aniso_U_23
B1 B.833+ 0.0171(15) 0.0181(16) 0.0110(12) -0.0013(13) 0.0016(11) 
0.0010(12)
B2 B.833+ 0.0216(17) 0.0110(15) 0.0134(13) -0.0027(13) -0.0044(11) 
0.0015(11)
B3 B.833+ 0.0150(15) 0.0193(16) 0.0109(13) 0.0019(13) 0.0003(10) 0.0010(11)
B4 B.833+ 0.0196(16) 0.0144(16) 0.0159(14) -0.0007(13) -0.0009(11) 
0.0022(11)
B5 B.833+ 0.0165(16) 0.0270(19) 0.0123(13) -0.0044(14) 0.0008(11) 
0.0011(12)
B6 B.833+ 0.0169(17) 0.0254(19) 0.0129(14) 0.0039(14) 0.0008(12) 
-0.0052(12)
F1 F1- 0.0223(9) 0.0361(11) 0.0104(7) 0.0003(8) 0.0000(6) 0.0004(6)
F2 F1- 0.0412(11) 0.0149(10) 0.0250(8) -0.0054(8) -0.0121(7) -0.0010(6)
F3 F1- 0.0126(8) 0.0341(11) 0.0195(8) -0.0011(8) -0.0012(6) 0.0032(7)
F4 F1- 0.0377(12) 0.0148(9) 0.0295(9) 0.0037(8) -0.0121(8) 0.0035(7)
F5 F1- 0.0286(11) 0.0530(14) 0.0220(9) -0.0212(10) -0.0004(7) 0.0090(8)
F6 F1- 0.0254(11) 0.0473(13) 0.0201(8) 0.0174(9) 0.0005(7) -0.0122(7)
K1 K1+ 0.0174(4) 0.0162(4) 0.0126(4) 0.000 -0.0009(3) 0.000
K2 K1+ 0.0463(7) 0.0308(6) 0.0532(7) 0.0029(6) 0.0378(5) 0.0002(5)
#End of data_421886-ICSD


