data_80105-ICSD
#?2014 by Fachinformationszentrum Karlsruhe, and the U.S. Secretary of 
#Commerce on behalf of the United States.  All rights reserved.
_database_code_ICSD                80105
_audit_creation_date               1996/10/14
_audit_update_record               2013/08/01
_chemical_name_systematic          'Pentalead Trialuminium Fluoride'
_chemical_formula_structural       'Pb5 Al3 F19'
_chemical_formula_sum              'Al3 F19 Pb5'
_publ_section_title                'Paraelastic Pb5 Al3 F19 at 370 K'
loop_
_citation_id
_citation_journal_abbrev
_citation_year
_citation_journal_volume
_citation_page_first
_citation_page_last
_citation_journal_id_ASTM
primary 'Acta Crystallographica, Section C: Crystal Structure Communications'
 1995 51 1731 1732 ACSCEE
2 'Golden Book of Phase Transitions, Wroclaw' 2002 1 1 123 GBOPT5
_publ_author_name
;
Sarraute, S.;Ravez, J.;Bravic, G.;Chasseau, D.;Abrahams, S.C.
;
_cell_length_a                     14.285(7)
_cell_length_b                     14.285(7)
_cell_length_c                     7.227(3)
_cell_angle_alpha                  90.
_cell_angle_beta                   90.
_cell_angle_gamma                  90.
_cell_volume                       1474.75
_cell_formula_units_Z              4
_symmetry_space_group_name_H-M     'I 4/m'
_symmetry_Int_Tables_number        87
_refine_ls_R_factor_all            .053
loop_
_symmetry_equiv_pos_site_id
_symmetry_equiv_pos_as_xyz
  1	'-y, x, -z'
  2	'y, -x, -z'
  3	'x, y, -z'
  4	'-x, -y, -z'
  5	'y, -x, z'
  6	'-y, x, z'
  7	'-x, -y, z'
  8	'x, y, z'
  9	'-y+.5, x+.5, -z+.5'
 10	'y+.5, -x+.5, -z+.5'
 11	'x+.5, y+.5, -z+.5'
 12	'-x+.5, -y+.5, -z+.5'
 13	'y+.5, -x+.5, z+.5'
 14	'-y+.5, x+.5, z+.5'
 15	'-x+.5, -y+.5, z+.5'
 16	'x+.5, y+.5, z+.5'
loop_
_atom_type_symbol
_atom_type_oxidation_number
Al3+	3
F1-	-1
Pb2+	2
loop_
_atom_site_label
_atom_site_type_symbol
_atom_site_symmetry_multiplicity
_atom_site_Wyckoff_symbol
_atom_site_fract_x
_atom_site_fract_y
_atom_site_fract_z
_atom_site_occupancy
_atom_site_attached_hydrogens
_atom_site_U_iso_or_equiv
Pb1 Pb2+ 8 h 0.08474(7) 0.76030(6) 0 1. 0 0 
Pb2 Pb2+ 8 h 0.93884(6) 0.78232(5) 0.5 1. 0 0 
Pb3 Pb2+ 4 d 0 0.5 0.25 1. 0 0 
Al1 Al3+ 8 h 0.1581(4) 0.3255(4) 0 1. 0 0.012(4) 
Al2 Al3+ 4 e 0 0 0.2460(1) 1. 0 0.012(4) 
F1 F1- 2 a 0 0 0 1. 0 0.038(5) 
F2 F1- 2 b 0 0 0.5 1. 0 0.038(5) 
F3 F1- 16 i 0.3854(9) 0.4500(8) 0.2460(2) 1. 0 0.038(5) 
F4 F1- 16 i 0.2001(9) 0.4076(9) 0.1730(2) 1. 0 0.038(5) 
F5 F1- 16 i 0.3921(9) 0.2494(9) 0.6700(2) 1. 0 0.038(5) 
F6 F1- 8 h 0.263(1) 0.261(1) 0 1. 0 0.038(5) 
F7 F1- 8 h 0.453(1) 0.112(1) 0.5 1. 0 0.038(5) 
F8 F1- 8 h 0.417(1) 0.125(1) 0 1. 0 0.038(5) 

loop_
_atom_site_aniso_label
_atom_site_aniso_type_symbol
_atom_site_aniso_U_11
_atom_site_aniso_U_22
_atom_site_aniso_U_33
_atom_site_aniso_U_12
_atom_site_aniso_U_13
_atom_site_aniso_U_23
Pb1 Pb2+ 0.030(2) 0.020(1) 0.011(5) 0 0 0.006(2)
Pb2 Pb2+ 0.021(3) 0.013(2) 0.010(6) 0 0 -0.005(5)
Pb3 Pb2+ 0.122(2) 0.122(2) 0.025(4) 0 0 0
#End of data_80105-ICSD


