data_44886-ICSD
#?2014 by Fachinformationszentrum Karlsruhe, and the U.S. Secretary of 
#Commerce on behalf of the United States.  All rights reserved.
_database_code_ICSD                44886
_audit_creation_date               2000/12/16
_audit_update_record               2011/08/01
_chemical_name_systematic          'Zinc Tetrathiodigallate'
_chemical_formula_structural       'Zn (Ga2 S4)'
_chemical_formula_sum              'Ga2 S4 Zn1'
_publ_section_title
;
Untersuchung ?ber ternaere Chalkogenide. VI. Ueber ternaere 
Chalkogenide des Aluminiums, Galliums und Indiums mit Zink, Cadmium 
und Quecksilber
;
loop_
_citation_id
_citation_journal_abbrev
_citation_year
_citation_journal_volume
_citation_page_first
_citation_page_last
_citation_journal_id_ASTM
primary 'Zeitschrift fuer Anorganische und Allgemeine Chemie (1950) (DE)'
 1955 279 241 270 ZAACAB
_publ_author_name
;
Hahn, H.;Frank, G.;Klingler, W.;Stoerger, A.D.;Stoerger, G.
;
_cell_length_a                     5.274
_cell_length_b                     5.274
_cell_length_c                     10.44
_cell_angle_alpha                  90.
_cell_angle_beta                   90.
_cell_angle_gamma                  90.
_cell_volume                       290.39
_cell_formula_units_Z              2
_symmetry_space_group_name_H-M     'I -4'
_symmetry_Int_Tables_number        82
loop_
_symmetry_equiv_pos_site_id
_symmetry_equiv_pos_as_xyz
  1	'-y, x, -z'
  2	'y, -x, -z'
  3	'-x, -y, z'
  4	'x, y, z'
  5	'-y+.5, x+.5, -z+.5'
  6	'y+.5, -x+.5, -z+.5'
  7	'-x+.5, -y+.5, z+.5'
  8	'x+.5, y+.5, z+.5'
loop_
_atom_type_symbol
_atom_type_oxidation_number
Ga3+	3
S2-	-2
Zn2+	2
loop_
_atom_site_label
_atom_site_type_symbol
_atom_site_symmetry_multiplicity
_atom_site_Wyckoff_symbol
_atom_site_fract_x
_atom_site_fract_y
_atom_site_fract_z
_atom_site_occupancy
_atom_site_attached_hydrogens
Zn1 Zn2+ 2 a 0 0 0 1. 0 
Ga1 Ga3+ 2 b 0 0 0.5 1. 0 
Ga2 Ga3+ 2 c 0 0.5 0.25 1. 0 
S1 S2- 8 g 0.25 0.25 0.125 1. 0 

#End of data_44886-ICSD


