data_67359-ICSD
#?2014 by Fachinformationszentrum Karlsruhe, and the U.S. Secretary of 
#Commerce on behalf of the United States.  All rights reserved.
_database_code_ICSD                67359
_audit_creation_date               1990/12/27
_chemical_name_systematic          'Lithium Sodium Selenide'
_chemical_formula_structural       'Li Na Se'
_chemical_formula_sum              'Li1 Na1 Se1'
_publ_section_title
;
LiNaSe, the first inter alkali metal selenide synthesis and structure
;
loop_
_citation_id
_citation_journal_abbrev
_citation_year
_citation_journal_volume
_citation_page_first
_citation_page_last
_citation_journal_id_ASTM
primary 'Journal of the Less-Common Metals' 1989 156 43 47 JCOMAH
_publ_author_name
;
Bronger, W.;Bomba, C.;Sabrowsky, H.
;
_cell_length_a                     7.174(4)
_cell_length_b                     4.249(2)
_cell_length_c                     7.716(2)
_cell_angle_alpha                  90.
_cell_angle_beta                   90.
_cell_angle_gamma                  90.
_cell_volume                       235.2
_cell_formula_units_Z              4
_symmetry_space_group_name_H-M     'P n m a'
_symmetry_Int_Tables_number        62
_refine_ls_R_factor_all            .055
loop_
_symmetry_equiv_pos_site_id
_symmetry_equiv_pos_as_xyz
  1	'x+.5, y, -z+.5'
  2	'x, -y+.5, z'
  3	'-x+.5, y+.5, z+.5'
  4	'-x, -y, -z'
  5	'-x+.5, -y, z+.5'
  6	'-x, y+.5, -z'
  7	'x+.5, -y+.5, -z+.5'
  8	'x, y, z'
loop_
_atom_type_symbol
_atom_type_oxidation_number
Li1+	1
Na1+	1
Se2-	-2
loop_
_atom_site_label
_atom_site_type_symbol
_atom_site_symmetry_multiplicity
_atom_site_Wyckoff_symbol
_atom_site_fract_x
_atom_site_fract_y
_atom_site_fract_z
_atom_site_occupancy
_atom_site_attached_hydrogens
_atom_site_B_iso_or_equiv
Li1 Li1+ 4 c 0.652(5) 0.25 0.072(5) 1. 0 1.3(6) 
Na1 Na1+ 4 c 0.514(1) 0.25 0.684(1) 1. 0 0 
Se1 Se2- 4 c 0.2774(3) 0.25 0.1064(3) 1. 0 0 

loop_
_atom_site_aniso_label
_atom_site_aniso_type_symbol
_atom_site_aniso_U_11
_atom_site_aniso_U_22
_atom_site_aniso_U_33
_atom_site_aniso_U_12
_atom_site_aniso_U_13
_atom_site_aniso_U_23
Na1 Na1+ 0.021(4) 0.018(4) 0.017(4) 0 0.001(4) 0
Se1 Se2- 0.0119(6) 0.0058(5) 0.0107(6) 0 0.001(1) 0
#End of data_67359-ICSD


