data_50217-ICSD
#?2014 by Fachinformationszentrum Karlsruhe, and the U.S. Secretary of 
#Commerce on behalf of the United States.  All rights reserved.
_database_code_ICSD                50217
_audit_creation_date               1999/01/19
_audit_update_record               2010/08/01
_chemical_name_systematic          'Hexabarium Heptamagnesium Fluoride'
_chemical_formula_structural       'Ba6 Mg7 F26'
_chemical_formula_sum              'Ba6 F26 Mg7'
_publ_section_title
;
Synthesis and structure of Ba6 Mg7 F26
;
loop_
_citation_id
_citation_journal_abbrev
_citation_year
_citation_journal_volume
_citation_page_first
_citation_page_last
_citation_journal_id_ASTM
primary 'Zeitschrift fuer Anorganische und Allgemeine Chemie (1950) (DE)'
 1997 623 573 578 ZAACAB
_publ_author_name                  'Kubel, F.;Hagemann, H.;Bill, H.'
_cell_length_a                     5.8535(4)
_cell_length_b                     12.1495(7)
_cell_length_c                     15.1109(19)
_cell_angle_alpha                  90.
_cell_angle_beta                   90.
_cell_angle_gamma                  90.
_cell_volume                       1074.64
_cell_formula_units_Z              2
_symmetry_space_group_name_H-M     'I m m m'
_symmetry_Int_Tables_number        71
_refine_ls_R_factor_all            .015
loop_
_symmetry_equiv_pos_site_id
_symmetry_equiv_pos_as_xyz
  1	'x, y, -z'
  2	'x, -y, z'
  3	'-x, y, z'
  4	'-x, -y, -z'
  5	'-x, -y, z'
  6	'-x, y, -z'
  7	'x, -y, -z'
  8	'x, y, z'
  9	'x+.5, y+.5, -z+.5'
 10	'x+.5, -y+.5, z+.5'
 11	'-x+.5, y+.5, z+.5'
 12	'-x+.5, -y+.5, -z+.5'
 13	'-x+.5, -y+.5, z+.5'
 14	'-x+.5, y+.5, -z+.5'
 15	'x+.5, -y+.5, -z+.5'
 16	'x+.5, y+.5, z+.5'
loop_
_atom_type_symbol
_atom_type_oxidation_number
Ba2+	2
F1-	-1
Mg2+	2
loop_
_atom_site_label
_atom_site_type_symbol
_atom_site_symmetry_multiplicity
_atom_site_Wyckoff_symbol
_atom_site_fract_x
_atom_site_fract_y
_atom_site_fract_z
_atom_site_occupancy
_atom_site_attached_hydrogens
F1 F1- 16 o 0.2318(3) 0.1132(1) 0.24198(10) 1. 0 
F2 F1- 8 n 0.2510(4) 0.3883(2) 0 1. 0 
F3 F1- 8 n 0.2557(4) 0.1636(2) 0 1. 0 
Ba1 Ba2+ 8 l 0 0.26055(2) 0.35101(2) 1. 0 
F4 F1- 8 l 0 0.2816(2) 0.1266(2) 1. 0 
F5 F1- 4 j 0.5 0 0.0876(2) 1. 0 
Ba2 Ba2+ 4 j 0.5 0 0.35235(2) 1. 0 
F6 F1- 4 i 0 0 0.0887(2) 1. 0 
Mg1 Mg2+ 4 i 0 0 0.22011(11) 1. 0 
F7 F1- 4 i 0 0 0.3706(2) 1. 0 
Mg2 Mg2+ 4 g 0 0.26765(14) 0 1. 0 
Mg3 Mg2+ 4 e 0.2529(3) 0 0 1. 0 
Mg4 Mg2+ 2 c 0.5 0.5 0 1. 0 

loop_
_atom_site_aniso_label
_atom_site_aniso_type_symbol
_atom_site_aniso_U_11
_atom_site_aniso_U_22
_atom_site_aniso_U_33
_atom_site_aniso_U_12
_atom_site_aniso_U_13
_atom_site_aniso_U_23
F1 F1- 0.0139(6) 0.0128(7) 0.0187(7) -.0024(8) -.0014(6) 0.0010(5)
F2 F1- 0.0184(10) 0.0145(12) 0.0339(13) -.0088(13) 0 0
F3 F1- 0.0126(8) 0.0097(8) 0.0214(10) 0.0029(9) 0 0
Ba1 Ba2+ 0.01246(9) 0.01204(10) 0.01300(9) 0 0 0.0030(7)
F4 F1- 0.0333(13) 0.0149(11) 0.0156(10) -.0012(8) 0 0
F5 F1- 0.0120(13) 0.0203(14) 0.0119(13) 0 0 0
Ba2 Ba2+ 0.01059(11) 0.00986(11) 0.01165(11) 0 0 0
F6 F1- 0.0120(14) 0.0164(14) 0.0117(12) 0 0 0
Mg1 Mg2+ 0.0103(8) 0.0124(9) 0.0120(7) 0 0 0
F7 F1- 0.021(2) 0.026(2) 0.0116(14) 0 0 0
Mg2 Mg2+ 0.0100(7) 0.0108(8) 0.0137(8) 0 0 0
Mg3 Mg2+ 0.0092(6) 0.0100(7) 0.0126(7) 0 0 0
Mg4 Mg2+ 0.0092(10) 0.0089(12) 0.0112(10) 0 0 0
#End of data_50217-ICSD


