data_72324-ICSD
#?2014 by Fachinformationszentrum Karlsruhe, and the U.S. Secretary of 
#Commerce on behalf of the United States.  All rights reserved.
_database_code_ICSD                72324
_audit_creation_date               1994/01/19
_chemical_name_systematic          'Thallium Dodecathioheptaaluminate'
_chemical_formula_structural       'Tl3 (Al7 S12)'
_chemical_formula_sum              'Al7 S12 Tl3'
_publ_section_title
;
Tl3Al7S12 - ein neues Al-reiches Thioaluminat: Darstellung, 
Kristallstruktur und Eigenschaften
;
loop_
_citation_id
_citation_journal_abbrev
_citation_year
_citation_journal_volume
_citation_page_first
_citation_page_last
_citation_journal_id_ASTM
primary 'Zeitschrift fuer Anorganische und Allgemeine Chemie (1950) (DE)'
 1992 616 145 153 ZAACAB
_publ_author_name                  'Krebs, B.;Greiwing, H.'
_cell_length_a                     9.040(2)
_cell_length_b                     12.381(2)
_cell_length_c                     9.569(2)
_cell_angle_alpha                  90.
_cell_angle_beta                   95.91(2)
_cell_angle_gamma                  90.
_cell_volume                       1065.31
_cell_formula_units_Z              2
_symmetry_space_group_name_H-M     'P 1 21 1'
_symmetry_Int_Tables_number        4
_refine_ls_R_factor_all            .049
loop_
_symmetry_equiv_pos_site_id
_symmetry_equiv_pos_as_xyz
  1	'-x, y+.5, -z'
  2	'x, y, z'
loop_
_atom_type_symbol
_atom_type_oxidation_number
Al3+	3
S2-	-2
Tl1+	1
loop_
_atom_site_label
_atom_site_type_symbol
_atom_site_symmetry_multiplicity
_atom_site_Wyckoff_symbol
_atom_site_fract_x
_atom_site_fract_y
_atom_site_fract_z
_atom_site_occupancy
_atom_site_attached_hydrogens
Tl1 Tl1+ 2 a 0.38372(16) 0.4684 0.16324(15) 1. 0 
Tl2 Tl1+ 2 a 0.88680(19) 0.47483(20) 0.23826(18) 1. 0 
Tl3 Tl1+ 2 a 0.95075(17) 0.25031(18) 0.47898(18) 1. 0 
S1 S2- 2 a 0.8781(9) 0.0047(6) 0.3977(9) 1. 0 
S2 S2- 2 a 0.9544(9) 0.7776(6) 0.1741(9) 1. 0 
S3 S2- 2 a 0.2285(7) 0.9716(8) 0.2756(8) 1. 0 
S4 S2- 2 a 0.0759(10) 0.5392(7) 0.0051(10) 1. 0 
S5 S2- 2 a 0.7506(9) 0.2989(6) 0.0498(10) 1. 0 
S6 S2- 2 a 0.3289(9) 0.6887(6) 0.3183(9) 1. 0 
S7 S2- 2 a 0.5739(9) 0.8874(6) 0.1587(9) 1. 0 
S8 S2- 2 a 0.5326(8) 0.1560(6) 0.3110(9) 1. 0 
S9 S2- 2 a 0.7311(9) 0.6706(7) 0.4114(9) 1. 0 
S10 S2- 2 a 0.4753(9) 0.4080(6) 0.4671(10) 1. 0 
S11 S2- 2 a 0.6453(9) 0.6032(7) 0.0435(9) 1. 0 
S12 S2- 2 a 0.1381(8) 0.2566(7) 0.2084(9) 1. 0 
Al1 Al3+ 2 a 0.9817(10) 0.9606(9) 0.2019(11) 1. 0 
Al2 Al3+ 2 a 0.3340(12) 0.8278(8) 0.1750(13) 1. 0 
Al3 Al3+ 2 a 0.5196(11) 0.7338(8) 0.4796(12) 1. 0 
Al4 Al3+ 2 a 0.6313(9) 0.9865(9) 0.3635(9) 1. 0 
Al5 Al3+ 2 a 0.3060(12) 0.1280(8) 0.1787(13) 1. 0 
Al6 Al3+ 2 a 0.7119(11) 0.7337(7) 0.1953(12) 1. 0 
Al7 Al3+ 2 a 0.9661(11) 0.2166(8) 0.0313(12) 1. 0 

loop_
_atom_site_aniso_label
_atom_site_aniso_type_symbol
_atom_site_aniso_U_11
_atom_site_aniso_U_22
_atom_site_aniso_U_33
_atom_site_aniso_U_12
_atom_site_aniso_U_13
_atom_site_aniso_U_23
Tl1 Tl1+ 0.0449(9) 0.0427(8) 0.0403(9) -.0028(10) 0.0057(7) 0.0003(10)
Tl2 Tl1+ 0.0759(11) 0.0386(9) 0.0575(11) 0.0153(12) 0.0004(9) -.0025(11)
Tl3 Tl1+ 0.0545(10) 0.0462(9) 0.0477(10) 0.0021(9) 0.0054(8) 0.0021(9)
S1 S2- 0.033(5) 0.027(5) 0.030(5) -.004(4) 0.006(4) -.009(4)
S2 S2- 0.028(4) 0.020(5) 0.042(6) -.002(4) 0.006(4) -.004(4)
S3 S2- 0.020(4) 0.021(3) 0.037(4) 0.003(5) 0.007(3) -.003(5)
S4 S2- 0.035(5) 0.031(5) 0.036(6) -.002(4) 0.004(4) 0.003(4)
S5 S2- 0.030(5) 0.030(4) 0.031(5) 0.009(4) 0.005(4) 0.008(4)
S6 S2- 0.024(5) 0.024(4) 0.040(6) -.001(4) 0.004(4) 0.007(4)
S7 S2- 0.023(4) 0.020(4) 0.031(5) 0.000(4) 0.003(4) -.002(4)
S8 S2- 0.020(4) 0.020(4) 0.030(5) -.001(3) 0.001(4) 0.000(4)
S9 S2- 0.027(5) 0.041(5) 0.024(5) 0.008(4) 0.007(4) 0.017(4)
S10 S2- 0.035(5) 0.014(4) 0.041(6) 0.001(4) 0.009(4) -.001(4)
S11 S2- 0.030(5) 0.027(4) 0.033(5) -.004(4) 0.001(4) 0.003(4)
S12 S2- 0.026(4) 0.031(4) 0.037(5) 0.006(5) 0.002(4) -.004(5)
Al1 Al3+ 0.025(5) 0.020(6) 0.038(6) -.001(5) 0.004(4) -.003(5)
Al2 Al3+ 0.026(6) 0.020(6) 0.042(8) 0.003(5) 0.003(5) 0.005(5)
Al3 Al3+ 0.025(5) 0.020(5) 0.034(7) -.006(4) 0.010(5) 0.009(4)
Al4 Al3+ 0.021(5) 0.023(5) 0.022(5) 0.005(5) 0.000(4) -.007(5)
Al5 Al3+ 0.019(6) 0.021(5) 0.044(8) -.001(5) 0.002(5) 0.010(5)
Al6 Al3+ 0.031(5) 0.019(5) 0.046(7) 0.001(5) 0.008(5) -.007(5)
Al7 Al3+ 0.032(6) 0.024(5) 0.037(8) -.002(5) 0.005(5) 0.002(5)
#End of data_72324-ICSD


