data_15102-ICSD
#?2014 by Fachinformationszentrum Karlsruhe, and the U.S. Secretary of 
#Commerce on behalf of the United States.  All rights reserved.
_database_code_ICSD                15102
_audit_creation_date               1980/01/01
_audit_update_record               1987/06/02
_chemical_name_systematic          'Sodium Pentaoxoplumbate'
_chemical_formula_structural       'Na6 Pb O5'
_chemical_formula_sum              'Na6 O5 Pb1'
_publ_section_title                'Zur Kristallstruktur von Na6 Pb O5'
loop_
_citation_id
_citation_journal_abbrev
_citation_year
_citation_journal_volume
_citation_page_first
_citation_page_last
_citation_journal_id_ASTM
primary 'Zeitschrift fuer Anorganische und Allgemeine Chemie (1950) (DE)'
 1969 368 160 167 ZAACAB
_publ_author_name                  'Troemel, M.;Hauck, J.'
_cell_length_a                     7.707
_cell_length_b                     7.707
_cell_length_c                     5.545
_cell_angle_alpha                  90.
_cell_angle_beta                   90.
_cell_angle_gamma                  90.
_cell_volume                       329.36
_cell_formula_units_Z              2
_symmetry_space_group_name_H-M     'I 4 m m'
_symmetry_Int_Tables_number        107
_refine_ls_R_factor_all            .102
loop_
_symmetry_equiv_pos_site_id
_symmetry_equiv_pos_as_xyz
  1	'-y, x, z'
  2	'y, -x, z'
  3	'-y, -x, z'
  4	'y, x, z'
  5	'x, -y, z'
  6	'-x, y, z'
  7	'-x, -y, z'
  8	'x, y, z'
  9	'-y+.5, x+.5, z+.5'
 10	'y+.5, -x+.5, z+.5'
 11	'-y+.5, -x+.5, z+.5'
 12	'y+.5, x+.5, z+.5'
 13	'x+.5, -y+.5, z+.5'
 14	'-x+.5, y+.5, z+.5'
 15	'-x+.5, -y+.5, z+.5'
 16	'x+.5, y+.5, z+.5'
loop_
_atom_type_symbol
_atom_type_oxidation_number
Na1+	1
O2-	-2
Pb4+	4
loop_
_atom_site_label
_atom_site_type_symbol
_atom_site_symmetry_multiplicity
_atom_site_Wyckoff_symbol
_atom_site_fract_x
_atom_site_fract_y
_atom_site_fract_z
_atom_site_occupancy
_atom_site_attached_hydrogens
Pb1 Pb4+ 2 a 0 0 0.06 1. 0 
O1 O2- 2 a 0 0 0.45 1. 0 
O2 O2- 8 d 0.272 0 0 1. 0 
Na1 Na1+ 4 b 0 0.5 0.25 1. 0 
Na2 Na1+ 8 c 0.293 0.293 -.01 1. 0 

#End of data_15102-ICSD


