data_52355-ICSD
#?2014 by Fachinformationszentrum Karlsruhe, and the U.S. Secretary of 
#Commerce on behalf of the United States.  All rights reserved.
_database_code_ICSD                52355
_audit_creation_date               2003/04/01
_audit_update_record               2006/04/01
_chemical_name_systematic          'Dipotassium Sulfate(VI) - Beta'
_chemical_formula_structural       'K2 (S O4)'
_chemical_formula_sum              'K2 O4 S1'
_chemical_name_mineral             Arcanite
_publ_section_title
;
Die Raumgruppe von Kaliumsulfat K2 P O3 F
;
loop_
_citation_id
_citation_journal_abbrev
_citation_year
_citation_journal_volume
_citation_page_first
_citation_page_last
_citation_journal_id_ASTM
primary
;
Zeitschrift fuer Kristallographie, Kristallgeometrie, Kristallphysik, 
Kristallchemie (-144,1977)
;
 1929 70 163 170 ZEKGAX
2 'Proceedings of the National Academy of Sciences, U.S.A.'
 1928 14 766 771 PNASA6
3 'Golden Book of Phase Transitions, Wroclaw' 2002 1 1 123 GBOPT5
_publ_author_name                  'Ehrenberg, W.;Hermann, C.'
_cell_length_a                     7.475
_cell_length_b                     10.07
_cell_length_c                     5.77
_cell_angle_alpha                  90.
_cell_angle_beta                   90.
_cell_angle_gamma                  90.
_cell_volume                       434.33
_cell_formula_units_Z              4
_symmetry_space_group_name_H-M     'P n a m'
_symmetry_Int_Tables_number        62
loop_
_symmetry_equiv_pos_site_id
_symmetry_equiv_pos_as_xyz
  1	'x+.5, -y+.5, z'
  2	'x, y, -z+.5'
  3	'-x+.5, y+.5, z+.5'
  4	'-x, -y, -z'
  5	'-x+.5, y+.5, -z'
  6	'-x, -y, z+.5'
  7	'x+.5, -y+.5, -z+.5'
  8	'x, y, z'
loop_
_atom_type_symbol
_atom_type_oxidation_number
K1+	1
O2-	-2
S6+	6
loop_
_atom_site_label
_atom_site_type_symbol
_atom_site_symmetry_multiplicity
_atom_site_Wyckoff_symbol
_atom_site_fract_x
_atom_site_fract_y
_atom_site_fract_z
_atom_site_occupancy
_atom_site_attached_hydrogens
K1 K1+ 4 c 0.683 0.417 0.25 1. 0 
K2 K1+ 4 c 0 0.683 0.25 1. 0 
S1 S6+ 4 c 0.25 0.417 0.25 1. 0 
O1 O2- 4 c 0.048 0.417 0.25 1. 0 
O2 O2- 4 c 0.317 0.557 0.25 1. 0 
O3 O2- 8 d 0.317 0.347 0.037 1. 0 

#End of data_52355-ICSD


