data_9908-ICSD
#?2014 by Fachinformationszentrum Karlsruhe, and the U.S. Secretary of 
#Commerce on behalf of the United States.  All rights reserved.
_database_code_ICSD                9908
_audit_creation_date               1980/01/01
_chemical_name_systematic          'Lithium Tetrafluoroaurate'
_chemical_formula_structural       'Li Au F4'
_chemical_formula_sum              'Au1 F4 Li1'
_publ_section_title
;
Neue Untersuchungen an Fluorkomplexen mit dreiwertigem Silber und 
Gold
;
loop_
_citation_id
_citation_journal_abbrev
_citation_year
_citation_journal_volume
_citation_page_first
_citation_page_last
_citation_journal_id_ASTM
primary 'Zeitschrift fuer Anorganische und Allgemeine Chemie (1950) (DE)'
 1970 379 193 198 ZAACAB
_publ_author_name                  'Hoppe, R.;Homann, R.'
_cell_length_a                     11.16
_cell_length_b                     5.39
_cell_length_c                     5.41
_cell_angle_alpha                  90.
_cell_angle_beta                   115.7
_cell_angle_gamma                  90.
_cell_volume                       293.23
_cell_formula_units_Z              4
_symmetry_space_group_name_H-M     'C 1 2/c 1'
_symmetry_Int_Tables_number        15
loop_
_symmetry_equiv_pos_site_id
_symmetry_equiv_pos_as_xyz
  1	'x, -y, z+.5'
  2	'-x, -y, -z'
  3	'-x, y, -z+.5'
  4	'x, y, z'
  5	'x+.5, -y+.5, z+.5'
  6	'-x+.5, -y+.5, -z'
  7	'-x+.5, y+.5, -z+.5'
  8	'x+.5, y+.5, z'
loop_
_atom_type_symbol
_atom_type_oxidation_number
Au3+	3
F1-	-1
Li1+	1
loop_
_atom_site_label
_atom_site_type_symbol
_atom_site_symmetry_multiplicity
_atom_site_Wyckoff_symbol
_atom_site_fract_x
_atom_site_fract_y
_atom_site_fract_z
_atom_site_occupancy
_atom_site_attached_hydrogens
Li1 Li1+ 4 e 0 0 0.25 1. 0 
Au1 Au3+ 4 d 0.25 0.25 0.5 1. 0 
F1 F1- 8 f 0.392 0.056 0.458 1. 0 
F2 F1- 8 f 0.108 0.085 0.174 1. 0 

#End of data_9908-ICSD


