data_20797-ICSD
#?2014 by Fachinformationszentrum Karlsruhe, and the U.S. Secretary of 
#Commerce on behalf of the United States.  All rights reserved.
_database_code_ICSD                20797
_audit_creation_date               1984/11/20
_chemical_name_systematic
;
Potassium Beryllium Tecto-decaoxotetrasilicate
;
_chemical_formula_structural       'K2 Be Si4 O10'
_chemical_formula_sum              'Be1 K2 O10 Si4'
_publ_section_title
;
The crystal structure of potassium beryllosilicate K2 Be Si4 O10
;
loop_
_citation_id
_citation_journal_abbrev
_citation_year
_citation_journal_volume
_citation_page_first
_citation_page_last
_citation_journal_id_ASTM
primary 'Doklady Akademii Nauk SSSR' 1980 255 565 569 DANKAS
_publ_author_name
;
Balko, V.P.;Bakakin, V.V.;Gatilov, Yu.V.
;
_cell_length_a                     6.948(3)
_cell_length_b                     9.743(5)
_cell_length_c                     13.755(5)
_cell_angle_alpha                  90.
_cell_angle_beta                   93.58(5)
_cell_angle_gamma                  90.
_cell_volume                       929.32
_cell_formula_units_Z              4
_symmetry_space_group_name_H-M     'P 1 21/n 1'
_symmetry_Int_Tables_number        14
_refine_ls_R_factor_all            .099
loop_
_symmetry_equiv_pos_site_id
_symmetry_equiv_pos_as_xyz
  1	'-x+.5, y+.5, -z+.5'
  2	'-x, -y, -z'
  3	'x+.5, -y+.5, z+.5'
  4	'x, y, z'
loop_
_atom_type_symbol
_atom_type_oxidation_number
Be2+	2
K1+	1
O2-	-2
Si4+	4
loop_
_atom_site_label
_atom_site_type_symbol
_atom_site_symmetry_multiplicity
_atom_site_Wyckoff_symbol
_atom_site_fract_x
_atom_site_fract_y
_atom_site_fract_z
_atom_site_occupancy
_atom_site_attached_hydrogens
K1 K1+ 4 e 0.4575(4) 0.1248(3) 0.5917(2) 1. 0 
K2 K1+ 4 e 0.7405(4) 0.5777(3) 0.6303(2) 1. 0 
Si1 Si4+ 4 e 0.5362(4) 0.4255(2) 0.8344(2) 1. 0 
Si2 Si4+ 4 e 0.2687(4) 0.9514(2) 0.8299(2) 1. 0 
Si3 Si4+ 4 e 0.7669(4) 0.2659(2) 0.4341(2) 1. 0 
Si4 Si4+ 4 e 0.4838(4) 0.2841(2) 0.1300(2) 1. 0 
Be1 Be2+ 4 e 0.4539(18) 0.1349(13) 0.3052(9) 1. 0 
O1 O2- 4 e 0.5545(10) 0.4437(7) 0.1103(5) 1. 0 
O2 O2- 4 e 0.5384(10) 0.7154(7) 0.1136(5) 1. 0 
O3 O2- 4 e 0.5683(10) 0.0170(7) 0.2431(5) 1. 0 
O4 O2- 4 e 0.261(1) 0.0653(7) 0.3381(5) 1. 0 
O5 O2- 4 e 0.5816(10) 0.1783(7) 0.4047(5) 1. 0 
O6 O2- 4 e 0.4171(10) 0.2666(7) 0.2360(5) 1. 0 
O7 O2- 4 e 0.4443(10) 0.4222(7) 0.7206(5) 1. 0 
O8 O2- 4 e 0.3291(10) 0.8116(7) 0.8926(5) 1. 0 
O9 O2- 4 e 0.2428(10) 0.0696(7) 0.9106(5) 1. 0 
O10 O2- 4 e 0.3073(10) 0.2411(7) 0.0525(5) 1. 0 

loop_
_atom_site_aniso_label
_atom_site_aniso_type_symbol
_atom_site_aniso_B_11
_atom_site_aniso_B_22
_atom_site_aniso_B_33
_atom_site_aniso_B_12
_atom_site_aniso_B_13
_atom_site_aniso_B_23
K1 K1+ 1.6(1) 1.8(1) 2.4(1) 0.8(1) 1.0(1) 1.2(1)
K2 K1+ 1.3(1) 1.8(1) 1.8(1) -.1(1) 0.4(1) -.2(1)
Si1 Si4+ 0.5(1) 0.4(1) 0.4(1) -.1(1) 0.2(1) 0.1(1)
Si2 Si4+ 0.3(1) 0.3(1) 0.4(1) 0.0(1) 0.0(1) -.1(1)
Si3 Si4+ 0.4(1) 0.3(1) 0.4(1) -.1(1) 0.1(1) 0.1(1)
Si4 Si4+ 0.4(1) 0.3(1) 0.3(1) -.1(1) 0.0(1) 0.0(1)
Be1 Be2+ 0.7(4) 0.5(4) 0.7(4) -.1(3) 0.3(3) -.1(3)
O1 O2- 0.8(2) 0.3(2) 1.0(2) 0.1(2) 0.2(2) 0.1(2)
O2 O2- 0.7(2) 0.4(2) 1.0(2) -.1(2) 0.4(2) 0.2(2)
O3 O2- 0.8(2) 0.6(2) 0.8(2) -.2(2) 0.4(2) -.1(2)
O4 O2- 0.3(2) 0.9(2) 0.6(2) 0.4(2) 0.2(2) 0.1(2)
O5 O2- 0.9(2) 0.9(2) 0.9(2) -.4(2) 0.0(2) 0.1(2)
O6 O2- 1.5(2) 1.0(2) 0.2(2) 0.1(2) 0.4(2) 0.1(2)
O7 O2- 0.5(2) 1.2(2) 1.0(2) 0.6(2) -.2(2) 0.0(2)
O8 O2- 0.5(2) 0.7(2) 0.8(2) 0.4(2) 0.0(2) 0.0(2)
O9 O2- 0.9(2) 0.3(2) 1.0(2) 0.3(2) 0.3(2) -.3(2)
O10 O2- 1.0(2) 1.2(2) 0.4(2) -.1(2) -.1(2) -.2(2)
#End of data_20797-ICSD


