data_31883-ICSD
#?2014 by Fachinformationszentrum Karlsruhe, and the U.S. Secretary of 
#Commerce on behalf of the United States.  All rights reserved.
_database_code_ICSD                31883
_audit_creation_date               1980/01/01
_audit_update_record               2012/08/01
_chemical_name_systematic          'Tripotassium Hexacyanoferrate(III)'
_chemical_formula_structural       'K3 (Fe (C N)6)'
_chemical_formula_sum              'C6 Fe1 K3 N6'
_publ_section_title
;
The crystallography and paramagnetic anisotropy of potassium 
ferricyanide
;
loop_
_citation_id
_citation_journal_abbrev
_citation_year
_citation_journal_volume
_citation_page_first
_citation_page_last
_citation_journal_id_ASTM
primary
;
Proceedings of the Royal Society of London, Series A: Mathematical 
and Physical Sciences (76,1906-)
;
 1969 309 91 118 PRLAAZ
2 'Golden Book of Phase Transitions, Wroclaw' 2002 1 1 123 GBOPT5
_publ_author_name                  'Figgis, B.N.;Gerloch, M.;Mason, R.'
_cell_length_a                     7.03(4)
_cell_length_b                     10.31(5)
_cell_length_c                     8.35(4)
_cell_angle_alpha                  90.
_cell_angle_beta                   107.2(2)
_cell_angle_gamma                  90.
_cell_volume                       578.14
_cell_formula_units_Z              2
_symmetry_space_group_name_H-M     'P 1 21/c 1'
_symmetry_Int_Tables_number        14
_refine_ls_R_factor_all            .077
loop_
_symmetry_equiv_pos_site_id
_symmetry_equiv_pos_as_xyz
  1	'x, -y+.5, z+.5'
  2	'-x, -y, -z'
  3	'-x, y+.5, -z+.5'
  4	'x, y, z'
loop_
_atom_type_symbol
_atom_type_oxidation_number
C2+	2
Fe3+	3
K1+	1
N3-	-3
loop_
_atom_site_label
_atom_site_type_symbol
_atom_site_symmetry_multiplicity
_atom_site_Wyckoff_symbol
_atom_site_fract_x
_atom_site_fract_y
_atom_site_fract_z
_atom_site_occupancy
_atom_site_attached_hydrogens
Fe1 Fe3+ 2 a 0 0 0 1. 0 
K1 K1+ 4 e 0.4980(17) 0.2303(26) 0.3745(28) 1. 0 
K2 K1+ 2 c 0 0 0.5 1. 0 
C1 C2+ 4 e 0.1250(18) 0.1737(20) 0.0309(18) 1. 0 
C2 C2+ 4 e 0.1861(16) -.0523(16) 0.2080(16) 1. 0 
C3 C2+ 4 e 0.1874(17) -.0508(17) -.1148(20) 1. 0 
N1 N3- 4 e 0.1998(19) 0.2680(21) 0.0502(19) 1. 0 
N2 N3- 4 e 0.3080(18) -.0771(20) 0.3319(19) 1. 0 
N3 N3- 4 e 0.2866(18) -.0935(19) -.1858(18) 1. 0 

#End of data_31883-ICSD


