data_245898-ICSD
#?2014 by Fachinformationszentrum Karlsruhe, and the U.S. Secretary of 
#Commerce on behalf of the United States.  All rights reserved.
_database_code_ICSD                245898
_audit_creation_date               2009/02/01
_chemical_name_systematic
;
Calcium Dialuminum Oxide - Hp-form Ii
;
_chemical_formula_structural       'Ca Al2 O4'
_chemical_formula_sum              'Al2 Ca1 O4'
_publ_section_title
;
Structural studies on a stuffed framework high pressure polymorph of 
Ca Al2 O4
;
loop_
_citation_id
_citation_journal_abbrev
_citation_year
_citation_journal_volume
_citation_journal_issue
_citation_page_first
_citation_page_last
_citation_journal_id_ASTM
primary 'Zeitschrift fuer Kristallographie (1979-2010)' 2007 222 12 609 695 ZEKRDZ
_publ_author_name
;
Lazic, B.;Kahlenberg, V.;Konzett, J.
;
_cell_length_a                     7.97187(7)
_cell_length_b                     8.62844(7)
_cell_length_c                     10.26276(10)
_cell_angle_alpha                  90
_cell_angle_beta                   94.801(4)
_cell_angle_gamma                  90
_cell_volume                       703.45
_cell_formula_units_Z              8
_symmetry_space_group_name_H-M     'P 1 21/c 1'
_symmetry_Int_Tables_number        14
_refine_ls_R_factor_all            .0405
loop_
_symmetry_equiv_pos_site_id
_symmetry_equiv_pos_as_xyz
  1	'x, -y+.5, z+.5'
  2	'-x, -y, -z'
  3	'-x, y+.5, -z+.5'
  4	'x, y, z'
loop_
_atom_type_symbol
_atom_type_oxidation_number
Al3+	3
Ca2+	2
O2-	-2
loop_
_atom_site_label
_atom_site_type_symbol
_atom_site_symmetry_multiplicity
_atom_site_Wyckoff_symbol
_atom_site_fract_x
_atom_site_fract_y
_atom_site_fract_z
_atom_site_occupancy
_atom_site_attached_hydrogens
_atom_site_B_iso_or_equiv
Ca1 Ca2+ 4 e 0.5337(3) 0.2431(3) 0.3535(3) 1. 0 0.17(5) 
Ca2 Ca2+ 4 e -0.0051(3) 0.2154(3) 0.3731(2) 1. 0 0.17(5) 
Al1 Al3+ 4 e 0.2937(4) 0.3947(3) 0.1184(3) 1. 0 0.20(5) 
Al2 Al3+ 4 e 0.6951(4) 0.4048(3) 0.1091(3) 1. 0 0.20(5) 
Al3 Al3+ 4 e 0.8221(3) 0.5566(3) 0.3612(3) 1. 0 0.20(5) 
Al4 Al3+ 4 e 0.2236(4) 0.5605(3) 0.3666(3) 1. 0 0.20(5) 
O1 O2- 4 e 0.3492(6) 0.4341(7) 0.2826(4) 1. 0 0.83(7) 
O2 O2- 4 e 0.7326(7) 0.4258(6) 0.4654(4) 1. 0 0.83(7) 
O3 O2- 4 e 0.1529(6) 0.2443(4) 0.0732(5) 1. 0 0.83(7) 
O4 O2- 4 e 0.4886(4) 0.3409(6) 0.0677(5) 1. 0 0.83(7) 
O5 O2- 4 e 0.2184(7) 0.5627(5) 0.0383(4) 1. 0 0.83(7) 
O6 O2- 4 e 0.7153(7) 0.5745(5) 0.2050(4) 1. 0 0.83(7) 
O7 O2- 4 e 0.7675(7) 0.2441(4) 0.2051(5) 1. 0 0.83(7) 
O8 O2- 4 e 0.0222(4) 0.4851(5) 0.3305(7) 1. 0 0.83(7) 

#End of data_245898-ICSD


