data_28546-ICSD
#?2014 by Fachinformationszentrum Karlsruhe, and the U.S. Secretary of 
#Commerce on behalf of the United States.  All rights reserved.
_database_code_ICSD                28546
_audit_creation_date               1980/01/01
_audit_update_record               2009/02/01
_chemical_name_systematic          'Calcium Sulfate(VI)'
_chemical_formula_structural       'Ca (S O4)'
_chemical_formula_sum              'Ca1 O4 S1'
_chemical_name_mineral             Anhydrite
_publ_section_title
;
A more accurate determination of the crystal structure of anhydrite, 
Ca S O4
;
loop_
_citation_id
_citation_journal_abbrev
_citation_year
_citation_journal_volume
_citation_journal_issue
_citation_page_first
_citation_page_last
_citation_journal_id_ASTM
primary Kristallografiya 1962 7- 690 700 KRISAJ
2 'Soviet Physics, Crystallography (= Kristallografiya)'
 1962 7- 559 569 SPHCA6
3 'National Bureau of Standards (U.S.), Circular' 1953 539 2 61 65 NBSCAA
_publ_author_name                  'Hoehne, E.'
_cell_length_a                     6.23
_cell_length_b                     6.98
_cell_length_c                     6.97
_cell_angle_alpha                  90.
_cell_angle_beta                   90.
_cell_angle_gamma                  90.
_cell_volume                       303.09
_cell_formula_units_Z              4
_symmetry_space_group_name_H-M     'B b m m'
_symmetry_Int_Tables_number        63
_refine_ls_R_factor_all            .122
loop_
_symmetry_equiv_pos_site_id
_symmetry_equiv_pos_as_xyz
  1	'x, -y+.5, -z'
  2	'-x, y+.5, -z'
  3	'x, y, -z'
  4	'-x, -y, -z'
  5	'-x, y+.5, z'
  6	'x, -y+.5, z'
  7	'-x, -y, z'
  8	'x, y, z'
  9	'x+.5, -y+.5, -z+.5'
 10	'-x+.5, y+.5, -z+.5'
 11	'x+.5, y, -z+.5'
 12	'-x+.5, -y, -z+.5'
 13	'-x+.5, y+.5, z+.5'
 14	'x+.5, -y+.5, z+.5'
 15	'-x+.5, -y, z+.5'
 16	'x+.5, y, z+.5'
loop_
_atom_type_symbol
_atom_type_oxidation_number
Ca2+	2
O2-	-2
S6+	6
loop_
_atom_site_label
_atom_site_type_symbol
_atom_site_symmetry_multiplicity
_atom_site_Wyckoff_symbol
_atom_site_fract_x
_atom_site_fract_y
_atom_site_fract_z
_atom_site_occupancy
_atom_site_attached_hydrogens
_atom_site_B_iso_or_equiv
Ca1 Ca2+ 4 c 0.346 0.75 0 1. 0 -.8 
S1 S6+ 4 c 0.154 0.25 0 1. 0 -.8 
O1 O2- 8 f 0.296 0.08 0 1. 0 -.8 
O2 O2- 8 g 0.02 0.25 0.173 1. 0 -.8 

#End of data_28546-ICSD


