data_710001-ICSD
#?2014 by Fachinformationszentrum Karlsruhe, and the U.S. Secretary of 
#Commerce on behalf of the United States.  All rights reserved.
_database_code_ICSD                710001
_audit_creation_date               2010/02/01
_audit_update_record               2013/08/01
_chemical_name_systematic
;
Dipotassium Hexaaquazinc(II) Bis(selenate)
;
_chemical_formula_structural       'K2 (Zn (H2 O)6) (Se O4)2'
_chemical_formula_sum              'H12 K2 O14 Se2 Zn1'
_publ_section_title
;
Crystal structure of Tutton¡§s salts K2 [M(II) (H2 O)6] (Se O4)2, 
M(II) = Co, Ni, Zn and refinement of the crystal structure of 
potassium hexaaquamagnesium(II) selenate, K2 [Mg (H2 O)6] (Se O4)2
;
loop_
_citation_id
_citation_journal_abbrev
_citation_year
_citation_journal_volume
_citation_journal_issue
_citation_page_first
_citation_page_last
_citation_journal_id_ASTM
primary 'Zeitschrift fuer Kristallographie - New Crystal Structures'
 2009 224 3 351 354 ZKNSFT
_publ_author_name
;
Euler, H.;Barbier, B.;Meents, A.;Kirfel, A.
;
_cell_length_a                     9.2117(13)
_cell_length_b                     12.3910(12)
_cell_length_c                     6.2780(8)
_cell_angle_alpha                  90.00
_cell_angle_beta                   104.198(10)
_cell_angle_gamma                  90.00
_cell_volume                       694.7
_cell_formula_units_Z              2
_symmetry_space_group_name_H-M     'P 1 21/a 1'
_symmetry_Int_Tables_number        14
_refine_ls_R_factor_all            .0156
loop_
_symmetry_equiv_pos_site_id
_symmetry_equiv_pos_as_xyz
  1	'x+.5, -y+.5, z'
  2	'-x, -y, -z'
  3	'-x+.5, y+.5, -z'
  4	'x, y, z'
loop_
_atom_type_symbol
_atom_type_oxidation_number
H1+	1
K1+	1
O2-	-2
Se6+	6
Zn2+	2
loop_
_atom_site_label
_atom_site_type_symbol
_atom_site_symmetry_multiplicity
_atom_site_Wyckoff_symbol
_atom_site_fract_x
_atom_site_fract_y
_atom_site_fract_z
_atom_site_occupancy
_atom_site_attached_hydrogens
_atom_site_U_iso_or_equiv
Zn1 Zn2+ 2 a 0.0000 0.0000 0.0000 1 0 0.01875(10) 
Se1 Se6+ 4 e 0.41418(2) 0.134624(17) 0.72743(3) 1 0 0.01896(8) 
O1 O2- 4 e 0.4090(2) 0.23782(13) 0.5639(3) 1 0 0.0354(4) 
O2 O2- 4 e 0.57162(19) 0.07125(16) 0.7524(3) 1 0 0.0453(5) 
O3 O2- 4 e 0.27727(16) 0.05329(12) 0.6132(2) 1 0 0.0260(4) 
O4 O2- 4 e 0.39535(18) 0.17580(13) 0.9679(2) 1 0 0.0289(4) 
O5 O2- 4 e 0.16782(19) 0.10991(13) 0.1689(3) 1 0 0.0255(4) 
O6 O2- 4 e -0.1666(2) 0.11274(14) 0.0363(3) 1 0 0.0247(3) 
O7 O2- 4 e -0.0053(2) -0.06564(15) 0.2934(3) 1 0 0.0255(4) 
K1 K1+ 4 e 0.13818(6) 0.33994(4) 0.33928(8) 1 0 0.03142(13) 
H1 H1+ 4 e 0.207(3) 0.088(2) 0.287(5) 1 0 0.041(9) 
H2 H1+ 4 e 0.231(3) 0.121(2) 0.114(4) 1 0 0.032(8) 
H3 H1+ 4 e -0.248(4) 0.104(2) -0.056(5) 1 0 0.047(9) 
H4 H1+ 4 e -0.148(3) 0.172(3) 0.016(5) 1 0 0.047(9) 
H5 H1+ 4 e -0.072(3) -0.061(2) 0.326(5) 1 0 0.035(9) 
H6 H1+ 4 e 0.020(3) -0.125(2) 0.331(4) 1 0 0.030(8) 

loop_
_atom_site_aniso_label
_atom_site_aniso_type_symbol
_atom_site_aniso_U_11
_atom_site_aniso_U_22
_atom_site_aniso_U_33
_atom_site_aniso_U_12
_atom_site_aniso_U_13
_atom_site_aniso_U_23
Zn1 Zn2+ 0.01781(18) 0.01981(19) 0.01855(18) -0.00106(13) 0.00434(14) 
0.00088(13)
Se1 Se6+ 0.01692(12) 0.02078(12) 0.01904(12) -0.00195(9) 0.00416(8) 
-0.00208(9)
O1 O2- 0.0515(11) 0.0275(9) 0.0267(8) -0.0131(8) 0.0086(8) 0.0025(7)
O2 O2- 0.0219(9) 0.0579(12) 0.0516(11) 0.0125(9) 0.0005(8) -0.0142(10)
O3 O2- 0.0233(8) 0.0264(8) 0.0289(8) -0.0083(6) 0.0072(7) -0.0065(7)
O4 O2- 0.0401(10) 0.0278(8) 0.0207(8) -0.0052(7) 0.0114(7) -0.0051(7)
O5 O2- 0.0231(9) 0.0305(9) 0.0222(9) -0.0065(7) 0.0041(8) 0.0000(7)
O6 O2- 0.0220(9) 0.0228(9) 0.0290(9) 0.0015(7) 0.0057(7) 0.0014(7)
O7 O2- 0.0278(10) 0.0255(10) 0.0260(9) 0.0040(8) 0.0118(8) 0.0056(7)
K1 K1+ 0.0336(3) 0.0322(3) 0.0299(3) -0.0016(2) 0.0106(2) 0.0004(2)
#End of data_710001-ICSD


