data_260435-ICSD
#?2014 by Fachinformationszentrum Karlsruhe, and the U.S. Secretary of 
#Commerce on behalf of the United States.  All rights reserved.
_database_code_ICSD                260435
_audit_creation_date               2010/02/01
_chemical_name_systematic
;
Dicesium Tecto-magnesiopentasilicate
;
_chemical_formula_structural       'Cs2 (Mg Si5 O12)'
_chemical_formula_sum              'Cs2 Mg1 O12 Si5'
_publ_section_title
;
Crystal structures and cation ordering in Cs2 Mg Si5 O12, Rb2 Mg Si5 
O12 and Cs2 Zn Si5 O12 leucites
;
loop_
_citation_id
_citation_journal_abbrev
_citation_year
_citation_journal_volume
_citation_journal_issue
_citation_page_first
_citation_page_last
_citation_journal_id_ASTM
primary 'Acta Crystallographica, Section B: Structural Science'
 2009 65 4 435 444 ASBSDK
_publ_author_name                  'Bell, A.M.T.;Henderson, C.M.B.'
_cell_length_a                     13.6371(5)
_cell_length_b                     13.6689(5)
_cell_length_c                     13.7280(5)
_cell_angle_alpha                  90
_cell_angle_beta                   90
_cell_angle_gamma                  90
_cell_volume                       2558.96
_cell_formula_units_Z              8
_symmetry_space_group_name_H-M     'P b c a'
_symmetry_Int_Tables_number        61
_refine_ls_R_factor_all            .1144
loop_
_symmetry_equiv_pos_site_id
_symmetry_equiv_pos_as_xyz
  1	'x+.5, y, -z+.5'
  2	'x, -y+.5, z+.5'
  3	'-x+.5, y+.5, z'
  4	'-x, -y, -z'
  5	'-x+.5, -y, z+.5'
  6	'-x, y+.5, -z+.5'
  7	'x+.5, -y+.5, -z'
  8	'x, y, z'
loop_
_atom_type_symbol
_atom_type_oxidation_number
Cs1+	1
Mg2+	2
O2-	-2
Si4+	4
loop_
_atom_site_label
_atom_site_type_symbol
_atom_site_symmetry_multiplicity
_atom_site_Wyckoff_symbol
_atom_site_fract_x
_atom_site_fract_y
_atom_site_fract_z
_atom_site_occupancy
_atom_site_attached_hydrogens
_atom_site_U_iso_or_equiv
Cs1 Cs1+ 8 c 0.1466(4) 0.1274(5) 0.1374(4) 1 0 0.0322(8) 
Cs2 Cs1+ 8 c 0.3931(4) 0.3804(5) 0.3920(3) 1 0 0.0322(8) 
Mg1 Mg2+ 8 c 0.366(2) 0.835(2) 0.916(2) 1 0 0.002(6) 
Si1 Si4+ 8 c 0.111(2) 0.657(2) 0.589(2) 1 0 0.035(3) 
Si2 Si4+ 8 c 0.597(2) 0.109(2) 0.665(2) 1 0 0.035(3) 
Si3 Si4+ 8 c 0.630(2) 0.602(2) 0.131(2) 1 0 0.035(3) 
Si4 Si4+ 8 c 0.930(2) 0.377(3) 0.834(2) 1 0 0.035(3) 
Si5 Si4+ 8 c 0.825(2) 0.909(2) 0.365(2) 1 0 0.035(3) 
O1 O2- 8 c 0.479(3) 0.379(4) 0.160(3) 1 0 0.034(3) 
O2 O2- 8 c 0.144(4) 0.486(4) 0.378(3) 1 0 0.034(3) 
O3 O2- 8 c 0.390(3) 0.116(4) 0.479(3) 1 0 0.034(3) 
O4 O2- 8 c 0.754(3) 0.394(4) 0.615(3) 1 0 0.034(3) 
O5 O2- 8 c 0.6140(10) 0.726(4) 0.392(3) 1 0 0.034(3) 
O6 O2- 8 c 0.346(4) 0.638(4) 0.741(3) 1 0 0.034(3) 
O7 O2- 8 c 0.955(3) 0.900(3) 0.666(3) 1 0 0.034(3) 
O8 O2- 8 c 0.639(4) 0.975(4) 0.876(3) 1 0 0.034(3) 
O9 O2- 8 c 0.863(3) 0.653(3) 0.953(3) 1 0 0.034(3) 
O10 O2- 8 c 0.210(3) 0.886(4) 0.133(3) 1 0 0.034(3) 
O11 O2- 8 c 0.143(3) 0.201(4) 0.884(3) 1 0 0.034(3) 
O12 O2- 8 c 0.930(3) 0.147(4) 0.217(3) 1 0 0.034(3) 

#End of data_260435-ICSD


