data_72101-ICSD
#?2014 by Fachinformationszentrum Karlsruhe, and the U.S. Secretary of 
#Commerce on behalf of the United States.  All rights reserved.
_database_code_ICSD                72101
_audit_creation_date               1993/08/22
_audit_update_record               2006/04/01
_chemical_name_systematic          'Trilithium Phyllo-gallogermanate'
_chemical_formula_structural       'Li3 (Ga Ge O5)'
_chemical_formula_sum              'Ga1 Ge1 Li3 O5'
_publ_section_title
;
Crystal structure of Li3 A BO5 (A= Al, Ga; B= Si, Ge): a novel 
wurtzite superstructure
;
loop_
_citation_id
_citation_journal_abbrev
_citation_year
_citation_journal_volume
_citation_page_first
_citation_page_last
_citation_journal_id_ASTM
primary 'Journal of Solid State Chemistry' 1992 98 33 39 JSSCBI
_publ_author_name
;
Skakle, J.M.S.;Fletcher, J.G.;Howie, R.A.;Lee, C.-K.;West, A.R.
;
_cell_length_a                     4.9283(2)
_cell_length_b                     5.4656(3)
_cell_length_c                     15.8617(8)
_cell_angle_alpha                  90.
_cell_angle_beta                   90.
_cell_angle_gamma                  90.
_cell_volume                       427.25
_cell_formula_units_Z              4
_symmetry_space_group_name_H-M     'P 21 n b'
_symmetry_Int_Tables_number        33
_refine_ls_R_factor_all            .064
loop_
_symmetry_equiv_pos_site_id
_symmetry_equiv_pos_as_xyz
  1	'x, y+.5, -z+.5'
  2	'x+.5, -y+.5, z+.5'
  3	'x+.5, -y, -z'
  4	'x, y, z'
loop_
_atom_type_symbol
_atom_type_oxidation_number
Ga3+	3
Ge4+	4
Li1+	1
O2-	-2
loop_
_atom_site_label
_atom_site_type_symbol
_atom_site_symmetry_multiplicity
_atom_site_Wyckoff_symbol
_atom_site_fract_x
_atom_site_fract_y
_atom_site_fract_z
_atom_site_occupancy
_atom_site_attached_hydrogens
_atom_site_B_iso_or_equiv
Ga1 Ga3+ 4 a 0.50(2) 0.331(2) 0.2009(7) 1. 0 0.7 
Ge1 Ge4+ 4 a 0 0.161(2) 0.0963(6) 1. 0 0.7 
O1 O2- 4 a 0.59(1) 0.66(1) 0.203(3) 1. 0 1. 
O2 O2- 4 a 0.63(1) 0.185(8) 0.102(4) 1. 0 1. 
O3 O2- 4 a 0.11(1) 0.307(8) 0.004(3) 1. 0 1. 
O4 O2- 4 a 0.11(1) 0.852(9) 0.098(4) 1. 0 1. 
O5 O2- 4 a 0.10(1) 0.31(1) 0.182(3) 1. 0 1. 
Li1 Li1+ 4 a 0.99(7) 0.17(2) 0.307(8) 1. 0 2. 
Li2 Li1+ 4 a 0.49(6) 0.33(2) 0.99(1) 1. 0 2. 
Li3 Li1+ 4 a 0.50(9) 0.82(2) 0.095(8) 1. 0 2. 

#End of data_72101-ICSD


