data_159758-ICSD
#?2014 by Fachinformationszentrum Karlsruhe, and the U.S. Secretary of 
#Commerce on behalf of the United States.  All rights reserved.
_database_code_ICSD                159758
_audit_creation_date               2008/08/01
_chemical_name_systematic          'Disilver Diindium Silicon Sulfide'
_chemical_formula_structural       'Ag2 In2 Si S6'
_chemical_formula_sum              'Ag2 In2 S6 Si1'
_publ_section_title
;
The (Ag2 S) - (In2 S3) - (Si(Ge) S2) systems and crystal structure of 
quaternary sulfides Ag2 In2 Si (Ge) S6
;
loop_
_citation_id
_citation_journal_abbrev
_citation_year
_citation_journal_volume
_citation_page_first
_citation_page_last
_citation_journal_id_ASTM
primary 'Journal of Alloys and Compounds' 2008 452 348 358 JALCEU
_publ_author_name
;
Sachanyuk, V.P.;Gorgut, G.P.;Atuchin, V.V.;Olekseyuk, I.D.;Parasyuk, 
O.V.
;
_cell_length_a                     12.1379(3)
_cell_length_b                     7.1681(2)
_cell_length_c                     12.1171(4)
_cell_angle_alpha                  90.
_cell_angle_beta                   109.252(2)
_cell_angle_gamma                  90.
_cell_volume                       995.3
_cell_formula_units_Z              4
_symmetry_space_group_name_H-M     'C 1 c 1'
_symmetry_Int_Tables_number        9
_refine_ls_R_factor_all            .0746
loop_
_symmetry_equiv_pos_site_id
_symmetry_equiv_pos_as_xyz
  1	'x, -y, z+.5'
  2	'x, y, z'
  3	'x+.5, -y+.5, z+.5'
  4	'x+.5, y+.5, z'
loop_
_atom_type_symbol
_atom_type_oxidation_number
Ag1+	1
In3+	3
S2-	-2
Si4+	4
loop_
_atom_site_label
_atom_site_type_symbol
_atom_site_symmetry_multiplicity
_atom_site_Wyckoff_symbol
_atom_site_fract_x
_atom_site_fract_y
_atom_site_fract_z
_atom_site_occupancy
_atom_site_attached_hydrogens
_atom_site_B_iso_or_equiv
Ag1 Ag1+ 4 a 0.3960(6) 0.5859(5) 0.2700(6) 1. 0 1.07(9) 
Ag2 Ag1+ 4 a 0.5938(6) 0.2029(4) 0.4201(6) 1. 0 1.00(8) 
In1 In3+ 4 a 0.4223(6) 0.0943(5) 0.0749(6) 1. 0 1.05(9) 
In2 In3+ 4 a 0.2389(6) 0.0643(4) 0.2704(6) 1. 0 1.07(9) 
Si1 Si4+ 4 a 0.1665(14) 0.745(2) 0.0140(14) 1. 0 0.7(2) 
S1 S2- 4 a 0.353(2) 0.779(2) 0.0521(13) 1. 0 1.5(3) 
S2 S2- 4 a 0.4202(12) 0.2460(13) 0.2469(12) 1. 0 1.2(3) 
S3 S2- 4 a 0.1044(10) -0.009(2) 0.0682(10) 1. 0 0.9(3) 
S4 S2- 4 a 0.0844(10) 0.2706(13) 0.3202(13) 1. 0 1.6(3) 
S5 S2- 4 a 0.2992(13) 0.2297(13) 0.8792(14) 1. 0 0.7(2) 
S6 S2- 4 a 0.6312(10) 0.029(2) 0.0857(10) 1. 0 1.3(3) 

#End of data_159758-ICSD


