data_8257-ICSD
#?2014 by Fachinformationszentrum Karlsruhe, and the U.S. Secretary of 
#Commerce on behalf of the United States.  All rights reserved.
_database_code_ICSD                8257
_audit_creation_date               1980/01/01
_chemical_name_systematic          'Aluminium Indium Sulfide'
_chemical_formula_structural       'Al In S3'
_chemical_formula_sum              'Al1 In1 S3'
_publ_section_title
;
Structure of aluminium indium trisulphide
;
loop_
_citation_id
_citation_journal_abbrev
_citation_year
_citation_journal_volume
_citation_page_first
_citation_page_last
_citation_journal_id_ASTM
primary 'Acta Crystallographica B (24,1968-38,1982)' 1979 35 3016 3017 ACBCAR
_publ_author_name
;
Schulte-Kellinghaus, M.;Kraemer, V.
;
_cell_length_a                     6.6712(7)
_cell_length_b                     6.6712(7)
_cell_length_c                     17.835(8)
_cell_angle_alpha                  90.
_cell_angle_beta                   90.
_cell_angle_gamma                  120.
_cell_volume                       687.4
_cell_formula_units_Z              6
_symmetry_space_group_name_H-M     'P 61'
_symmetry_Int_Tables_number        169
_refine_ls_R_factor_all            .026
loop_
_symmetry_equiv_pos_site_id
_symmetry_equiv_pos_as_xyz
  1	'x-y, x, z+.1667'
  2	'y, -x+y, z+.8333'
  3	'-x, -y, z+.5'
  4	'-x+y, -x, z+.6667'
  5	'-y, x-y, z+.3333'
  6	'x, y, z'
loop_
_atom_type_symbol
_atom_type_oxidation_number
Al3+	3
In3+	3
S2-	-2
loop_
_atom_site_label
_atom_site_type_symbol
_atom_site_symmetry_multiplicity
_atom_site_Wyckoff_symbol
_atom_site_fract_x
_atom_site_fract_y
_atom_site_fract_z
_atom_site_occupancy
_atom_site_attached_hydrogens
In1 In3+ 6 a 0.6687(1) -.0050(1) 0.125 1. 0 
Al1 Al3+ 6 a 0.3199(4) 0.3309(3) 0.1529(1) 1. 0 
S1 S2- 6 a 0.2945(3) -.0056(3) 0.1152(1) 1. 0 
S2 S2- 6 a 0.0285(4) 0.3677(4) 0.1078(1) 1. 0 
S3 S2- 6 a 0.6779(3) 0.6356(3) 0.1418(1) 1. 0 

loop_
_atom_site_aniso_label
_atom_site_aniso_type_symbol
_atom_site_aniso_U_11
_atom_site_aniso_U_22
_atom_site_aniso_U_33
_atom_site_aniso_U_12
_atom_site_aniso_U_13
_atom_site_aniso_U_23
In1 In3+ 0.0140(2) 0.0147(2) 0.0156(2) 0.0071(2) -.0009(2) 0.0031(2)
Al1 Al3+ 0.0051(8) 0.0055(8) 0.0033(8) 0.0023(6) -.0007(6) -.0014(6)
S1 S2- 0.0138(7) 0.0125(7) 0.0092(9) 0.0067(6) -.0013(6) -.0017(6)
S2 S2- 0.0141(7) 0.0148(7) 0.0125(9) 0.0072(6) -.0017(7) 0.0011(7)
S3 S2- 0.0124(7) 0.0138(7) 0.0123(8) 0.0058(6) 0.0024(6) -.0003(7)
#End of data_8257-ICSD


