data_417004-ICSD
#?2014 by Fachinformationszentrum Karlsruhe, and the U.S. Secretary of 
#Commerce on behalf of the United States.  All rights reserved.
_database_code_ICSD                417004
_audit_creation_date               2011/02/01
_chemical_name_systematic          'Trizinc Bis(trioxoarsenate(III))'
_chemical_formula_structural       'Zn3 (As O3)2'
_chemical_formula_sum              'As2 O6 Zn3'
_publ_section_title
;
Hydrothermal synthesis, crystal structure and properties of a new 
porous zinc arsenite Zn3 As2 O6 with the novel helical Zn - O chains
;
loop_
_citation_id
_citation_journal_abbrev
_citation_year
_citation_journal_volume
_citation_page_first
_citation_page_last
_citation_journal_id_ASTM
primary 'Journal of Cluster Science' 2009 20 651 660 JCSCEB
_publ_author_name
;
Meng Lian Xia;Zhou Guang Peng;Zhu Dunru;Xu Yan
;
_cell_length_a                     8.250(4)
_cell_length_b                     5.186(3)
_cell_length_c                     15.824(9)
_cell_angle_alpha                  90.00
_cell_angle_beta                   97.379(9)
_cell_angle_gamma                  90.00
_cell_volume                       671.42
_cell_formula_units_Z              4
_symmetry_space_group_name_H-M     'P 1 21/c 1'
_symmetry_Int_Tables_number        14
_refine_ls_R_factor_all            .0481
loop_
_symmetry_equiv_pos_site_id
_symmetry_equiv_pos_as_xyz
  1	'x, -y+.5, z+.5'
  2	'-x, -y, -z'
  3	'-x, y+.5, -z+.5'
  4	'x, y, z'
loop_
_atom_type_symbol
_atom_type_oxidation_number
As3+	3
O2-	-2
Zn2+	2
loop_
_atom_site_label
_atom_site_type_symbol
_atom_site_symmetry_multiplicity
_atom_site_Wyckoff_symbol
_atom_site_fract_x
_atom_site_fract_y
_atom_site_fract_z
_atom_site_occupancy
_atom_site_attached_hydrogens
_atom_site_U_iso_or_equiv
As1 As3+ 4 e 0.25920(13) 0.5392(2) 0.63073(6) 1 0 0.0154(3) 
As2 As3+ 4 e 0.83301(12) 0.1325(2) 0.60632(6) 1 0 0.0150(3) 
Zn1 Zn2+ 4 e 0.12998(14) 0.1441(2) 0.76034(7) 1 0 0.0155(3) 
Zn2 Zn2+ 4 e 0.61029(14) -0.3729(2) 0.56667(7) 1 0 0.0166(3) 
Zn3 Zn2+ 4 e 0.48979(14) 0.0492(2) 0.68866(7) 1 0 0.0177(3) 
O1 O2- 4 e 0.3865(8) 0.4917(13) 0.5510(4) 1 0 0.020(2) 
O2 O2- 4 e 0.7777(8) 0.4376(13) 0.6429(4) 1 0 0.0184(19) 
O3 O2- 4 e 0.9268(8) 0.0037(13) 0.7038(4) 1 0 0.0167(19) 
O4 O2- 4 e 0.6391(8) -0.0205(13) 0.6046(4) 1 0 0.0182(19) 
O5 O2- 4 e 0.5863(8) 0.1923(13) 0.7984(4) 1 0 0.0164(19) 
O6 O2- 4 e 0.2823(8) 0.2342(13) 0.6764(4) 1 0 0.021(2) 

loop_
_atom_site_aniso_label
_atom_site_aniso_type_symbol
_atom_site_aniso_U_11
_atom_site_aniso_U_22
_atom_site_aniso_U_33
_atom_site_aniso_U_12
_atom_site_aniso_U_13
_atom_site_aniso_U_23
As1 As3+ 0.0157(6) 0.0121(6) 0.0190(5) -0.0002(5) 0.0046(5) 0.0005(5)
As2 As3+ 0.0135(5) 0.0128(6) 0.0191(5) -0.0013(5) 0.0037(4) -0.0010(5)
Zn1 Zn2+ 0.0137(6) 0.0123(6) 0.0205(6) 0.0004(6) 0.0018(5) 0.0025(6)
Zn2 Zn2+ 0.0159(6) 0.0134(7) 0.0198(6) -0.0005(6) -0.0001(5) -0.0016(6)
Zn3 Zn2+ 0.0155(6) 0.0147(7) 0.0237(6) -0.0008(6) 0.0061(5) -0.0024(6)
O1 O2- 0.007(3) 0.035(5) 0.020(4) -0.006(3) 0.007(3) 0.002(4)
O2 O2- 0.011(4) 0.014(4) 0.030(4) -0.001(3) 0.002(3) -0.006(3)
O3 O2- 0.008(3) 0.012(4) 0.030(4) -0.006(3) 0.004(3) -0.001(3)
O4 O2- 0.015(4) 0.020(4) 0.022(4) 0.000(3) 0.011(3) 0.003(3)
O5 O2- 0.016(4) 0.013(4) 0.021(4) 0.010(3) 0.003(3) 0.004(3)
O6 O2- 0.022(4) 0.011(4) 0.032(4) 0.007(3) 0.007(3) 0.008(3)
#End of data_417004-ICSD


