data_172732-ICSD
#?2014 by Fachinformationszentrum Karlsruhe, and the U.S. Secretary of 
#Commerce on behalf of the United States.  All rights reserved.
_database_code_ICSD                172732
_audit_creation_date               2007/04/01
_chemical_name_systematic          'Dialuminium Silicate'
_chemical_formula_structural       'Al2 Si O5'
_chemical_formula_sum              'Al2 O5 Si1'
_chemical_name_mineral             Andalusite
_publ_section_title
;
Equations of state and structures of andalusite to 9.8 GPa and 
sillimanite to 8.5 GPa
;
loop_
_citation_id
_citation_journal_abbrev
_citation_year
_citation_journal_volume
_citation_journal_issue
_citation_page_first
_citation_page_last
_citation_journal_id_ASTM
primary 'American Mineralogist' 2006 91 2-3 319 326 AMMIAY
_publ_author_name
;
Burt, J.B.;Ross, N.L.;Angel, R.J.;Koch, M.
;
_cell_length_a                     7.5922(8)
_cell_length_b                     7.7600(5)
_cell_length_c                     5.4872(4)
_cell_angle_alpha                  90
_cell_angle_beta                   90
_cell_angle_gamma                  90
_cell_volume                       323.28
_cell_formula_units_Z              4
_symmetry_space_group_name_H-M     'P n n m'
_symmetry_Int_Tables_number        58
_refine_ls_R_factor_all            .05
loop_
_symmetry_equiv_pos_site_id
_symmetry_equiv_pos_as_xyz
  1	'x+.5, -y+.5, z+.5'
  2	'-x+.5, y+.5, z+.5'
  3	'x, y, -z'
  4	'-x, -y, -z'
  5	'-x+.5, y+.5, -z+.5'
  6	'x+.5, -y+.5, -z+.5'
  7	'-x, -y, z'
  8	'x, y, z'
loop_
_atom_type_symbol
_atom_type_oxidation_number
Al3+	3
O2-	-2
Si4+	4
loop_
_atom_site_label
_atom_site_type_symbol
_atom_site_symmetry_multiplicity
_atom_site_Wyckoff_symbol
_atom_site_fract_x
_atom_site_fract_y
_atom_site_fract_z
_atom_site_occupancy
_atom_site_attached_hydrogens
_atom_site_U_iso_or_equiv
Al1 Al3+ 4 e 0.0 0.0 0.2418(3) 1. 0 0.00355 
Al2 Al3+ 4 g 0.3693(3) 0.1378(2) 0.5 1. 0 0.00355 
Si1 Si4+ 4 g 0.2479(2) 0.24784(18) 0.0 1. 0 0.00355 
O1 O2- 4 g 0.4187(6) 0.3631(5) 0.5 1. 0 0.00418 
O2 O2- 4 g 0.4309(6) 0.3562(5) 0.0 1. 0 0.00469 
O3 O2- 4 g 0.1043(5) 0.4003(5) 0.0 1. 0 0.00975 
O4 O2- 8 h 0.2288(4) 0.1285(4) 0.2393(4) 1. 0 0.00418 

#End of data_172732-ICSD


