data_190466-ICSD
#?2014 by Fachinformationszentrum Karlsruhe, and the U.S. Secretary of 
#Commerce on behalf of the United States.  All rights reserved.
_database_code_ICSD                190466
_audit_creation_date               2014/08/01
_chemical_name_systematic          'Calcium Ruthenate(IV)'
_chemical_formula_structural       'Ca (Ru O3)'
_chemical_formula_sum              'Ca1 O3 Ru1'
_publ_section_title
;
Large in-plane deformation of Ru O6 octahedron and ferromagnetism of 
bulk Sr Ru O3
;
loop_
_citation_id
_citation_journal_abbrev
_citation_year
_citation_journal_volume
_citation_journal_issue
_citation_page_first
_citation_page_last
_citation_journal_id_ASTM
primary 'Journal of Physics: Condensed Matter' 2013 25 46 465601-1 465601-8 JCOMEL
_publ_author_name
;
Lee, Sanghyun;Zhang, J.R.;Torii, S.;Choi, Seongil;Cho, Deok-
Yong;Kamiyama, T.;Yu, Jaejun;McEwen, K.A.;Park, Je-Geun
;
_cell_length_a                     5.34567(2)
_cell_length_b                     5.53468(2)
_cell_length_c                     7.65253(3)
_cell_angle_alpha                  90.
_cell_angle_beta                   90.
_cell_angle_gamma                  90.
_cell_volume                       226.41
_cell_formula_units_Z              4
_symmetry_space_group_name_H-M     'P b n m'
_symmetry_Int_Tables_number        62
_refine_ls_R_factor_all            .0892
loop_
_symmetry_equiv_pos_site_id
_symmetry_equiv_pos_as_xyz
  1	'-x+.5, y+.5, z'
  2	'x, y, -z+.5'
  3	'x+.5, -y+.5, z+.5'
  4	'-x, -y, -z'
  5	'x+.5, -y+.5, -z'
  6	'-x, -y, z+.5'
  7	'-x+.5, y+.5, -z+.5'
  8	'x, y, z'
loop_
_atom_type_symbol
_atom_type_oxidation_number
Ca2+	2
O2-	-2
Ru4+	4
loop_
_atom_site_label
_atom_site_type_symbol
_atom_site_symmetry_multiplicity
_atom_site_Wyckoff_symbol
_atom_site_fract_x
_atom_site_fract_y
_atom_site_fract_z
_atom_site_occupancy
_atom_site_attached_hydrogens
Ca1 Ca2+ 4 c -0.01135(25) 0.05652(19) 0.250 1. 0 
Ru1 Ru4+ 4 b 0.5 0 0 1. 0 
O1 O2- 8 d 0.69824(13) 0.29829(12) 0.04899(8) 1. 0 
O2 O2- 4 c 0.09266(18) 0.47336(18) 0.250 1. 0 

#End of data_190466-ICSD


