data_64614-ICSD
#?2014 by Fachinformationszentrum Karlsruhe, and the U.S. Secretary of 
#Commerce on behalf of the United States.  All rights reserved.
_database_code_ICSD                64614
_audit_creation_date               1989/06/19
_audit_update_record               2004/10/01
_chemical_name_systematic          'Hexaaquazinc Hexabromodizincate'
_chemical_formula_structural       '(Zn (H2 O)6) (Zn2 Br6)'
_chemical_formula_sum              'H12 Br6 O6 Zn3'
_publ_section_title
;
Zinc bromide dihydrate Zn Br2 * 2(H2 O): a doublesalt structure.
;
loop_
_citation_id
_citation_journal_abbrev
_citation_year
_citation_journal_volume
_citation_page_first
_citation_page_last
_citation_journal_id_ASTM
primary 'Acta Crystallographica, Section C: Crystal Structure Communications'
 1988 44 1696 1698 ACSCEE
_publ_author_name
;
Duhlev, R.;Brown, I.D.;Faggiani, R.
;
_cell_length_a                     10.435(1)
_cell_length_b                     10.367(1)
_cell_length_c                     7.961(1)
_cell_angle_alpha                  90.
_cell_angle_beta                   90.
_cell_angle_gamma                  90.
_cell_volume                       861.22
_cell_formula_units_Z              2
_symmetry_space_group_name_H-M     'I m m m'
_symmetry_Int_Tables_number        71
_refine_ls_R_factor_all            .045
loop_
_symmetry_equiv_pos_site_id
_symmetry_equiv_pos_as_xyz
  1	'x, y, -z'
  2	'x, -y, z'
  3	'-x, y, z'
  4	'-x, -y, -z'
  5	'-x, -y, z'
  6	'-x, y, -z'
  7	'x, -y, -z'
  8	'x, y, z'
  9	'x+.5, y+.5, -z+.5'
 10	'x+.5, -y+.5, z+.5'
 11	'-x+.5, y+.5, z+.5'
 12	'-x+.5, -y+.5, -z+.5'
 13	'-x+.5, -y+.5, z+.5'
 14	'-x+.5, y+.5, -z+.5'
 15	'x+.5, -y+.5, -z+.5'
 16	'x+.5, y+.5, z+.5'
loop_
_atom_type_symbol
_atom_type_oxidation_number
Br1-	-1
H1+	1
O2-	-2
Zn2+	2
loop_
_atom_site_label
_atom_site_type_symbol
_atom_site_symmetry_multiplicity
_atom_site_Wyckoff_symbol
_atom_site_fract_x
_atom_site_fract_y
_atom_site_fract_z
_atom_site_occupancy
_atom_site_attached_hydrogens
Zn1 Zn2+ 4 h 0.5 0.1602(2) 0 1. 0 
Zn2 Zn2+ 2 a 0 0 0 1. 0 
Br1 Br1- 4 j 0.5 0 0.2318(3) 1. 0 
Br2 Br1- 8 n 0.3123(16) 0.28752(16) 0 1. 0 
O1 O2- 8 m 0.1425(12) 0 0.1768(16) 1. 0 
O2 O2- 4 g 0 0.2013(15) 0 1. 0 
H1 H1+ 16 o 0.163(10) 0.069(12) 0.219(16) 1. 0 
H2 H1+ 8 n 0.066(17) 0.237(19) 0 1. 0 

#End of data_64614-ICSD


