data_1434-ICSD
#?2014 by Fachinformationszentrum Karlsruhe, and the U.S. Secretary of 
#Commerce on behalf of the United States.  All rights reserved.
_database_code_ICSD                1434
_audit_creation_date               1986/10/22
_audit_update_record               2013/02/01
_chemical_name_systematic
;
Tetrazinc Bis(hexathiodiphosphate(V))hexathiodiphosphate(IV)
;
_chemical_formula_structural       'Zn4 (P2 S6)3'
_chemical_formula_sum              'P6 S18 Zn4'
_publ_section_title
;
Structure cristalline de Zn4 (P2 S6)3
;
loop_
_citation_id
_citation_journal_abbrev
_citation_year
_citation_journal_volume
_citation_page_first
_citation_page_last
_citation_journal_id_ASTM
primary 'Acta Crystallographica B (24,1968-38,1982)' 1978 34 384 387 ACBCAR
2
;
Comptes Rendus Hebdomadaires des Seances de l`Academie des Sciences, 
Serie C, Sciences Chimiques (1966-)
;
 1978 286 79 81 CHDCAQ
_publ_author_name
;
Bouchetiere, M.;Toffoli, P.;Khodadad, P.;Rodier, N.
;
_cell_length_a                     21.41(1)
_cell_length_b                     6.552(3)
_cell_length_c                     10.680(5)
_cell_angle_alpha                  90.
_cell_angle_beta                   90.
_cell_angle_gamma                  122.28(5)
_cell_volume                       1266.63
_cell_formula_units_Z              2
_symmetry_space_group_name_H-M     'B 1 1 2/m'
_symmetry_Int_Tables_number        12
_refine_ls_R_factor_all            .038
loop_
_symmetry_equiv_pos_site_id
_symmetry_equiv_pos_as_xyz
  1	'-x, -y, z'
  2	'-x, -y, -z'
  3	'x, y, -z'
  4	'x, y, z'
  5	'-x+.5, -y, z+.5'
  6	'-x+.5, -y, -z+.5'
  7	'x+.5, y, -z+.5'
  8	'x+.5, y, z+.5'
loop_
_atom_type_symbol
_atom_type_oxidation_number
P4+	4
P5+	5
S2-	-2
Zn2+	2
loop_
_atom_site_label
_atom_site_type_symbol
_atom_site_symmetry_multiplicity
_atom_site_Wyckoff_symbol
_atom_site_fract_x
_atom_site_fract_y
_atom_site_fract_z
_atom_site_occupancy
_atom_site_attached_hydrogens
Zn1 Zn2+ 8 j 0.3745(1) 0.4228(1) 0.3251(1) 1. 0 
S1 S2- 4 i 0.2595(1) 0.2211(4) 0 1. 0 
S2 S2- 4 i 0.0721(1) 0.3018(3) 0 1. 0 
S3 S2- 4 i 0.3970(1) 0.1787(4) 0 1. 0 
S4 S2- 8 j 0.4196(1) 0.1667(3) 0.3392(1) 1. 0 
S5 S2- 8 j 0.2468(1) 0.2467(3) 0.3397(2) 1. 0 
S6 S2- 8 j 0.0842(1) 0.3249(3) 0.3508(1) 1. 0 
P1 P5+ 4 i 0.3757(1) 0.4604(4) 0 1. 0 
P2 P4+ 4 i 0.0241(1) 0.6980(3) 0 1. 0 
P3 P5+ 4 i 0.2812(1) 0.9402(4) 0 1. 0 

#End of data_1434-ICSD


