data_15156-ICSD
#?2014 by Fachinformationszentrum Karlsruhe, and the U.S. Secretary of 
#Commerce on behalf of the United States.  All rights reserved.
_database_code_ICSD                15156
_audit_creation_date               1986/10/02
_chemical_name_systematic
;
Dicesium Dicalcium Tetrafluoroberyllate
;
_chemical_formula_structural       'Cs2 Ca2 (Be F4)3'
_chemical_formula_sum              'Be3 Ca2 Cs2 F12'
_publ_section_title
;
Etude d'orthofluoroberyllates Me(I)2 Me(II)2 (Be F4)3 de structure 
Langbeinite
;
loop_
_citation_id
_citation_journal_abbrev
_citation_year
_citation_journal_volume
_citation_page_first
_citation_page_last
_citation_journal_id_ASTM
primary 'Materials Research Bulletin' 1969 4 601 616 MRBUAC
_publ_author_name                  'le Fur, Y.;Aleonard, S.'
_cell_length_a                     10.672
_cell_length_b                     10.672
_cell_length_c                     10.672
_cell_angle_alpha                  90.
_cell_angle_beta                   90.
_cell_angle_gamma                  90.
_cell_volume                       1215.45
_cell_formula_units_Z              4
_symmetry_space_group_name_H-M     'P 21 3'
_symmetry_Int_Tables_number        198
_refine_ls_R_factor_all            .095
loop_
_symmetry_equiv_pos_site_id
_symmetry_equiv_pos_as_xyz
  1	'-z+.5, -x, y+.5'
  2	'-y+.5, -z, x+.5'
  3	'-x+.5, -y, z+.5'
  4	'-z, x+.5, -y+.5'
  5	'-y, z+.5, -x+.5'
  6	'-x, y+.5, -z+.5'
  7	'z+.5, -x+.5, -y'
  8	'y+.5, -z+.5, -x'
  9	'x+.5, -y+.5, -z'
 10	'z, x, y'
 11	'y, z, x'
 12	'x, y, z'
loop_
_atom_type_symbol
_atom_type_oxidation_number
Be2+	2
Ca2+	2
Cs1+	1
F1-	-1
loop_
_atom_site_label
_atom_site_type_symbol
_atom_site_symmetry_multiplicity
_atom_site_Wyckoff_symbol
_atom_site_fract_x
_atom_site_fract_y
_atom_site_fract_z
_atom_site_occupancy
_atom_site_attached_hydrogens
_atom_site_B_iso_or_equiv
Cs1 Cs1+ 4 a 0.066 0.066 0.066 1. 0 1.1 
Cs2 Cs1+ 4 a 0.297 0.297 0.297 1. 0 1.1 
Ca1 Ca2+ 4 a 0.579 0.579 0.579 1. 0 1.1 
Ca2 Ca2+ 4 a 0.849 0.849 0.849 1. 0 1.1 
Be1 Be2+ 12 b 0.625 0.467 0.268 1. 0 1.1 
F1 F1- 12 b 0.636 0.501 0.401 1. 0 1.1 
F2 F1- 12 b 0.757 0.476 0.196 1. 0 1.1 
F3 F1- 12 b 0.601 0.334 0.25 1. 0 1.1 
F4 F1- 12 b 0.522 0.56 0.206 1. 0 1.1 

#End of data_15156-ICSD


