data_422946-ICSD
#?2014 by Fachinformationszentrum Karlsruhe, and the U.S. Secretary of 
#Commerce on behalf of the United States.  All rights reserved.
_database_code_ICSD                422946
_audit_creation_date               2012/08/01
_audit_update_record               2013/08/01
_chemical_name_systematic
;
Lithium Potassium Zirconium Fluoride Hydrate (1/10/6/35/2)
;
_chemical_formula_structural       'Li K10 Zr6 F35 (H2 O)2'
_chemical_formula_sum              'H4 F35 K10 Li1 O2 Zr6'
_publ_section_title
;
Synthesis, crystal structure, NMR data and thermogravimetrical 
properties of novel zirconium fluoride Li K10 Zr6 F35 (H2 O)2
;
loop_
_citation_id
_citation_journal_abbrev
_citation_year
_citation_journal_volume
_citation_page_first
_citation_page_last
_citation_journal_id_ASTM
primary 'Journal of Fluorine Chemistry' 2011 132 1159 1164 JFLCAR
_publ_author_name
;
Gayvoronskaya, K. A.;Didenko, N.A.;Slobodyuk, A.B.;Gerasimenko, A. 
V.;Kavun, V.Ya.
;
_cell_length_a                     7.4807(2)
_cell_length_b                     10.9578(3)
_cell_length_c                     20.3820(6)
_cell_angle_alpha                  90.00
_cell_angle_beta                   97.1040(10)
_cell_angle_gamma                  90.00
_cell_volume                       1657.93
_cell_formula_units_Z              2
_symmetry_space_group_name_H-M     'P 1 21 1'
_symmetry_Int_Tables_number        4
_refine_ls_R_factor_all            .0261
loop_
_symmetry_equiv_pos_site_id
_symmetry_equiv_pos_as_xyz
  1	'-x, y+.5, -z'
  2	'x, y, z'
loop_
_atom_type_symbol
_atom_type_oxidation_number
F1-	-1
H1+	1
K1+	1
Li1+	1
O2-	-2
Zr4+	4
loop_
_atom_site_label
_atom_site_type_symbol
_atom_site_symmetry_multiplicity
_atom_site_Wyckoff_symbol
_atom_site_fract_x
_atom_site_fract_y
_atom_site_fract_z
_atom_site_occupancy
_atom_site_attached_hydrogens
_atom_site_U_iso_or_equiv
Zr1 Zr4+ 2 a -0.00869(5) -0.02986(3) -0.127871(16 1 0 0.00765(7) 
Zr2 Zr4+ 2 a 0.30024(4) 0.02631(3) 0.052835(15) 1 0 0.00726(6) 
Zr3 Zr4+ 2 a 0.72190(4) 0.01758(3) 0.200947(15) 1 0 0.00757(6) 
Zr4 Zr4+ 2 a -0.37609(4) 0.02964(3) -0.298257(16 1 0 0.00874(7) 
Zr5 Zr4+ 2 a 0.99693(4) 0.00665(3) 0.393779(16) 1 0 0.00863(7) 
Zr6 Zr4+ 2 a 1.29279(4) 0.01670(4) 0.551925(16) 1 0 0.00881(7) 
K1 K1+ 2 a 0.74518(11) 0.16977(8) 0.99322(4) 1 0 0.01471(15) 
K2 K1+ 2 a 0.11264(13) 0.17072(9) 0.71681(5) 1 0 0.01888(18) 
K3 K1+ 2 a 0.77491(14) 0.18968(9) 0.54228(5) 1 0 0.02032(19) 
K4 K1+ 2 a 0.28543(11) 0.17071(8) 0.26536(4) 1 0 0.01583(16) 
K5 K1+ 2 a 0.20746(12) 0.31819(9) 0.94852(4) 1 0 0.01675(18) 
K6 K1+ 2 a 0.50672(12) 0.36959(9) 0.12242(4) 1 0 0.01693(18) 
K7 K1+ 2 a 0.82707(12) 0.32342(8) 0.28771(4) 1 0 0.01624(17) 
K8 K1+ 2 a 0.19137(13) 0.34435(8) 0.44875(5) 1 0 0.0188(2) 
K9 K1+ 2 a 0.46289(12) 0.37936(9) 0.63139(4) 1 0 0.01754(18) 
K10 K1+ 2 a 0.77065(13) 0.32518(9) 0.80656(5) 1 0 0.02073(19) 
F1 F1- 2 a 0.1948(3) 0.0240(3) -0.05069(10) 1 0 0.0161(4) 
F2 F1- 2 a -0.1983(4) 0.0414(2) -0.20963(12) 1 0 0.0257(6) 
F3 F1- 2 a -0.1760(3) -0.0419(2) -0.05922(11) 1 0 0.0181(5) 
F4 F1- 2 a 0.1696(3) -0.0092(2) -0.19406(11) 1 0 0.0173(5) 
F5 F1- 2 a -0.1562(3) -0.1740(2) -0.16756(11) 1 0 0.0181(5) 
F6 F1- 2 a 0.1429(3) -0.1828(2) -0.10180(11) 1 0 0.0146(5) 
F7 F1- 2 a -0.0270(3) 0.1539(2) -0.11971(12) 1 0 0.0228(6) 
F8 F1- 2 a 0.5123(3) -0.0399(2) 0.12567(10) 1 0 0.0135(5) 
F9 F1- 2 a 0.4438(3) 0.1781(2) 0.04441(11) 1 0 0.0161(5) 
F10 F1- 2 a 0.1570(3) -0.1263(2) 0.06031(12) 1 0 0.0180(5) 
F11 F1- 2 a 0.4780(4) -0.0651(3) 0.00479(12) 1 0 0.0271(6) 
F12 F1- 2 a 0.0904(3) 0.1483(2) 0.03957(11) 1 0 0.0144(5) 
F13 F1- 2 a 0.2263(3) 0.0611(2) 0.14483(11) 1 0 0.0150(5) 
F14 F1- 2 a 0.8086(3) 0.0186(3) 0.30752(10) 1 0 0.0210(5) 
F15 F1- 2 a 0.5907(3) 0.1750(2) 0.20577(12) 1 0 0.0179(5) 
F16 F1- 2 a 0.8612(3) -0.1396(2) 0.20220(12) 1 0 0.0215(5) 
F17 F1- 2 a 0.5241(3) -0.0596(3) 0.24724(12) 1 0 0.0270(6) 
F18 F1- 2 a 0.8118(3) 0.0453(2) 0.11154(10) 1 0 0.0156(5) 
F19 F1- 2 a 0.9425(3) 0.1298(2) 0.21826(11) 1 0 0.0152(5) 
F20 F1- 2 a -0.6507(3) 0.0538(2) -0.34182(11) 1 0 0.0219(6) 
F21 F1- 2 a -0.4168(3) -0.0059(2) -0.40113(10) 1 0 0.0153(5) 
F22 F1- 2 a -0.2570(3) 0.1838(2) -0.32553(12) 1 0 0.0228(5) 
F23 F1- 2 a -0.4855(3) -0.1138(2) -0.26037(12) 1 0 0.0206(5) 
F24 F1- 2 a -0.4961(3) 0.1497(2) -0.23940(13) 1 0 0.0258(6) 
F25 F1- 2 a -0.1665(3) -0.0750(3) -0.31463(12) 1 0 0.0271(6) 
F26 F1- 2 a 1.1469(4) 0.1130(2) 0.47058(12) 1 0 0.0244(6) 
F27 F1- 2 a 1.1006(3) -0.0959(2) 0.48004(11) 1 0 0.0153(5) 
F28 F1- 2 a 1.2020(3) -0.0382(2) 0.34523(12) 1 0 0.0214(5) 
F29 F1- 2 a 0.7864(3) 0.0351(2) 0.44359(11) 1 0 0.0190(5) 
F30 F1- 2 a 1.0208(3) 0.1779(2) 0.36109(11) 1 0 0.0203(5) 
F31 F1- 2 a 0.9036(3) -0.1658(2) 0.37768(12) 1 0 0.0203(5) 
F32 F1- 2 a 1.0526(3) 0.0450(2) 0.58401(11) 1 0 0.0217(5) 
F33 F1- 2 a 1.4339(3) -0.0386(3) 0.48056(12) 1 0 0.0301(6) 
F34 F1- 2 a 1.2888(3) -0.1537(2) 0.58995(12) 1 0 0.0224(5) 
F35 F1- 2 a 1.4037(3) 0.1849(2) 0.55381(12) 1 0 0.0198(5) 
O1 O2- 2 a 0.4486(4) 0.1850(3) 0.39046(16) 1 0 0.0281(7) 
H1 H1+ 2 a 0.5574 0.2198 0.3975 1 0 0.042 
H2 H1+ 2 a 0.4748 0.1261 0.4288 1 0 0.042 
O2 O2- 2 a 0.4809(5) 0.1566(4) 0.88459(17) 1 0 0.0341(9) 
H3 H1+ 2 a 0.4570 0.1436 0.8416 1 0 0.051 
H4 H1+ 2 a 0.3677 0.1198 0.8886 1 0 0.051 
Li1 Li1+ 2 a 0.0146(9) 0.1700(7) 0.1301(3) 1 0 0.0154(13) 

loop_
_atom_site_aniso_label
_atom_site_aniso_type_symbol
_atom_site_aniso_U_11
_atom_site_aniso_U_22
_atom_site_aniso_U_33
_atom_site_aniso_U_12
_atom_site_aniso_U_13
_atom_site_aniso_U_23
Zr1 Zr4+ 0.00731(16) 0.00910(16) 0.00636(15) 0.00037(13) 0.00008(12) 
-0.00004(12)
Zr2 Zr4+ 0.00680(14) 0.00874(15) 0.00618(14) 0.00037(13) 0.00058(10) 
-0.00035(12)
Zr3 Zr4+ 0.00775(14) 0.00919(14) 0.00573(14) -0.00056(14) 0.00064(10) 
-0.00042(13)
Zr4 Zr4+ 0.00917(15) 0.00945(17) 0.00716(14) -0.00063(14) -0.00077(11) 
0.00060(13)
Zr5 Zr4+ 0.00798(15) 0.01034(16) 0.00738(14) -0.00075(13) 0.00013(11) 
0.00045(14)
Zr6 Zr4+ 0.00906(15) 0.01094(15) 0.00625(13) -0.00027(14) 0.00022(11) 
0.00059(14)
K1 K1+ 0.0134(4) 0.0170(4) 0.0138(4) 0.0001(3) 0.0019(3) -0.0007(3)
K2 K1+ 0.0215(4) 0.0165(4) 0.0197(4) 0.0046(4) 0.0066(3) 0.0025(4)
K3 K1+ 0.0242(5) 0.0170(4) 0.0207(5) -0.0019(4) 0.0068(4) 0.0010(4)
K4 K1+ 0.0137(4) 0.0209(4) 0.0126(4) -0.0024(3) 0.0001(3) 0.0016(3)
K5 K1+ 0.0149(4) 0.0189(4) 0.0157(4) -0.0025(3) -0.0011(3) 0.0033(3)
K6 K1+ 0.0162(4) 0.0214(4) 0.0128(4) 0.0033(3) 0.0007(3) -0.0005(3)
K7 K1+ 0.0153(4) 0.0159(4) 0.0167(4) 0.0021(3) -0.0011(3) 0.0024(3)
K8 K1+ 0.0234(5) 0.0138(4) 0.0206(5) -0.0035(3) 0.0081(4) -0.0008(3)
K9 K1+ 0.0136(4) 0.0265(5) 0.0126(4) -0.0021(4) 0.0018(3) -0.0043(3)
K10 K1+ 0.0193(4) 0.0206(4) 0.0207(5) 0.0060(4) -0.0041(4) -0.0058(4)
F1 F1- 0.0169(11) 0.0187(11) 0.0114(10) 0.0012(9) -0.0037(8) -0.0017(9)
F2 F1- 0.0316(14) 0.0223(14) 0.0187(12) 0.0032(12) -0.0144(10) -0.0044(11)
F3 F1- 0.0161(12) 0.0211(12) 0.0183(12) -0.0023(10) 0.0072(9) -0.0032(10)
F4 F1- 0.0173(11) 0.0211(13) 0.0145(10) -0.0002(9) 0.0063(9) 0.0035(9)
F5 F1- 0.0175(11) 0.0141(11) 0.0209(12) -0.0029(9) -0.0047(9) -0.0042(10)
F6 F1- 0.0138(11) 0.0113(10) 0.0180(12) 0.0019(9) -0.0005(9) 0.0016(9)
F7 F1- 0.0301(14) 0.0109(11) 0.0235(13) 0.0007(10) -0.0123(11) -0.0016(9)
F8 F1- 0.0097(11) 0.0194(12) 0.0109(11) 0.0013(9) -0.0010(8) -0.0006(9)
F9 F1- 0.0129(11) 0.0152(11) 0.0209(12) -0.0052(9) 0.0047(9) 0.0018(10)
F10 F1- 0.0200(12) 0.0158(11) 0.0179(12) -0.0063(10) 0.0018(10) -0.0017(9)
F11 F1- 0.0212(13) 0.0468(17) 0.0129(12) 0.0204(12) 0.0008(10) -0.0071(11)
F12 F1- 0.0118(11) 0.0186(11) 0.0130(11) 0.0053(9) 0.0020(8) 0.0014(9)
F13 F1- 0.0167(11) 0.0173(11) 0.0112(10) 0.0031(9) 0.0028(9) 0.0007(9)
F14 F1- 0.0158(11) 0.0343(13) 0.0117(10) -0.0088(12) -0.0030(8) 0.0041(11)
F15 F1- 0.0150(11) 0.0158(11) 0.0228(13) 0.0036(9) 0.0017(9) -0.0048(10)
F16 F1- 0.0262(14) 0.0154(12) 0.0233(13) 0.0076(10) 0.0042(11) 0.0033(10)
F17 F1- 0.0216(13) 0.0468(17) 0.0122(12) -0.0214(12) 0.0001(10) 0.0049(11)
F18 F1- 0.0167(11) 0.0201(12) 0.0101(10) -0.0050(9) 0.0028(8) -0.0013(9)
F19 F1- 0.0115(11) 0.0222(12) 0.0124(11) -0.0055(9) 0.0028(9) -0.0036(9)
F20 F1- 0.0136(11) 0.0422(16) 0.0099(11) 0.0086(11) 0.0010(8) -0.0047(10)
F21 F1- 0.0138(11) 0.0219(13) 0.0096(9) 0.0040(9) -0.0007(8) -0.0025(9)
F22 F1- 0.0263(13) 0.0199(12) 0.0221(13) -0.0092(11) 0.0028(10) 0.0035(10)
F23 F1- 0.0158(12) 0.0195(12) 0.0257(14) -0.0061(10) -0.0007(10) 0.0087(10)
F24 F1- 0.0214(13) 0.0278(14) 0.0275(14) 0.0026(11) 0.0008(11) -0.0143(11)
F25 F1- 0.0175(13) 0.0468(17) 0.0169(12) 0.0162(12) 0.0022(10) 0.0002(12)
F26 F1- 0.0347(16) 0.0158(12) 0.0191(13) -0.0059(11) -0.0113(12) 0.0035(10)
F27 F1- 0.0201(12) 0.0099(10) 0.0148(11) -0.0011(9) -0.0018(9) -0.0002(9)
F28 F1- 0.0169(12) 0.0236(12) 0.0249(13) 0.0023(10) 0.0080(10) -0.0015(10)
F29 F1- 0.0133(10) 0.0276(13) 0.0166(11) 0.0004(10) 0.0038(8) -0.0036(10)
F30 F1- 0.0266(13) 0.0139(11) 0.0173(12) 0.0006(10) -0.0093(10) 0.0004(10)
F31 F1- 0.0230(13) 0.0163(12) 0.0210(12) -0.0036(10) 0.0006(10) -0.0056(10)
F32 F1- 0.0128(10) 0.0330(15) 0.0190(12) 0.0034(10) 0.0011(9) -0.0067(10)
F33 F1- 0.0180(13) 0.0569(19) 0.0161(12) -0.0008(12) 0.0046(10) -0.0145(12)
F34 F1- 0.0244(13) 0.0185(12) 0.0229(13) -0.0018(10) -0.0023(10) 0.0097(10)
F35 F1- 0.0203(12) 0.0137(11) 0.0231(13) -0.0050(10) -0.0065(10) 
-0.0005(10)
O1 O2- 0.0212(16) 0.035(2) 0.0268(17) -0.0053(15) -0.0027(13) 0.0040(15)
O2 O2- 0.035(2) 0.051(3) 0.0140(15) -0.0091(18) -0.0061(14) -0.0030(16)
Li1 Li1+ 0.018(3) 0.017(3) 0.013(3) -0.001(3) 0.006(3) -0.001(3)
#End of data_422946-ICSD


