data_183654-ICSD
#?2014 by Fachinformationszentrum Karlsruhe, and the U.S. Secretary of 
#Commerce on behalf of the United States.  All rights reserved.
_database_code_ICSD                183654
_audit_creation_date               2012/08/01
_chemical_name_systematic
;
Silver Dibarium Indium Tetrasulfide
;
_chemical_formula_structural       'Ag Ba2 In S4'
_chemical_formula_sum              'Ag1 Ba2 In1 S4'
_publ_section_title
;
Ba2 Ag In S4 and Ba4 M Ga5 Se12 (M = Ag, Li): syntheses, structures 
and optical properties
;
loop_
_citation_id
_citation_journal_abbrev
_citation_year
_citation_journal_volume
_citation_page_first
_citation_page_last
_citation_journal_id_ASTM
primary 'Dalton Transactions' 2012 41 2272 2276 DTARAF
_publ_author_name
;
Yin, Wen Long;Feng, Kai;Mei, Da Jiang;Yao, Ji Yong;Fu, Pei Zhen;Wu, 
Yi Cheng
;
_cell_length_a                     8.3434(17)
_cell_length_b                     7.2579(15)
_cell_length_c                     14.544(5)
_cell_angle_alpha                  90.00
_cell_angle_beta                   106.80(3)
_cell_angle_gamma                  90.00
_cell_volume                       843.13
_cell_formula_units_Z              4
_symmetry_space_group_name_H-M     'P 1 21/c 1'
_symmetry_Int_Tables_number        14
_refine_ls_R_factor_all            .0358
loop_
_symmetry_equiv_pos_site_id
_symmetry_equiv_pos_as_xyz
  1	'x, -y+.5, z+.5'
  2	'-x, -y, -z'
  3	'-x, y+.5, -z+.5'
  4	'x, y, z'
loop_
_atom_type_symbol
_atom_type_oxidation_number
Ag1+	1
Ba2+	2
In3+	3
S2-	-2
loop_
_atom_site_label
_atom_site_type_symbol
_atom_site_symmetry_multiplicity
_atom_site_Wyckoff_symbol
_atom_site_fract_x
_atom_site_fract_y
_atom_site_fract_z
_atom_site_occupancy
_atom_site_attached_hydrogens
_atom_site_U_iso_or_equiv
Ba1 Ba2+ 4 e 0.05506(5) 0.34369(5) 0.35764(3) 1 0 0.00666(11) 
Ba2 Ba2+ 4 e 0.55529(5) 0.34201(5) 0.36414(3) 1 0 0.00619(11) 
In1 In3+ 4 e 0.18682(6) 0.31889(7) 0.12252(3) 1 0 0.00588(12) 
Ag1 Ag1+ 4 e 0.67786(8) 0.36708(12) 0.10066(5) 1 0 0.0395(2) 
S1 S2- 4 e 0.10119(19) 0.7434(2) 0.46962(11) 1 0 0.0082(3) 
S2 S2- 4 e 0.2447(2) 0.5756(2) 0.23330(11) 1 0 0.0069(3) 
S3 S2- 4 e 0.2560(2) 0.0771(2) 0.25310(10) 1 0 0.0064(3) 
S4 S2- 4 e 0.38154(19) 0.2495(2) 0.02863(11) 1 0 0.0083(3) 

loop_
_atom_site_aniso_label
_atom_site_aniso_type_symbol
_atom_site_aniso_U_11
_atom_site_aniso_U_22
_atom_site_aniso_U_33
_atom_site_aniso_U_12
_atom_site_aniso_U_13
_atom_site_aniso_U_23
Ba1 Ba2+ 0.0059(2) 0.0067(2) 0.00726(18) 0.00023(15) 0.00182(14) 
-0.00002(14)
Ba2 Ba2+ 0.0050(2) 0.0067(2) 0.00665(18) -0.00041(14) 0.00144(14) 
-0.00035(13)
In1 In3+ 0.0056(2) 0.0059(2) 0.0059(2) -0.00048(18) 0.00123(16) 
-0.00107(16)
Ag1 Ag1+ 0.0124(3) 0.0688(6) 0.0385(4) -0.0102(3) 0.0093(3) -0.0442(4)
S1 S2- 0.0045(7) 0.0110(8) 0.0086(7) 0.0002(6) 0.0012(6) 0.0016(6)
S2 S2- 0.0083(8) 0.0042(8) 0.0078(7) 0.0005(6) 0.0018(6) 0.0000(5)
S3 S2- 0.0085(8) 0.0043(8) 0.0058(6) 0.0001(6) 0.0009(6) -0.0002(6)
S4 S2- 0.0067(7) 0.0112(8) 0.0071(7) 0.0006(7) 0.0022(6) -0.0007(6)
#End of data_183654-ICSD


