data_97561-ICSD
#?2014 by Fachinformationszentrum Karlsruhe, and the U.S. Secretary of 
#Commerce on behalf of the United States.  All rights reserved.
_database_code_ICSD                97561
_audit_creation_date               2004/10/01
_chemical_name_systematic
;
Potassium Diholmium Copper(I) Sulfide
;
_chemical_formula_structural       'K Ho2 Cu S4'
_chemical_formula_sum              'Cu1 Ho2 K1 S4'
_publ_section_title
;
Syntheses, structures, physical properties and electronic structures 
of K Ln2 Cu S4 (Ln = Dy, Nd, Sm, Tb, Ho) and K2 Ln4 Cu4 S9 (Ln = Dy, 
Ho)
;
loop_
_citation_id
_citation_journal_abbrev
_citation_year
_citation_journal_volume
_citation_page_first
_citation_page_last
_citation_journal_id_ASTM
primary 'Journal of Solid State Chemistry' 2003 176 5 12 JSSCBI
_publ_author_name
;
Yao, J.-Y.;Deng, B.;Ellis, D.E.;Ibers, J.A.
;
_cell_length_a                     3.9378(3)
_cell_length_b                     13.3330(11)
_cell_length_c                     13.6487(11)
_cell_angle_alpha                  90
_cell_angle_beta                   90
_cell_angle_gamma                  90
_cell_volume                       716.59
_cell_formula_units_Z              4
_symmetry_space_group_name_H-M     'C m c m'
_symmetry_Int_Tables_number        63
_refine_ls_R_factor_all            .0181
loop_
_symmetry_equiv_pos_site_id
_symmetry_equiv_pos_as_xyz
  1	'-x, y, -z+.5'
  2	'-x, -y, z+.5'
  3	'-x, y, z'
  4	'-x, -y, -z'
  5	'x, -y, z+.5'
  6	'x, y, -z+.5'
  7	'x, -y, -z'
  8	'x, y, z'
  9	'-x+.5, y+.5, -z+.5'
 10	'-x+.5, -y+.5, z+.5'
 11	'-x+.5, y+.5, z'
 12	'-x+.5, -y+.5, -z'
 13	'x+.5, -y+.5, z+.5'
 14	'x+.5, y+.5, -z+.5'
 15	'x+.5, -y+.5, -z'
 16	'x+.5, y+.5, z'
loop_
_atom_type_symbol
_atom_type_oxidation_number
Cu1+	1
Ho3+	3
K1+	1
S2-	-2
loop_
_atom_site_label
_atom_site_type_symbol
_atom_site_symmetry_multiplicity
_atom_site_Wyckoff_symbol
_atom_site_fract_x
_atom_site_fract_y
_atom_site_fract_z
_atom_site_occupancy
_atom_site_attached_hydrogens
_atom_site_U_iso_or_equiv
K1 K1+ 4 c 0 0.10995(12) 0.250 1. 0 0.0105(3) 
Ho1 Ho3+ 8 f 0 0.365900(16) 0.063193(15) 1. 0 0.0053(1) 
Cu1 Cu1+ 4 c 0 0.83730(7) 0.250 1. 0 0.0078(2) 
S1 S2- 4 c 0 0.43255(13) 0.250 1. 0 0.0058(3) 
S2 S2- 8 f 0 0.26409(9) 0.61017(9) 1. 0 0.0061(2) 
S3 S2- 4 a 0 0 0 1. 0 0.0078(3) 

#End of data_97561-ICSD


