data_78449-ICSD
#?2014 by Fachinformationszentrum Karlsruhe, and the U.S. Secretary of 
#Commerce on behalf of the United States.  All rights reserved.
_database_code_ICSD                78449
_audit_creation_date               1996/04/22
_audit_update_record               2006/04/01
_chemical_name_systematic          'Dipotassium Tetrabromozincate - Lt'
_chemical_formula_structural       'K2 (Zn Br4)'
_chemical_formula_sum              'Br4 K2 Zn1'
_publ_section_title
;
A study of the mechanism of the ferroelectric transition in 
monoclinic K2 Zn Br4
;
loop_
_citation_id
_citation_journal_abbrev
_citation_year
_citation_journal_volume
_citation_page_first
_citation_page_last
_citation_journal_id_ASTM
primary 'Journal of Physics: Condensed Matter' 1994 6 5751 5760 JCOMEL
2 'Golden Book of Phase Transitions, Wroclaw' 2002 1 1 123 GBOPT5
_publ_author_name
;
Jochum, M.;Unruh, H.G.;Baernighausen, H.
;
_cell_length_a                     9.012(2)
_cell_length_b                     7.431(2)
_cell_length_c                     7.223(2)
_cell_angle_alpha                  90.
_cell_angle_beta                   108.76(2)
_cell_angle_gamma                  90.
_cell_volume                       458.01
_cell_formula_units_Z              2
_symmetry_space_group_name_H-M     'P 1 21 1'
_symmetry_Int_Tables_number        4
_refine_ls_R_factor_all            .0135
loop_
_symmetry_equiv_pos_site_id
_symmetry_equiv_pos_as_xyz
  1	'-x, y+.5, -z'
  2	'x, y, z'
loop_
_atom_type_symbol
_atom_type_oxidation_number
Br1-	-1
K1+	1
Zn2+	2
loop_
_atom_site_label
_atom_site_type_symbol
_atom_site_symmetry_multiplicity
_atom_site_Wyckoff_symbol
_atom_site_fract_x
_atom_site_fract_y
_atom_site_fract_z
_atom_site_occupancy
_atom_site_attached_hydrogens
K1 K1+ 2 a 0.04869(9) 0.22865(14) 0.71034(13) 1. 0 
K2 K1+ 2 a 0.57160(9) 0.22698(14) 0.77423(13) 1. 0 
Zn1 Zn2+ 2 a 0.20433(4) 0.25 0.27990(6) 1. 0 
Br1 Br1- 2 a -.07053(4) 0.27107(9) 0.10043(6) 1. 0 
Br2 Br1- 2 a 0.36919(4) 0.26528(10) 0.07837(6) 1. 0 
Br3 Br1- 2 a 0.25949(5) -.01197(9) 0.48637(6) 1. 0 
Br4 Br1- 2 a 0.26861(5) 0.49310(8) 0.51489(6) 1. 0 

#End of data_78449-ICSD


