data_69658-ICSD
#?2014 by Fachinformationszentrum Karlsruhe, and the U.S. Secretary of 
#Commerce on behalf of the United States.  All rights reserved.
_database_code_ICSD                69658
_audit_creation_date               1994/01/19
_chemical_name_systematic          'Calcium Chlorotrioxosulfate'
_chemical_formula_structural       'Ca (S O3 Cl)2'
_chemical_formula_sum              'Ca1 Cl2 O6 S2'
_publ_section_title
;
Zur Bildung und Struktur von Calciumchlorosulfat Ca(SO3Cl)2
;
loop_
_citation_id
_citation_journal_abbrev
_citation_year
_citation_journal_volume
_citation_page_first
_citation_page_last
_citation_journal_id_ASTM
primary 'Zeitschrift fuer Anorganische und Allgemeine Chemie (1950) (DE)'
 1990 585 204 208 ZAACAB
_publ_author_name
;
Troyanov, S.I.;Rybakov, V.B.;Kemnitz, E.;Hass, D.;Worzala, H.
;
_cell_length_a                     9.182(2)
_cell_length_b                     17.269(3)
_cell_length_c                     10.250(2)
_cell_angle_alpha                  90.
_cell_angle_beta                   90.
_cell_angle_gamma                  90.
_cell_volume                       1625.28
_cell_formula_units_Z              8
_symmetry_space_group_name_H-M     'P b c a'
_symmetry_Int_Tables_number        61
_refine_ls_R_factor_all            .048
loop_
_symmetry_equiv_pos_site_id
_symmetry_equiv_pos_as_xyz
  1	'x+.5, y, -z+.5'
  2	'x, -y+.5, z+.5'
  3	'-x+.5, y+.5, z'
  4	'-x, -y, -z'
  5	'-x+.5, -y, z+.5'
  6	'-x, y+.5, -z+.5'
  7	'x+.5, -y+.5, -z'
  8	'x, y, z'
loop_
_atom_type_symbol
_atom_type_oxidation_number
Ca2+	2
Cl1-	-1
O2-	-2
S6+	6
loop_
_atom_site_label
_atom_site_type_symbol
_atom_site_symmetry_multiplicity
_atom_site_Wyckoff_symbol
_atom_site_fract_x
_atom_site_fract_y
_atom_site_fract_z
_atom_site_occupancy
_atom_site_attached_hydrogens
_atom_site_B_iso_or_equiv
Ca1 Ca2+ 8 c 0.3608(3) 0.1282(1) 0.0973(3) 1. 0 1.26(4) 
S1 S6+ 8 c 0.5318(3) 0.2532(2) 0.8510(3) 1. 0 1.57(5) 
S2 S6+ 8 c 0.2217(4) 0.0312(2) 0.3873(3) 1. 0 1.85(6) 
Cl1 Cl1- 8 c 0.6187(5) 0.1680(2) 0.7429(5) 1. 0 4.07(1) 
Cl2 Cl1- 8 c 0.1430(5) -.0836(3) 0.0121(4) 1. 0 4.7(1) 
O1 O2- 8 c 0.456(1) 0.2151(5) -.048(1) 1. 0 3.1(2) 
O2 O2- 8 c 0.153(1) 0.2010(5) 0.106(1) 1. 0 2.8(2) 
O3 O2- 8 c 0.439(1) 0.2075(5) 0.2632(9) 1. 0 3.0(2) 
O4 O2- 8 c 0.286(1) 0.0408(5) 0.260(1) 1. 0 3.4(2) 
O5 O2- 8 c 0.280(1) 0.0486(5) -.0691(8) 1. 0 2.2(2) 
O6 O2- 8 c 0.587(1) 0.0697(6) 0.095(1) 1. 0 3.9(2) 

#End of data_69658-ICSD


