data_33894-ICSD
#?2014 by Fachinformationszentrum Karlsruhe, and the U.S. Secretary of 
#Commerce on behalf of the United States.  All rights reserved.
_database_code_ICSD                33894
_audit_creation_date               1992/01/20
_chemical_name_systematic          'Dipotassium Tripalladium Selenide'
_chemical_formula_structural       'K2 Pd3 Se4'
_chemical_formula_sum              'K2 Pd3 Se4'
_publ_section_title
;
Schichtstrukturen ternaerer Chalkogenide A2M3X4 (A = K, Rb, Cs; M = 
Ni, Pd, Pt; X = S, Se)
;
loop_
_citation_id
_citation_journal_abbrev
_citation_year
_citation_journal_volume
_citation_page_first
_citation_page_last
_citation_journal_id_ASTM
primary 'Zeitschrift fuer Anorganische und Allgemeine Chemie (1950) (DE)'
 1991 597 27 32 ZAACAB
_publ_author_name                  'Bronger, W.;Rennau, R.;Schmitz, D.'
_cell_length_a                     10.958(2)
_cell_length_b                     26.391(4)
_cell_length_c                     6.307(2)
_cell_angle_alpha                  90.
_cell_angle_beta                   90.
_cell_angle_gamma                  90.
_cell_volume                       1823.94
_cell_formula_units_Z              8
_symmetry_space_group_name_H-M     'F d d d Z'
_symmetry_Int_Tables_number        70
_refine_ls_R_factor_all            .042
loop_
_symmetry_equiv_pos_site_id
_symmetry_equiv_pos_as_xyz
  1	'x+.75, y+.75, -z'
  2	'x+.75, -y, z+.75'
  3	'-x, y+.75, z+.75'
  4	'-x, -y, -z'
  5	'-x+.25, -y+.25, z'
  6	'-x+.25, y, -z+.25'
  7	'x, -y+.25, -z+.25'
  8	'x, y, z'
  9	'x+.75, y+.25, -z+.5'
 10	'x+.25, y+.75, -z+.5'
 11	'x+.25, y+.25, -z'
 12	'x+.75, -y+.5, z+.25'
 13	'x+.25, -y, z+.25'
 14	'x+.25, -y+.5, z+.75'
 15	'-x, y+.25, z+.25'
 16	'-x+.5, y+.75, z+.25'
 17	'-x+.5, y+.25, z+.75'
 18	'-x, -y+.5, -z+.5'
 19	'-x+.5, -y, -z+.5'
 20	'-x+.5, -y+.5, -z'
 21	'-x+.25, -y+.75, z+.5'
 22	'-x+.75, -y+.25, z+.5'
 23	'-x+.75, -y+.75, z'
 24	'-x+.25, y+.5, -z+.75'
 25	'-x+.75, y, -z+.75'
 26	'-x+.75, y+.5, -z+.25'
 27	'x, -y+.75, -z+.75'
 28	'x+.5, -y+.25, -z+.75'
 29	'x+.5, -y+.75, -z+.25'
 30	'x, y+.5, z+.5'
 31	'x+.5, y, z+.5'
 32	'x+.5, y+.5, z'
loop_
_atom_type_symbol
_atom_type_oxidation_number
K1+	1
Pd2+	2
Se2-	-2
loop_
_atom_site_label
_atom_site_type_symbol
_atom_site_symmetry_multiplicity
_atom_site_Wyckoff_symbol
_atom_site_fract_x
_atom_site_fract_y
_atom_site_fract_z
_atom_site_occupancy
_atom_site_attached_hydrogens
K1 K1+ 16 f 0.125 0.6998(2) 0.125 1. 0 
Pd1 Pd2+ 8 a 0.125 0.125 0.125 1. 0 
Pd2 Pd2+ 16 f 0.125 0.37417(5) 0.125 1. 0 
Se1 Se2- 32 h 0.2915(1) 0.06200(4) 0.1193(2) 1. 0 

loop_
_atom_site_aniso_label
_atom_site_aniso_type_symbol
_atom_site_aniso_U_11
_atom_site_aniso_U_22
_atom_site_aniso_U_33
_atom_site_aniso_U_12
_atom_site_aniso_U_13
_atom_site_aniso_U_23
K1 K1+ 0.032(2) 0.019(1) 0.033(2) 0 0.000(2) 0
Pd1 Pd2+ 0.0136(5) 0.0128(5) 0.0161(6) 0 0 0
Pd2 Pd2+ 0.0153(5) 0.0138(5) 0.0140(3) 0 0.0009(4) 0
Se1 Se2- 0.0184(4) 0.0131(3) 0.0183(4) -.0001(3) 0.0002(5) -.0002(5)
#End of data_33894-ICSD


