data_34008-ICSD
#?2014 by Fachinformationszentrum Karlsruhe, and the U.S. Secretary of 
#Commerce on behalf of the United States.  All rights reserved.
_database_code_ICSD                34008
_audit_creation_date               1980/01/01
_audit_update_record               1998/06/26
_chemical_name_systematic
;
Potassium Magnesium Borate Hydrate *
;
_chemical_formula_structural       'H K Mg2 B12 O16 (O H)10 (H2 O)4'
_chemical_formula_sum              'H19 B12 K1 Mg2 O30'
_chemical_name_mineral             Kaliborite
_publ_section_title
;
The crystal structure of kaliborite
;
loop_
_citation_id
_citation_journal_abbrev
_citation_year
_citation_journal_volume
_citation_page_first
_citation_page_last
_citation_journal_id_ASTM
primary
;
Atti della Accademia Nazionale dei Lincei, Classe di Scienze Fisiche, 
Matematiche e Naturali, Rendiconti, Serie 8 (1, 1946-)
;
 1966 41 527 552 AANL8V
_publ_author_name                  'Corazza, E.;Sabelli, C.'
_cell_length_a                     18.53(3)
_cell_length_b                     8.43(2)
_cell_length_c                     14.665(7)
_cell_angle_alpha                  90.
_cell_angle_beta                   100.13(12)
_cell_angle_gamma                  90.
_cell_volume                       2255.08
_cell_formula_units_Z              4
_symmetry_space_group_name_H-M     'C 1 2/c 1'
_symmetry_Int_Tables_number        15
_refine_ls_R_factor_all            .095
loop_
_symmetry_equiv_pos_site_id
_symmetry_equiv_pos_as_xyz
  1	'x, -y, z+.5'
  2	'-x, -y, -z'
  3	'-x, y, -z+.5'
  4	'x, y, z'
  5	'x+.5, -y+.5, z+.5'
  6	'-x+.5, -y+.5, -z'
  7	'-x+.5, y+.5, -z+.5'
  8	'x+.5, y+.5, z'
loop_
_atom_type_symbol
_atom_type_oxidation_number
B3+	3
H1+	1
K1+	1
Mg2+	2
O2-	-2
loop_
_atom_site_label
_atom_site_type_symbol
_atom_site_symmetry_multiplicity
_atom_site_Wyckoff_symbol
_atom_site_fract_x
_atom_site_fract_y
_atom_site_fract_z
_atom_site_occupancy
_atom_site_attached_hydrogens
_atom_site_B_iso_or_equiv
K1 K1+ 4 e 0 0.1185(3) 0.25 1. 0 2.15 
Mg1 Mg2+ 8 f 0.1382(1) 0.4235(3) 0.1671(1) 1. 0 1.14 
O1 O2- 8 f 0.0134(2) 0.7312(7) 0.0241(3) 1. 0 1.35 
O2 O2- 8 f 0.0361(2) 0.7349(6) 0.1891(3) 1. 0 0.94 
O3 O2- 8 f 0.1170(2) 0.8729(6) 0.1055(3) 1. 0 1.12 
O4 O2- 8 f 0.3765(2) 0.4001(7) 0.2265(3) 1. 0 1.04 
O5 O2- 8 f 0.1656(2) 0.6617(7) 0.2083(3) 1. 0 1.17 
O6 O2- 8 f 0.2944(2) 0.6093(7) 0.2377(3) 1. 0 1.69 
O7 O2- 8 f 0.2461(2) 0.3453(7) 0.2104(3) 1. 0 0.98 
O8 O2- 8 f 0.2989(2) 0.4859(7) 0.0915(3) 1. 0 1.26 
O9 O2- 8 f 0.4217(2) 0.1359(7) 0.1070(3) 1. 0 1.23 
O10 O2- 8 f 0.4276(3) 0.5920(8) 0.0567(3) 1. 0 1.98 
O11 O2- 8 f 0.0325(2) 0.4884(7) 0.1124(3) 1. 0 1.37 
O12 O2- 8 f 0.2554(3) 0.9587(8) 0.0642(3) 1. 0 2.06 
O13 O2- 8 f 0.1709(2) 0.4626(7) 0.0409(3) 1. 0 1.51 
O14 O2- 8 f 0.0985(3) 0.2052(8) 0.1205(3) 1. 0 2. 
O15 O2- 8 f 0.3893(3) 0.8760(7) 0.2045(3) 1. 0 1.81 
B1 B3+ 8 f 0.5003(3) 0.1490(11) 0.1079(4) 1. 0 0.97 
B2 B3+ 8 f 0.0688(3) 0.8387(12) 0.0261(4) 1. 0 1.25 
B3 B3+ 8 f 0.1105(3) 0.7950(11) 0.1960(4) 1. 0 0.97 
B4 B3+ 8 f 0.2629(3) 0.2013(10) 0.2551(5) 1. 0 1.13 
B5 B3+ 8 f 0.3050(3) 0.4598(11) 0.1929(4) 1. 0 1.1 
B6 B3+ 8 f 0.2399(4) 0.4957(12) 0.0234(5) 1. 0 1.49 
H1 H1+ 8 f 0.368 0.065 0.012 1. 0 5.5 
H2 H1+ 8 f 0.38 0.55 0.062 1. 0 5.5 
H3 H1+ 8 f 0.102 0.474 0.329 1. 0 5.5 
H4 H1+ 8 f 0.353 0.794 0.218 1. 0 5.5 
H5 H1+ 8 f 0.407 0.223 0.143 1. 0 5.5 
H6 H1+ 8 f 0.204 0.934 0.071 1. 0 5.5 
H7 H1+ 8 f 0.017 0.42 0.058 1. 0 5.5 
H8 H1+ 8 f 0.063 0.222 0.063 1. 0 5.5 
H9 H1+ 8 f 0.108 0.092 0.116 1. 0 5.5 
H10 H1+ 4 e 0 0.735 0.25 1. 0 5.5 

#End of data_34008-ICSD


