data_49915-ICSD
#?2014 by Fachinformationszentrum Karlsruhe, and the U.S. Secretary of 
#Commerce on behalf of the United States.  All rights reserved.
_database_code_ICSD                49915
_audit_creation_date               1988/05/18
_audit_update_record               2006/04/01
_chemical_name_systematic
;
Cadmium Dimagnesium Bromide Dodecahydrate
;
_chemical_formula_structural       'Cd Mg2 Br6 (H2 O)12'
_chemical_formula_sum              'H24 Br6 Cd1 Mg2 O12'
_publ_section_title
;
Structure of cadmium dimagnesium hexabromide dodecahydrate, Cd Mg2 
Br6 (H2 O)12
;
loop_
_citation_id
_citation_journal_abbrev
_citation_year
_citation_journal_volume
_citation_page_first
_citation_page_last
_citation_journal_id_ASTM
primary 'Acta Crystallographica, Section C: Crystal Structure Communications'
 1987 43 2044 2046 ACSCEE
_publ_author_name
;
Duhlev, R.;Faggiani, R.;Brown, I.D.
;
_cell_length_a                     10.371(2)
_cell_length_b                     10.371(2)
_cell_length_c                     17.761(2)
_cell_angle_alpha                  90.
_cell_angle_beta                   90.
_cell_angle_gamma                  120.
_cell_volume                       1654.4
_cell_formula_units_Z              3
_symmetry_space_group_name_H-M     'R -3 H'
_symmetry_Int_Tables_number        148
_refine_ls_R_factor_all            .036
loop_
_symmetry_equiv_pos_site_id
_symmetry_equiv_pos_as_xyz
  1	'x-y, x, -z'
  2	'y, -x+y, -z'
  3	'-x, -y, -z'
  4	'-x+y, -x, z'
  5	'-y, x-y, z'
  6	'x, y, z'
  7	'x-y+.6666, x+.3333, -z+.3333'
  8	'x-y+.3333, x+.6666, -z+.6666'
  9	'y+.6666, -x+y+.3333, -z+.3333'
 10	'y+.3333, -x+y+.6666, -z+.6666'
 11	'-x+.6666, -y+.3333, -z+.3333'
 12	'-x+.3333, -y+.6666, -z+.6666'
 13	'-x+y+.6666, -x+.3333, z+.3333'
 14	'-x+y+.3333, -x+.6666, z+.6666'
 15	'-y+.6666, x-y+.3333, z+.3333'
 16	'-y+.3333, x-y+.6666, z+.6666'
 17	'x+.6666, y+.3333, z+.3333'
 18	'x+.3333, y+.6666, z+.6666'
loop_
_atom_type_symbol
_atom_type_oxidation_number
Br1-	-1
Cd2+	2
H1+	1
Mg2+	2
O2-	-2
loop_
_atom_site_label
_atom_site_type_symbol
_atom_site_symmetry_multiplicity
_atom_site_Wyckoff_symbol
_atom_site_fract_x
_atom_site_fract_y
_atom_site_fract_z
_atom_site_occupancy
_atom_site_attached_hydrogens
_atom_site_U_iso_or_equiv
Cd1 Cd2+ 3 a 0 0 0 1. 0 0 
Mg1 Mg2+ 6 c 0 0 0.32520(13) 1. 0 0 
Br1 Br1- 18 f 0.16964(5) -.07548(5) 0.09234(3) 1. 0 0 
O1 O2- 18 f 0.1851(4) 0.0715(5) 0.2586(2) 1. 0 0 
O2 O2- 18 f -.1864(5) -.0663(5) 0.3908(2) 1. 0 0 
H1 H1+ 18 f 0.181(9) 0.026(9) 0.226(4) 1. 0 0.10(3) 
H2 H1+ 18 f 0.267(6) 0.167(6) 0.261(3) 1. 0 0.07(2) 
H3 H1+ 18 f -.207(7) -.004(9) 0.411(3) 1. 0 0.08(2) 
H4 H1+ 18 f -.235(7) -.141(7) 0.395(4) 1. 0 0.07(3) 

loop_
_atom_site_aniso_label
_atom_site_aniso_type_symbol
_atom_site_aniso_U_11
_atom_site_aniso_U_22
_atom_site_aniso_U_33
_atom_site_aniso_U_12
_atom_site_aniso_U_13
_atom_site_aniso_U_23
Cd1 Cd2+ 0.0333(3) 0.0333(3) 0.0374(5) 0.0167(2) 0 0
Mg1 Mg2+ 0.0294(8) 0.0294(8) 0.0351(14) 0.0147(4) 0 0
Br1 Br1- 0.0460(3) 0.0457(3) 0.0416(3) 0.0295(3) -.0025(2) -.0033(2)
O1 O2- 0.0405(21) 0.0490(25) 0.0443(21) 0.0153(19) 0.0091(17) -.0030(18)
O2 O2- 0.0476(23) 0.0431(25) 0.0704(28) 0.0214(22) 0.0208(20) 0.0063(21)
#End of data_49915-ICSD


