data_66369-ICSD
#?2014 by Fachinformationszentrum Karlsruhe, and the U.S. Secretary of 
#Commerce on behalf of the United States.  All rights reserved.
_database_code_ICSD                66369
_audit_creation_date               1993/01/06
_chemical_name_systematic
;
Tetracalcium Samarium Oxide Tris(borate)
;
_chemical_formula_structural       'Ca4 Sm O (B O3)3'
_chemical_formula_sum              'B3 Ca4 O10 Sm1'
_publ_section_title
;
Structural investigations of new calcium-rare earth (R) oxyborates 
with the composition Ca4RO(BO3)3
;
loop_
_citation_id
_citation_journal_abbrev
_citation_year
_citation_journal_volume
_citation_page_first
_citation_page_last
_citation_journal_id_ASTM
primary 'Chemistry of Materials' 1992 4 737 743 CMATEX
_publ_author_name
;
Norrestam, R.;Nygren, M.;Bovin, J.O.
;
_cell_length_a                     8.114(2)
_cell_length_b                     16.061(4)
_cell_length_c                     3.579(1)
_cell_angle_alpha                  90.
_cell_angle_beta                   101.38(3)
_cell_angle_gamma                  90.
_cell_volume                       457.24
_cell_formula_units_Z              2
_symmetry_space_group_name_H-M     'C 1 m 1'
_symmetry_Int_Tables_number        8
_refine_ls_R_factor_all            .016
loop_
_symmetry_equiv_pos_site_id
_symmetry_equiv_pos_as_xyz
  1	'x, -y, z'
  2	'x, y, z'
  3	'x+.5, -y+.5, z'
  4	'x+.5, y+.5, z'
loop_
_atom_type_symbol
_atom_type_oxidation_number
B3+	3
Ca2+	2
O2-	-2
Sm3+	3
loop_
_atom_site_label
_atom_site_type_symbol
_atom_site_symmetry_multiplicity
_atom_site_Wyckoff_symbol
_atom_site_fract_x
_atom_site_fract_y
_atom_site_fract_z
_atom_site_occupancy
_atom_site_attached_hydrogens
_atom_site_U_iso_or_equiv
Sm1 Sm3+ 2 a 0 0 0 1. 0 0 
Ca1 Ca2+ 4 b 0.3579(1) 0.1130(1) -.3295(3) 1. 0 0 
Ca2 Ca2+ 4 b 0.2357(1) 0.3184(1) 0.33431(3) 1. 0 0 
O1 O2- 2 a 0.1734(9) 0 0.5796(22) 1. 0 0 
O2 O2- 4 b 0.4099(5) 0.3560(3) -.0816(11) 1. 0 0 
O3 O2- 4 b 0.0308(6) 0.2690(3) -.2790(12) 1. 0 0 
O4 O2- 4 b 0.2049(5) 0.1711(3) 0.1125(11) 1. 0 0 
O5 O2- 4 b 0.0364(5) 0.4255(2) 0.2490(12) 1. 0 0 
O6 O2- 2 a -.2042(9) 0 0.3928(22) 1. 0 0 
B1 B3+ 2 a -.3787(11) 0 0.2957(24) 1. 0 0.0063(14) 
B2 B3+ 4 b 0.0481(8) 0.1947(4) -.0838(17) 1. 0 0.0066(10) 

loop_
_atom_site_aniso_label
_atom_site_aniso_type_symbol
_atom_site_aniso_U_11
_atom_site_aniso_U_22
_atom_site_aniso_U_33
_atom_site_aniso_U_12
_atom_site_aniso_U_13
_atom_site_aniso_U_23
Sm1 Sm3+ 0.0054(2) 0.0119(2) 0.0053(2) 0 0.0023(1) 0
Ca1 Ca2+ 0.0038(5) 0.0055(5) 0.0049(4) -.0006(4) 0.0010(4) -.0001(4)
Ca2 Ca2+ 0.0078(5) 0.0127(5) 0.0077(5) -.0006(4) 0.0031(4) -.0010(4)
O1 O2- 0.0037(27) 0.0069(28) 0.0105(31) 0 0.0023(23) 0
O2 O2- 0.0063(19) 0.0119(18) 0.0144(20) 0.0029(16) 0.0058(15) 0.0008(16)
O3 O2- 0.0167(20) 0.0115(18) 0.0134(19) 0.0040(16) 0.0076(16) 0.0053(16)
O4 O2- 0.0102(20) 0.0157(19) 0.0114(18) 0.0050(16) 0.0032(16) 0.0022(16)
O5 O2- 0.012(2) 0.0089(18) 0.0124(19) -.0040(16) 0.0027(16) -.0011(16)
O6 O2- 0.0023(29) 0.0236(38) 0.0097(33) 0 -.0004(24) 0
#End of data_66369-ICSD


