data_28429-ICSD
#?2014 by Fachinformationszentrum Karlsruhe, and the U.S. Secretary of 
#Commerce on behalf of the United States.  All rights reserved.
_database_code_ICSD                28429
_audit_creation_date               1980/01/01
_audit_update_record               1998/06/26
_chemical_name_systematic          'Disodium Calcium Sulfate'
_chemical_formula_structural       'Na2 Ca (S O4)2'
_chemical_formula_sum              'Ca1 Na2 O8 S2'
_chemical_name_mineral             Glauberite
_publ_section_title
;
Crystal Structure of Glauberite Ca Na2 (S O4)2
;
loop_
_citation_id
_citation_journal_abbrev
_citation_year
_citation_journal_volume
_citation_page_first
_citation_page_last
_citation_journal_id_ASTM
primary 'Zhurnal Strukturnoi Khimii (Issue-No. from 1981)'
 1966 7 892 894 ZSTKAI
_publ_author_name                  'Klevtsova, R.F.;Borisov, S.V.'
_cell_length_a                     10.3
_cell_length_b                     8.32
_cell_length_c                     8.6
_cell_angle_alpha                  90.
_cell_angle_beta                   112.
_cell_angle_gamma                  90.
_cell_volume                       683.32
_cell_formula_units_Z              4
_symmetry_space_group_name_H-M     'C 1 2/c 1'
_symmetry_Int_Tables_number        15
_refine_ls_R_factor_all            .15
loop_
_symmetry_equiv_pos_site_id
_symmetry_equiv_pos_as_xyz
  1	'x, -y, z+.5'
  2	'-x, -y, -z'
  3	'-x, y, -z+.5'
  4	'x, y, z'
  5	'x+.5, -y+.5, z+.5'
  6	'-x+.5, -y+.5, -z'
  7	'-x+.5, y+.5, -z+.5'
  8	'x+.5, y+.5, z'
loop_
_atom_type_symbol
_atom_type_oxidation_number
Ca2+	2
Na1+	1
O2-	-2
S6+	6
loop_
_atom_site_label
_atom_site_type_symbol
_atom_site_symmetry_multiplicity
_atom_site_Wyckoff_symbol
_atom_site_fract_x
_atom_site_fract_y
_atom_site_fract_z
_atom_site_occupancy
_atom_site_attached_hydrogens
_atom_site_B_iso_or_equiv
Na1 Na1+ 8 f 0.1387(7) 0.5575(11) 0.4406(9) 1. 0 1.9 
Ca1 Ca2+ 4 e 0 0.0656(6) 0.25 1. 0 0.72 
S1 S6+ 8 f 0.1857(3) 0.2145(5) 0.6891(4) 1. 0 0.8 
O1 O2- 8 f 0.1232(11) 0.0854(18) 0.5570(14) 1. 0 1.66 
O2 O2- 8 f 0.3410(12) 0.2254(19) 0.7310(15) 1. 0 1.82 
O3 O2- 8 f 0.1614(11) 0.1588(17) 0.8422(13) 1. 0 1.39 
O4 O2- 8 f 0.1129(12) 0.3717(18) 0.6326(15) 1. 0 1.82 

#End of data_28429-ICSD


