data_77422-ICSD
#?2014 by Fachinformationszentrum Karlsruhe, and the U.S. Secretary of 
#Commerce on behalf of the United States.  All rights reserved.
_database_code_ICSD                77422
_audit_creation_date               2003/04/01
_chemical_name_systematic          'Sodium Tecto-alumotrisilicate'
_chemical_formula_structural       'Na (Al Si3 O8)'
_chemical_formula_sum              'Al1 Na1 O8 Si3'
_chemical_name_mineral             'Albite low'
_publ_section_title
;
The high-pressure crystal chemistry of low albite and the origin of 
the pressure dependency of Al-Si ordering
;
loop_
_citation_id
_citation_journal_abbrev
_citation_year
_citation_journal_volume
_citation_page_first
_citation_page_last
_citation_journal_id_ASTM
primary 'American Mineralogist' 1994 79 1042 1052 AMMIAY
_publ_author_name
;
Downs, R.T.;Hazen, R.M.;Finger, L.W.
;
_cell_length_a                     8.1104(13)
_cell_length_b                     12.7710(15)
_cell_length_c                     7.1482(21)
_cell_angle_alpha                  94.244(29)
_cell_angle_beta                   116.667(14)
_cell_angle_gamma                  87.835(19)
_cell_volume                       659.82
_cell_formula_units_Z              4
_symmetry_space_group_name_H-M     'C -1'
_symmetry_Int_Tables_number        2
_refine_ls_R_factor_all            .0568
loop_
_symmetry_equiv_pos_site_id
_symmetry_equiv_pos_as_xyz
  1	'-x, -y, -z'
  2	'x, y, z'
  3	'-x+.5, -y+.5, -z'
  4	'x+.5, y+.5, z'
loop_
_atom_type_symbol
_atom_type_oxidation_number
Al3+	3
Na1+	1
O2-	-2
Si4+	4
loop_
_atom_site_label
_atom_site_type_symbol
_atom_site_symmetry_multiplicity
_atom_site_Wyckoff_symbol
_atom_site_fract_x
_atom_site_fract_y
_atom_site_fract_z
_atom_site_occupancy
_atom_site_attached_hydrogens
_atom_site_B_iso_or_equiv
Al1 Al3+ 4 i 0.0086(5) 0.1681(2) 0.2086(12) 1. 0 0.66(4) 
Si2 Si4+ 4 i 0.0032(4) 0.8204(1) 0.2364(11) 1. 0 0.65(4) 
Si3 Si4+ 4 i 0.6915(5) 0.1099(2) 0.3159(13) 1. 0 0.58(4) 
Si4 Si4+ 4 i 0.6810(6) 0.8818(2) 0.3632(15) 1. 0 0.58(4) 
Na1 Na1+ 4 i 0.2660(8) 0.9896(3) 0.1411(19) 1. 0 3.6(7) 
O1 O2- 4 i 0.0067(11) 0.1315(4) 0.9689(27) 1. 0 1.1(1) 
O2 O2- 4 i 0.5896(10) 0.9973(4) 0.2794(25) 1. 0 0.72(9) 
O3 O2- 4 i 0.8119(11) 0.1091(4) 0.1914(26) 1. 0 0.99(10) 
O4 O2- 4 i 0.8188(11) 0.8510(4) 0.2565(26) 1. 0 1.18(10) 
O5 O2- 4 i 0.0107(10) 0.3015(4) 0.2698(25) 1. 0 0.86(9) 
O6 O2- 4 i 0.0244(11) 0.6940(4) 0.2332(27) 1. 0 1.02(9) 
O7 O2- 4 i 0.2032(15) 0.1085(4) 0.3777(35) 1. 0 1.25(13) 
O8 O2- 4 i 0.1768(16) 0.8668(5) 0.4228(35) 1. 0 1.42(11) 

#End of data_77422-ICSD


