data_164890-ICSD
#?2014 by Fachinformationszentrum Karlsruhe, and the U.S. Secretary of 
#Commerce on behalf of the United States.  All rights reserved.
_database_code_ICSD                164890
_audit_creation_date               2010/02/01
_chemical_name_systematic
;
Tripotassium Dilithium Pentakis(niobate)
;
_chemical_formula_structural       'K3 Li2 (Nb O3)5'
_chemical_formula_sum              'K3 Li2 Nb5 O15'
_publ_section_title
;
Ternary system Li2 O - K2 O - Nb2 O5: re-examination of the 30 mol% 
K2 O isopleth and growth of fully stoichiometric potassium lithium 
niobate single crystals by the micro-pulling down technique
;
loop_
_citation_id
_citation_journal_abbrev
_citation_year
_citation_journal_volume
_citation_page_first
_citation_page_last
_citation_journal_id_ASTM
primary 'Journal of Crystal Growth' 2009 311 4343 4349 JCRGAE
_publ_author_name
;
Ferriol, M.;Cochez, M.;Aillerie, M.
;
_cell_length_a                     12.5720(4)
_cell_length_b                     12.5720(4)
_cell_length_c                     4.0102(3)
_cell_angle_alpha                  90.
_cell_angle_beta                   90.
_cell_angle_gamma                  90.
_cell_volume                       633.83
_cell_formula_units_Z              2
_symmetry_space_group_name_H-M     'P 4/m b m'
_symmetry_Int_Tables_number        127
_refine_ls_R_factor_all            .0339
loop_
_symmetry_equiv_pos_site_id
_symmetry_equiv_pos_as_xyz
  1	'y+.5, x+.5, -z'
  2	'-y+.5, -x+.5, -z'
  3	'-y, x, -z'
  4	'y, -x, -z'
  5	'x+.5, -y+.5, -z'
  6	'-x+.5, y+.5, -z'
  7	'x, y, -z'
  8	'-x, -y, -z'
  9	'-y+.5, -x+.5, z'
 10	'y+.5, x+.5, z'
 11	'y, -x, z'
 12	'-y, x, z'
 13	'-x+.5, y+.5, z'
 14	'x+.5, -y+.5, z'
 15	'-x, -y, z'
 16	'x, y, z'
loop_
_atom_type_symbol
_atom_type_oxidation_number
K1+	1
Li1+	1
Nb5+	5
O2-	-2
loop_
_atom_site_label
_atom_site_type_symbol
_atom_site_symmetry_multiplicity
_atom_site_Wyckoff_symbol
_atom_site_fract_x
_atom_site_fract_y
_atom_site_fract_z
_atom_site_occupancy
_atom_site_attached_hydrogens
_atom_site_U_iso_or_equiv
Nb1 Nb5+ 2 d 0 0.5 0 1. 0 0.011(1) 
Nb2 Nb5+ 8 i 0.2079(1) 0.0746(1) 0 1. 0 0.010(1) 
K1 K1+ 2 b 0 0 0.5 1. 0 0.022(1) 
K2 K1+ 4 h 0.1725(1) 0.3275(1) 0.5 1. 0 0.026(1) 
Li1 Li1+ 4 h 0.3784(1) 0.1216(7) 0.5 1. 0 0.006(2) 
O1 O2- 8 i -0.0014(4) 0.3455(3) 0 1. 0 0.040(2) 
O2 O2- 2 c 0 0.5 0.5 1. 0 0.075(7) 
O3 O2- 4 g 0.2901(3) 0.2099(3) 0 1. 0 0.028(2) 
O4 O2- 8 i 0.0690(3) 0.1410(3) 0 1. 0 0.023(1) 
O5 O2- 8 j 0.2137(5) 0.0781(5) 0.5 1. 0 0.038(2) 

#End of data_164890-ICSD


