data_261632-ICSD
#?2014 by Fachinformationszentrum Karlsruhe, and the U.S. Secretary of 
#Commerce on behalf of the United States.  All rights reserved.
_database_code_ICSD                261632
_audit_creation_date               2011/08/01
_chemical_name_systematic
;
Tetralanthanum Lithium Gold Octaoxide
;
_chemical_formula_structural       'La4 Li Au O8'
_chemical_formula_sum              'Au1 La4 Li1 O8'
_publ_section_title
;
Neutron diffraction study of La4 Li Au O8: Understanding Au(3+) in an 
oxide environment
;
loop_
_citation_id
_citation_journal_abbrev
_citation_year
_citation_journal_volume
_citation_journal_issue
_citation_page_first
_citation_page_last
_citation_journal_id_ASTM
primary 'Journal of Solid State Chemistry' 2011 184 6 1439 1444 JSSCBI
_publ_author_name
;
Kurzman, J.A.;Moffitt, S.L.;Llobet, A.;Seshadri, R.
;
_cell_length_a                     5.7867
_cell_length_b                     5.7863
_cell_length_c                     12.5274
_cell_angle_alpha                  90.
_cell_angle_beta                   90.
_cell_angle_gamma                  90.
_cell_volume                       419.46
_cell_formula_units_Z              2
_symmetry_space_group_name_H-M     'A m m m'
_symmetry_Int_Tables_number        65
loop_
_symmetry_equiv_pos_site_id
_symmetry_equiv_pos_as_xyz
  1	'x, -y, z'
  2	'x, y, -z'
  3	'-x, y, z'
  4	'-x, -y, -z'
  5	'-x, y, -z'
  6	'-x, -y, z'
  7	'x, -y, -z'
  8	'x, y, z'
  9	'x, -y+.5, z+.5'
 10	'x, y+.5, -z+.5'
 11	'-x, y+.5, z+.5'
 12	'-x, -y+.5, -z+.5'
 13	'-x, y+.5, -z+.5'
 14	'-x, -y+.5, z+.5'
 15	'x, -y+.5, -z+.5'
 16	'x, y+.5, z+.5'
loop_
_atom_type_symbol
_atom_type_oxidation_number
Au3+	3
La3+	3
Li1+	1
O2-	-2
loop_
_atom_site_label
_atom_site_type_symbol
_atom_site_symmetry_multiplicity
_atom_site_Wyckoff_symbol
_atom_site_fract_x
_atom_site_fract_y
_atom_site_fract_z
_atom_site_occupancy
_atom_site_attached_hydrogens
La1 La3+ 4 i 0 0 0.14971 1. 0 
La2 La3+ 4 i 0 0 0.35029 1. 0 
Li1 Li1+ 2 b 0 0 0.5 1. 0 
Au1 Au3+ 2 d 0.5 0 0 1. 0 
O1 O2- 8 o 0.25073 0.24922 0 1. 0 
O2 O2- 8 m 0.24947 0.25 0.25 1. 0 

#End of data_261632-ICSD


