data_82887-ICSD
#?2014 by Fachinformationszentrum Karlsruhe, and the U.S. Secretary of 
#Commerce on behalf of the United States.  All rights reserved.
_database_code_ICSD                82887
_audit_creation_date               1998/06/26
_chemical_name_systematic
;
Zinc Diiron(III) Tetrakis(selenate(IV))
;
_chemical_formula_structural       'Zn Fe2 (Se O3)4'
_chemical_formula_sum              'Fe2 O12 Se4 Zn1'
_publ_section_title
;
The crystal structure of Zn Fe(3+)2 (Se O3)4
;
loop_
_citation_id
_citation_journal_abbrev
_citation_year
_citation_journal_volume
_citation_page_first
_citation_page_last
_citation_journal_id_ASTM
primary 'Monatshefte fuer Chemie' 1996 127 347 354 MOCMB7
_publ_author_name                  'Giester, G.'
_cell_length_a                     8.196(4)
_cell_length_b                     7.997(4)
_cell_length_c                     8.033(4)
_cell_angle_alpha                  90.
_cell_angle_beta                   92.27(3)
_cell_angle_gamma                  90.
_cell_volume                       526.1
_cell_formula_units_Z              2
_symmetry_space_group_name_H-M     'P 1 c 1'
_symmetry_Int_Tables_number        7
_refine_ls_R_factor_all            .041
loop_
_symmetry_equiv_pos_site_id
_symmetry_equiv_pos_as_xyz
  1	'x, -y, z+.5'
  2	'x, y, z'
loop_
_atom_type_symbol
_atom_type_oxidation_number
Fe3+	3
O2-	-2
Se4+	4
Zn2+	2
loop_
_atom_site_label
_atom_site_type_symbol
_atom_site_symmetry_multiplicity
_atom_site_Wyckoff_symbol
_atom_site_fract_x
_atom_site_fract_y
_atom_site_fract_z
_atom_site_occupancy
_atom_site_attached_hydrogens
_atom_site_U_iso_or_equiv
Fe1 Fe3+ 2 a 0 0.2374(2) 0.25 1. 0 0.0133(2) 
Fe2 Fe3+ 2 a 0.5099(2) 0.2630(2) 0.7569(2) 1. 0 0.0134(2) 
Zn1 Zn2+ 2 a 0.1628(2) 0.39820(13) 0.6556(2) 1. 0 0.0169(2) 
Se1 Se4+ 2 a 0.1926(2) 0.09599(10) 0.9503(2) 1. 0 0.0145(2) 
Se2 Se4+ 2 a 0.8207(2) 0.43138(11) 0.5470(2) 1. 0 0.0154(2) 
Se3 Se4+ 2 a 0.6804(2) 0.05708(10) 0.0809(2) 1. 0 0.0150(2) 
Se4 Se4+ 2 a 0.4141(2) 0.32038(10) 0.3339(2) 1. 0 0.0130(2) 
O1 O2- 2 a 0.1204(10) -.0335(9) 0.8014(10) 1. 0 0.026(2) 
O2 O2- 2 a 0.0215(8) 0.1945(8) 0.0088(9) 1. 0 0.0174(13) 
O3 O2- 2 a 0.2707(9) 0.2483(8) 0.8271(10) 1. 0 0.0167(13) 
O4 O2- 2 a 0.7188(10) 0.2860(9) 0.6481(11) 1. 0 0.026(2) 
O5 O2- 2 a 0.9376(8) 0.5188(8) 0.7049(9) 1. 0 0.0171(13) 
O6 O2- 2 a 0.9852(9) 0.3085(8) 0.4886(9) 1. 0 0.0181(13) 
O7 O2- 2 a 0.579(1) 0.2216(9) -.0108(9) 1. 0 0.0230(15) 
O8 O2- 2 a 0.5219(9) -.0286(8) 0.1845(10) 1. 0 0.0206(15) 
O9 O2- 2 a 0.7760(9) 0.1615(9) 0.2429(9) 1. 0 0.0212(14) 
O10 O2- 2 a 0.5226(9) 0.4926(8) 0.3059(10) 1. 0 0.0212(14) 
O11 O2- 2 a 0.3653(8) 0.3320(9) 0.5392(9) 1. 0 0.0187(13) 
O12 O2- 2 a 0.2264(8) 0.3722(7) 0.2441(9) 1. 0 0.0162(13) 

#End of data_82887-ICSD


