data_90459-ICSD
#?2014 by Fachinformationszentrum Karlsruhe, and the U.S. Secretary of 
#Commerce on behalf of the United States.  All rights reserved.
_database_code_ICSD                90459
_audit_creation_date               2002/04/01
_chemical_name_systematic          'Silver Dicadmium Gallium Sulfide'
_chemical_formula_structural       'Ag Cd2 Ga S4'
_chemical_formula_sum              'Ag1 Cd2 Ga1 S4'
_publ_section_title
;
Crystal structure of the new quaternary phase Ag Cd2 Ga S4 and phase 
diagram of the quasi-binary system Ag Ga S2 - Cd S
;
loop_
_citation_id
_citation_journal_abbrev
_citation_year
_citation_journal_volume
_citation_page_first
_citation_page_last
_citation_journal_id_ASTM
primary 'Journal of Alloys and Compounds' 2000 312 189 195 JALCEU
_publ_author_name
;
Chikhrii, S.I.;Parasyuk, O.V.;Halka, V.O.
;
_cell_length_a                     8.1460(4)
_cell_length_b                     6.8989(4)
_cell_length_c                     6.5932(4)
_cell_angle_alpha                  90.
_cell_angle_beta                   90.
_cell_angle_gamma                  90.
_cell_volume                       370.53
_cell_formula_units_Z              2
_symmetry_space_group_name_H-M     'P m n 21'
_symmetry_Int_Tables_number        31
_refine_ls_R_factor_all            .074
loop_
_symmetry_equiv_pos_site_id
_symmetry_equiv_pos_as_xyz
  1	'x+.5, -y, z+.5'
  2	'-x+.5, -y, z+.5'
  3	'-x, y, z'
  4	'x, y, z'
loop_
_atom_type_symbol
_atom_type_oxidation_number
Ag1+	1
Cd2+	2
Ga3+	3
S2-	-2
loop_
_atom_site_label
_atom_site_type_symbol
_atom_site_symmetry_multiplicity
_atom_site_Wyckoff_symbol
_atom_site_fract_x
_atom_site_fract_y
_atom_site_fract_z
_atom_site_occupancy
_atom_site_attached_hydrogens
_atom_site_B_iso_or_equiv
Cd1 Cd2+ 4 b 0.2519(3) 0.1772(2) 0.4892(8) 1. 0 0.86(4) 
Ag1 Ag1+ 2 a 0 0.6543(3) 0.4907(14) 1. 0 0.91(7) 
Ga1 Ga3+ 2 a 0 0.3170(4) 0 1. 0 0.18(7) 
S1 S2- 4 b 0.2422(8) 0.1664(6) 0.0964(9) 1. 0 0.56(4) 
S2 S2- 2 a 0 0.3361(11) 0.6531(14) 1. 0 0.56(4) 
S3 S2- 2 a 0 0.6324(10) 0.098(2) 1. 0 0.56(4) 

#End of data_90459-ICSD


