data_34169-ICSD
#?2014 by Fachinformationszentrum Karlsruhe, and the U.S. Secretary of 
#Commerce on behalf of the United States.  All rights reserved.
_database_code_ICSD                34169
_audit_creation_date               1980/01/01
_audit_update_record               2012/02/01
_chemical_name_systematic          'Dipotassium Disulfate(VI)'
_chemical_formula_structural       'K2 (S2 O7)'
_chemical_formula_sum              'K2 O7 S2'
_publ_section_title
;
An accurate determination of the crystal structure of potassium 
pyrosulfate
;
loop_
_citation_id
_citation_journal_abbrev
_citation_year
_citation_journal_volume
_citation_page_first
_citation_page_last
_citation_journal_id_ASTM
primary 'Journal of the Chemical Society' 1960 1960 5112 5118 JCSOA9
_publ_author_name                  'Lynton, H.;Truter, M.R.'
_cell_length_a                     12.350(5)
_cell_length_b                     7.310(5)
_cell_length_c                     7.270(5)
_cell_angle_alpha                  90.
_cell_angle_beta                   93.12(8)
_cell_angle_gamma                  90.
_cell_volume                       655.35
_cell_formula_units_Z              4
_symmetry_space_group_name_H-M     'C 1 2/c 1'
_symmetry_Int_Tables_number        15
_refine_ls_R_factor_all            .076
loop_
_symmetry_equiv_pos_site_id
_symmetry_equiv_pos_as_xyz
  1	'x, -y, z+.5'
  2	'-x, -y, -z'
  3	'-x, y, -z+.5'
  4	'x, y, z'
  5	'x+.5, -y+.5, z+.5'
  6	'-x+.5, -y+.5, -z'
  7	'-x+.5, y+.5, -z+.5'
  8	'x+.5, y+.5, z'
loop_
_atom_type_symbol
_atom_type_oxidation_number
K1+	1
O2-	-2
S6+	6
loop_
_atom_site_label
_atom_site_type_symbol
_atom_site_symmetry_multiplicity
_atom_site_Wyckoff_symbol
_atom_site_fract_x
_atom_site_fract_y
_atom_site_fract_z
_atom_site_occupancy
_atom_site_attached_hydrogens
K1 K1+ 8 f 0.3530(2) 0.6510(3) 0.6470(3) 1. 0 
S1 S6+ 8 f 0.3980(2) 0.1830(3) 0.6410(3) 1. 0 
O1 O2- 8 f 0.4440(6) 0.2870(11) 0.498(1) 1. 0 
O2 O2- 8 f 0.3320(5) 0.032(1) 0.5810(11) 1. 0 
O3 O2- 8 f 0.3500(6) 0.296(1) 0.777(1) 1. 0 
O4 O2- 4 e 0.5 0.0780(11) 0.75 1. 0 

loop_
_atom_site_aniso_label
_atom_site_aniso_type_symbol
_atom_site_aniso_U_11
_atom_site_aniso_U_22
_atom_site_aniso_U_33
_atom_site_aniso_U_12
_atom_site_aniso_U_13
_atom_site_aniso_U_23
K1 K1+ 0.0229(10) 0.0244(10) 0.0262(10) 0.0024(9) 0.0031(8) 0.0041(9)
S1 S6+ 0.0122(9) 0.0141(9) 0.0165(10) -.0012(7) 0.0031(8) 0.0009(9)
O1 O2- 0.0223(33) 0.0338(38) 0.0208(35) -.0026(30) 0.0039(27) 0.0106(31)
O2 O2- 0.018(3) 0.0237(36) 0.0379(39) -.0067(27) -.0102(28) -.0048(33)
O3 O2- 0.0266(36) 0.0270(35) 0.0234(34) 0.0144(30) 0.0047(27) -.0010(31)
O4 O2- 0.0223(42) 0.0088(36) 0.0249(49) 0 0.0068(36) 0
#End of data_34169-ICSD


