data_415320-ICSD
#?2014 by Fachinformationszentrum Karlsruhe, and the U.S. Secretary of 
#Commerce on behalf of the United States.  All rights reserved.
_database_code_ICSD                415320
_audit_creation_date               2006/10/01
_audit_update_record               2007/08/01
_chemical_name_systematic          'Silver Tetrafluoroborate'
_chemical_formula_structural       'Ag (B F4)'
_chemical_formula_sum              'Ag1 B1 F4'
_publ_section_title
;
X-ray single crystal structure and vibrational spectra of Ag B F4
;
loop_
_citation_id
_citation_journal_abbrev
_citation_year
_citation_journal_volume
_citation_page_first
_citation_page_last
_citation_journal_id_ASTM
primary 'Solid State Sciences' 2005 7 1225 1229 SSSCFJ
2 'Golden Book of Phase Transitions, Wroclaw' 2002 1 1 123 GBOPT5
_publ_author_name                  'Goreshnik, E.;Mazej, Z.'
_cell_length_a                     8.089(8)
_cell_length_b                     5.312(6)
_cell_length_c                     6.752(9)
_cell_angle_alpha                  90
_cell_angle_beta                   90
_cell_angle_gamma                  90
_cell_volume                       290.13
_cell_formula_units_Z              4
_symmetry_space_group_name_H-M     'P n m a'
_symmetry_Int_Tables_number        62
_refine_ls_R_factor_all            .0259
loop_
_symmetry_equiv_pos_site_id
_symmetry_equiv_pos_as_xyz
  1	'x+.5, y, -z+.5'
  2	'x, -y+.5, z'
  3	'-x+.5, y+.5, z+.5'
  4	'-x, -y, -z'
  5	'-x+.5, -y, z+.5'
  6	'-x, y+.5, -z'
  7	'x+.5, -y+.5, -z+.5'
  8	'x, y, z'
loop_
_atom_type_symbol
_atom_type_oxidation_number
Ag1+	1
B3+	3
F1-	-1
loop_
_atom_site_label
_atom_site_type_symbol
_atom_site_symmetry_multiplicity
_atom_site_Wyckoff_symbol
_atom_site_fract_x
_atom_site_fract_y
_atom_site_fract_z
_atom_site_occupancy
_atom_site_attached_hydrogens
_atom_site_U_iso_or_equiv
Ag1 Ag1+ 4 c 0.67985(5) 0.25 0.33339(7) 1. 0 0.0204(2) 
F1 F1- 4 c 1.0854(5) 0.75 0.4122(6) 1. 0 0.0306(13) 
F2 F1- 4 c 0.8056(4) 0.75 0.4493(6) 1. 0 0.0248(13) 
F3 F1- 8 d 0.9241(3) 0.5382(6) 0.1940(4) 1. 0 0.0232(8) 
B1 B3+ 4 c 0.9351(9) 0.75 0.3158(10) 1. 0 0.016(2) 

loop_
_atom_site_aniso_label
_atom_site_aniso_type_symbol
_atom_site_aniso_U_11
_atom_site_aniso_U_22
_atom_site_aniso_U_33
_atom_site_aniso_U_12
_atom_site_aniso_U_13
_atom_site_aniso_U_23
Ag1 Ag1+ 0.0154(4) 0.0275(4) 0.0185(4) 0 -0.0004(2) 0
F1 F1- 0.021(2) 0.044(3) 0.027(2) 0 -0.008(2) 0
F2 F1- 0.022(2) 0.029(2) 0.023(2) 0 0.0102(15) 0
F3 F1- 0.0277(15) 0.0164(14) 0.0256(14) 0.0009(11) 0.0007(10) -0.0096(11)
B1 B3+ 0.016(3) 0.016(3) 0.014(3) 0 -0.000(2) 0
#End of data_415320-ICSD


