data_240695-ICSD
#?2014 by Fachinformationszentrum Karlsruhe, and the U.S. Secretary of 
#Commerce on behalf of the United States.  All rights reserved.
_database_code_ICSD                240695
_audit_creation_date               2007/08/01
_audit_update_record               2008/02/01
_chemical_name_systematic          'Calcium Gallium Tetrahydride'
_chemical_formula_structural       'Ca Ga H4'
_chemical_formula_sum              'H4 Ca1 Ga1'
_publ_section_title
;
Coordination preference of Ga in hydrides
;
loop_
_citation_id
_citation_journal_abbrev
_citation_year
_citation_journal_volume
_citation_journal_issue
_citation_page_first
_citation_page_last
_citation_journal_id_ASTM
primary 'Inorganic Chemistry' 2006 45 26 10698 10701 INOCAJ
_publ_author_name
;
Klaveness, A.;Swang, O.;Kjekshus, A.;Fjellvag, H.
;
_cell_length_a                     8.34796
_cell_length_b                     4.35765
_cell_length_c                     6.63347
_cell_angle_alpha                  90.00
_cell_angle_beta                   127.843
_cell_angle_gamma                  90.00
_cell_volume                       190.56
_cell_formula_units_Z              2
_symmetry_space_group_name_H-M     'P 1 21 1'
_symmetry_Int_Tables_number        4
loop_
_symmetry_equiv_pos_site_id
_symmetry_equiv_pos_as_xyz
  1	'-x, y+.5, -z'
  2	'x, y, z'
loop_
_atom_type_symbol
_atom_type_oxidation_number
Ca2+	2
Ga2+	2
H1-	-1
loop_
_atom_site_label
_atom_site_type_symbol
_atom_site_symmetry_multiplicity
_atom_site_Wyckoff_symbol
_atom_site_fract_x
_atom_site_fract_y
_atom_site_fract_z
_atom_site_occupancy
_atom_site_attached_hydrogens
Ca1 Ca2+ 2 a 0.6700263 0.0643453 0.4991298 1 0 
Ga1 Ga2+ 2 a 0.2024062 0.3054409 0.9169906 1 0 
H1 H1- 2 a 0.0024928 0.1399778 0.6788097 1 0 
H2 H1- 2 a 0.1400460 0.5138012 0.0571344 1 0 
H3 H1- 2 a 0.2910586 0.5160513 0.8102603 1 0 
H4 H1- 2 a 0.3601936 0.0450599 0.0979842 1 0 

#End of data_240695-ICSD


