data_165356-ICSD
#?2014 by Fachinformationszentrum Karlsruhe, and the U.S. Secretary of 
#Commerce on behalf of the United States.  All rights reserved.
_database_code_ICSD                165356
_audit_creation_date               2010/02/01
_chemical_name_systematic
;
Dipotassium Manganese Hexaselenodiphosphate(V)
;
_chemical_formula_structural       'K2 Mn (P2 Se6)'
_chemical_formula_sum              'K2 Mn1 P2 Se6'
_publ_section_title
;
Synthesis in molten alkali polyselenophosphate fluxes: a new family 
of transition metal selenophosphate compounds, A2 M P2 Se6 (A= K, Rb, 
Cs;  M= Mn, Fe) and A2 M'2 P2 Se6 (A= K, Cs;  M'= Cu, Ag)
;
loop_
_citation_id
_citation_journal_abbrev
_citation_year
_citation_journal_volume
_citation_journal_issue
_citation_page_first
_citation_page_last
_citation_journal_id_ASTM
primary 'Inorganic Chemistry' 1995 34 5 1257 1267 INOCAJ
_publ_author_name                  'McCarthy, T.J.;Kanatzidis, M.G.'
_cell_length_a                     6.5349(9)
_cell_length_b                     12.696(3)
_cell_length_c                     7.589(2)
_cell_angle_alpha                  90
_cell_angle_beta                   102.67(2)
_cell_angle_gamma                  90.
_cell_volume                       614.31
_cell_formula_units_Z              2
_symmetry_space_group_name_H-M     'P 1 21/n 1'
_symmetry_Int_Tables_number        14
_refine_ls_R_factor_all            .029
loop_
_symmetry_equiv_pos_site_id
_symmetry_equiv_pos_as_xyz
  1	'-x+.5, y+.5, -z+.5'
  2	'-x, -y, -z'
  3	'x+.5, -y+.5, z+.5'
  4	'x, y, z'
loop_
_atom_type_symbol
_atom_type_oxidation_number
K1+	1
Mn2+	2
P4+	4
Se2-	-2
loop_
_atom_site_label
_atom_site_type_symbol
_atom_site_symmetry_multiplicity
_atom_site_Wyckoff_symbol
_atom_site_fract_x
_atom_site_fract_y
_atom_site_fract_z
_atom_site_occupancy
_atom_site_attached_hydrogens
_atom_site_B_iso_or_equiv
Se1 Se2- 4 e 0.2128(1) 0.32791(7) 0.9293(2) 1. 0 2.79(4) 
Se2 Se2- 4 e 0.1797(1) 0.58455(8) 0.7431(1) 1. 0 2.53(4) 
Se3 Se2- 4 e -0.3123(1) 0.44005(8) 0.7311(1) 1. 0 2.60(4) 
Mn1 Mn2+ 2 b 0.5 0.5 0 1. 0 2.07(7) 
P1 P4+ 4 e 0.0130(3) 0.4666(2) 0.8665(3) 1. 0 1.49(8) 
K1 K1+ 4 e 0.2245(3) 0.8097(2) 0.0394(4) 1. 0 4.0(1) 

#End of data_165356-ICSD


