data_33888-ICSD
#?2014 by Fachinformationszentrum Karlsruhe, and the U.S. Secretary of 
#Commerce on behalf of the United States.  All rights reserved.
_database_code_ICSD                33888
_audit_creation_date               1992/01/20
_chemical_name_systematic          'Dipotassium Tetrafluoropalladate'
_chemical_formula_structural       'K2 (Pd F4)'
_chemical_formula_sum              'F4 K2 Pd1'
_publ_section_title
;
Neue Fluoropalladate(II) M2(PdF4) (M = Na, K) sowie K2RbPdF5
;
loop_
_citation_id
_citation_journal_abbrev
_citation_year
_citation_journal_volume
_citation_page_first
_citation_page_last
_citation_journal_id_ASTM
primary 'Zeitschrift fuer Anorganische und Allgemeine Chemie (1950) (DE)'
 1991 597 9 18 ZAACAB
_publ_author_name                  'Bachmann, B.;Mueller, B.G.'
_cell_length_a                     9.752(3)
_cell_length_b                     5.976(1)
_cell_length_c                     4.202(1)
_cell_angle_alpha                  90.
_cell_angle_beta                   92.17(2)
_cell_angle_gamma                  90.
_cell_volume                       244.71
_cell_formula_units_Z              2
_symmetry_space_group_name_H-M     'C 1 2/m 1'
_symmetry_Int_Tables_number        12
_refine_ls_R_factor_all            .0292
loop_
_symmetry_equiv_pos_site_id
_symmetry_equiv_pos_as_xyz
  1	'-x, y, -z'
  2	'-x, -y, -z'
  3	'x, -y, z'
  4	'x, y, z'
  5	'-x+.5, y+.5, -z'
  6	'-x+.5, -y+.5, -z'
  7	'x+.5, -y+.5, z'
  8	'x+.5, y+.5, z'
loop_
_atom_type_symbol
_atom_type_oxidation_number
F1-	-1
K1+	1
Pd2+	2
loop_
_atom_site_label
_atom_site_type_symbol
_atom_site_symmetry_multiplicity
_atom_site_Wyckoff_symbol
_atom_site_fract_x
_atom_site_fract_y
_atom_site_fract_z
_atom_site_occupancy
_atom_site_attached_hydrogens
K1 K1+ 4 i 0.6534(1) 0 0.7180(3) 1. 0 
Pd1 Pd2+ 2 a 0 0 0 1. 0 
F1 F1- 8 j 0.1093(2) 0.7662(3) 0.2172(5) 1. 0 

loop_
_atom_site_aniso_label
_atom_site_aniso_type_symbol
_atom_site_aniso_U_11
_atom_site_aniso_U_22
_atom_site_aniso_U_33
_atom_site_aniso_U_12
_atom_site_aniso_U_13
_atom_site_aniso_U_23
K1 K1+ 0.0273(6) 0.0221(5) 0.0226(6) 0 -.0016(5) 0
Pd1 Pd2+ 0.0179(2) 0.0117(2) 0.0171(3) 0 -.0002(2) 0
F1 F1- 0.0307(10) 0.0210(9) 0.0278(10) 0.0052(8) -.0042(9) 0.0035(8)
#End of data_33888-ICSD


