data_80455-ICSD
#?2014 by Fachinformationszentrum Karlsruhe, and the U.S. Secretary of 
#Commerce on behalf of the United States.  All rights reserved.
_database_code_ICSD                80455
_audit_creation_date               1997/05/13
_audit_update_record               2012/08/01
_chemical_name_systematic          'Calcium Magnesium Germanate'
_chemical_formula_structural       'Ca Mg (Ge O4)'
_chemical_formula_sum              'Ca1 Ge1 Mg1 O4'
_publ_section_title
;
Structure determination of Ca Mg Ge O4
;
loop_
_citation_id
_citation_journal_abbrev
_citation_year
_citation_journal_volume
_citation_journal_issue
_citation_page_first
_citation_page_last
_citation_journal_id_ASTM
primary 'Materials Research Bulletin' 1995 30 12 1489 1493 MRBUAC
2 'Powder Diffraction' 1986 1- 77 99 PODIE2
_publ_author_name
;
van Duijn, J.;de Graaff, R.A.G.;Ijdo, D.J.W.
;
_cell_length_a                     11.285(5)
_cell_length_b                     5.016(2)
_cell_length_c                     6.435(2)
_cell_angle_alpha                  90.
_cell_angle_beta                   90.
_cell_angle_gamma                  90.
_cell_volume                       364.26
_cell_formula_units_Z              4
_symmetry_space_group_name_H-M     'P n a m'
_symmetry_Int_Tables_number        62
_refine_ls_R_factor_all            .045
loop_
_symmetry_equiv_pos_site_id
_symmetry_equiv_pos_as_xyz
  1	'x+.5, -y+.5, z'
  2	'x, y, -z+.5'
  3	'-x+.5, y+.5, z+.5'
  4	'-x, -y, -z'
  5	'-x+.5, y+.5, -z'
  6	'-x, -y, z+.5'
  7	'x+.5, -y+.5, -z+.5'
  8	'x, y, z'
loop_
_atom_type_symbol
_atom_type_oxidation_number
Ca2+	2
Ge4+	4
Mg2+	2
O2-	-2
loop_
_atom_site_label
_atom_site_type_symbol
_atom_site_symmetry_multiplicity
_atom_site_Wyckoff_symbol
_atom_site_fract_x
_atom_site_fract_y
_atom_site_fract_z
_atom_site_occupancy
_atom_site_attached_hydrogens
Mg1 Mg2+ 4 a 0 0 0 1. 0 
Ca1 Ca2+ 4 c 0.27524(7) 0.9870(1) 0.25 1. 0 
Ge1 Ge4+ 4 c 0.08169(4) 0.4208(1) 0.25 1. 0 
O1 O2- 4 c 0.0808(2) 0.7678(6) 0.25 1. 0 
O2 O2- 4 c 0.4435(2) 0.2520(6) 0.25 1. 0 
O3 O2- 8 d 0.1487(2) 0.2669(4) 0.0330(3) 1. 0 

loop_
_atom_site_aniso_label
_atom_site_aniso_type_symbol
_atom_site_aniso_U_11
_atom_site_aniso_U_22
_atom_site_aniso_U_33
_atom_site_aniso_U_12
_atom_site_aniso_U_13
_atom_site_aniso_U_23
Mg1 Mg2+ 0.0061(6) 0.0047(5) 0.0036(5) -.0006(5) -.0016(4) -.0015(4)
Ca1 Ca2+ 0.0051(3) 0.0074(3) 0.0060(3) 0.0006(2) 0 0
Ge1 Ge4+ 0.0058(2) 0.0048(2) 0.0055(2) 0.0001(2) 0 0
O1 O2- 0.006(1) 0.008(1) 0.011(1) 0.001(1) 0 0
O2 O2- 0.005(1) 0.009(1) 0.008(1) -.001(1) 0 0
O3 O2- 0.0103(9) 0.0082(8) 0.0065(7) 0.0019(8) 0.0009(7) 0.0007(7)
#End of data_80455-ICSD


