data_89649-ICSD
#?2014 by Fachinformationszentrum Karlsruhe, and the U.S. Secretary of 
#Commerce on behalf of the United States.  All rights reserved.
_database_code_ICSD                89649
_audit_creation_date               2002/04/01
_chemical_name_systematic
;
Dilithium Tricobalt Tetrakis(selenate(IV))
;
_chemical_formula_structural       'Li2 Co3 (Se O3)4'
_chemical_formula_sum              'Co3 Li2 O12 Se4'
_publ_section_title
;
Crystal structure, electronic absorption spectra, and crystal field 
superposition model analysis of Li2 Co3 (Se O3)4
;
loop_
_citation_id
_citation_journal_abbrev
_citation_year
_citation_journal_volume
_citation_page_first
_citation_page_last
_citation_journal_id_ASTM
primary 'Zeitschrift fuer Kristallographie (1979-2010)' 1999 214 216 222 ZEKRDZ
_publ_author_name                  'Wildner, M.;Andrut, M.'
_cell_length_a                     8.095(2)
_cell_length_b                     9.236(3)
_cell_length_c                     7.781(2)
_cell_angle_alpha                  90.
_cell_angle_beta                   115.76(1)
_cell_angle_gamma                  90.
_cell_volume                       523.94
_cell_formula_units_Z              2
_symmetry_space_group_name_H-M     'P 1 21/c 1'
_symmetry_Int_Tables_number        14
_refine_ls_R_factor_all            .061
loop_
_symmetry_equiv_pos_site_id
_symmetry_equiv_pos_as_xyz
  1	'x, -y+.5, z+.5'
  2	'-x, -y, -z'
  3	'-x, y+.5, -z+.5'
  4	'x, y, z'
loop_
_atom_type_symbol
_atom_type_oxidation_number
Co2+	2
Li1+	1
O2-	-2
Se4+	4
loop_
_atom_site_label
_atom_site_type_symbol
_atom_site_symmetry_multiplicity
_atom_site_Wyckoff_symbol
_atom_site_fract_x
_atom_site_fract_y
_atom_site_fract_z
_atom_site_occupancy
_atom_site_attached_hydrogens
Li1 Li1+ 4 e 0.1029(7) 0.1408(8) 0.4202(8) 1. 0 
Co1 Co2+ 2 a 0 0 0 1. 0 
Co2 Co2+ 4 e 0.28973(6) 0.49080(5) 0.32379(6) 1. 0 
Se1 Se4+ 4 e 0.82611(4) 0.31639(4) 0.12151(4) 1. 0 
Se2 Se4+ 4 e 0.40569(4) 0.17253(4) 0.26297(4) 1. 0 
O1 O2- 4 e 0.0360(3) 0.3502(3) 0.3094(3) 1. 0 
O2 O2- 4 e 0.1406(3) 0.6068(3) 0.0564(4) 1. 0 
O3 O2- 4 e 0.1617(3) 0.6354(3) 0.4220(1) 1. 0 
O4 O2- 4 e 0.2152(3) 0.0826(3) 0.2368(3) 1. 0 
O5 O2- 4 e 0.3230(3) 0.3354(3) 0.1615(4) 1. 0 
O6 O2- 4 e 0.4575(3) 0.0985(3) 0.0916(3) 1. 0 

loop_
_atom_site_aniso_label
_atom_site_aniso_type_symbol
_atom_site_aniso_U_11
_atom_site_aniso_U_22
_atom_site_aniso_U_33
_atom_site_aniso_U_12
_atom_site_aniso_U_13
_atom_site_aniso_U_23
Li1 Li1+ 0.0133(22) 0.0177(30) 0.0128(26) 0.0066(22) 0.0030(19) 0.0007(26)
Co1 Co2+ 0.0135(2) 0.0072(3) 0.0116(3) -.0001(2) 0.0052(2) 0.0000(2)
Co2 Co2+ 0.0155(2) 0.0074(2) 0.0138(2) 0.0016(2) 0.0063(2) -.0003(2)
Se1 Se4+ 0.0118(1) 0.0060(1) 0.0126(1) 0.0002(1) 0.0042(1) -.0007(1)
Se2 Se4+ 0.0115(1) 0.0080(2) 0.0116(1) 0.0003(1) 0.0036(1) -.0015(1)
O1 O2- 0.0127(9) 0.0125(11) 0.014(1) -.0010(9) 0.0023(8) -.0035(10)
O2 O2- 0.018(1) 0.0151(12) 0.0194(12) 0.0013(9) 0.0081(9) 0.0051(11)
O3 O2- 0.0171(9) 0.0070(11) 0.0203(11) 0.0018(9) 0.0104(9) 0.0025(10)
O4 O2- 0.0157(9) 0.0096(11) 0.0155(11) -.0042(8) 0.0059(8) -.0026(9)
O5 O2- 0.0213(10) 0.0089(11) 0.0154(10) 0.0019(9) 0.0088(8) 0.0001(10)
O6 O2- 0.0139(9) 0.0121(11) 0.0147(11) 0.0043(9) 0.0057(8) -.0016(9)
#End of data_89649-ICSD


