data_202818-ICSD
#?2014 by Fachinformationszentrum Karlsruhe, and the U.S. Secretary of 
#Commerce on behalf of the United States.  All rights reserved.
_database_code_ICSD                202818
_audit_creation_date               1989/12/04
_chemical_name_systematic          'Tetrasodium Stannate(IV)'
_chemical_formula_structural       'Na4 (Sn O4)'
_chemical_formula_sum              'Na4 O4 Sn1'
_publ_section_title                'Zum Aufbau von Na4 (Sn O4) (1)'
loop_
_citation_id
_citation_journal_abbrev
_citation_year
_citation_journal_volume
_citation_page_first
_citation_page_last
_citation_journal_id_ASTM
primary 'European Journal of Solid State Inorganic Chemistry'
 1988 25 119 134 EJSCE5
_publ_author_name                  'Hoppe, R.;Bernet, K.'
_cell_length_a                     8.8508
_cell_length_b                     6.6297
_cell_length_c                     5.9055
_cell_angle_alpha                  124.3
_cell_angle_beta                   97.8
_cell_angle_gamma                  99.5
_cell_volume                       270.98
_cell_formula_units_Z              2
_symmetry_space_group_name_H-M     'P -1'
_symmetry_Int_Tables_number        2
_refine_ls_R_factor_all            .058
loop_
_symmetry_equiv_pos_site_id
_symmetry_equiv_pos_as_xyz
  1	'-x, -y, -z'
  2	'x, y, z'
loop_
_atom_type_symbol
_atom_type_oxidation_number
Na1+	1
O2-	-2
Sn4+	4
loop_
_atom_site_label
_atom_site_type_symbol
_atom_site_symmetry_multiplicity
_atom_site_Wyckoff_symbol
_atom_site_fract_x
_atom_site_fract_y
_atom_site_fract_z
_atom_site_occupancy
_atom_site_attached_hydrogens
Sn1 Sn4+ 2 i 0.2358 0.3411(1) 0.0621(1) 1. 0 
O1 O2- 2 i 0.3779(3) 0.2010(5) 0.1860(6) 1. 0 
O2 O2- 2 i 0.3696(3) 0.6767(5) 0.1996(6) 1. 0 
O3 O2- 2 i -.0455(3) 0.6499(5) 0.8096(6) 1. 0 
O4 O2- 2 i 0.1956(3) 0.1289(5) 0.6473(6) 1. 0 
Na1 Na1+ 2 i 0.4370(2) 0.9810(3) 0.7173(4) 1. 0 
Na2 Na1+ 2 i 0.5971(2) 0.5619(3) 0.3148(3) 1. 0 
Na3 Na1+ 2 i 0.1927(2) 0.8887(3) 0.1695(3) 1. 0 
Na4 Na1+ 2 i 0.0086(2) 0.7445(3) 0.5019(4) 1. 0 

loop_
_atom_site_aniso_label
_atom_site_aniso_type_symbol
_atom_site_aniso_U_11
_atom_site_aniso_U_22
_atom_site_aniso_U_33
_atom_site_aniso_U_12
_atom_site_aniso_U_13
_atom_site_aniso_U_23
Sn1 Sn4+ 0.0084(1) 0.0065(1) 0.0069(1) 0.0022(1) 0.0025(1) 0.0040(1)
O1 O2- 0.0140(12) 0.0140(12) 0.0146(13) 0.0055(10) 0.0045(10) 0.0109(11)
O2 O2- 0.0123(12) 0.0095(12) 0.0167(13) 0.0013(10) 0.0038(10) 0.0085(11)
O3 O2- 0.0123(12) 0.0170(14) 0.1046(13) 0.0033(11) 0.0073(11) 0.0082(12)
O4 O2- 0.0136(12) 0.0107(12) 0.0088(12) 0.0035(10) 0.0032(10) 0.0048(40)
Na1 Na1+ 0.0161(8) 0.0144(8) 0.0152(8) 0.0056(7) 0.0059(7) 0.0089(7)
Na2 Na1+ 0.0136(7) 0.0152(8) 0.0146(8) 0.0025(6) 0.0047(6) 0.0094(7)
Na3 Na1+ 0.0146(7) 0.0133(7) 0.0134(7) 0.0038(6) 0.0042(6) 0.0071(7)
Na4 Na1+ 0.0164(8) 0.0134(8) 0.0167(8) 0.0054(6) 0.0057(6) 0.0097(7)
#End of data_202818-ICSD


