data_9245-ICSD
#?2014 by Fachinformationszentrum Karlsruhe, and the U.S. Secretary of 
#Commerce on behalf of the United States.  All rights reserved.
_database_code_ICSD                9245
_audit_creation_date               1986/08/08
_audit_update_record               2012/02/01
_chemical_name_systematic
;
Dicalcium Trialuminium Tris(silicate) Hydroxide *
;
_chemical_formula_structural       'Ca2 Al3 Si3 O12 (O H)'
_chemical_formula_sum              'H1 Al3 Ca2 O13 Si3'
_chemical_name_mineral             Zoisite
_publ_section_title
;
Refinement and comparison of the structures of zoisite and 
clinozoisite
;
loop_
_citation_id
_citation_journal_abbrev
_citation_year
_citation_journal_volume
_citation_page_first
_citation_page_last
_citation_journal_id_ASTM
primary 'American Mineralogist' 1968 53 1882 1898 AMMIAY
2 Science 1971 171 374 376 SCIEAS
_publ_author_name                  'Dollase, W.A.'
_cell_length_a                     16.2120(80)
_cell_length_b                     5.559(6)
_cell_length_c                     10.036(4)
_cell_angle_alpha                  90.
_cell_angle_beta                   90.
_cell_angle_gamma                  90.
_cell_volume                       904.47
_cell_formula_units_Z              4
_symmetry_space_group_name_H-M     'P n m a'
_symmetry_Int_Tables_number        62
_refine_ls_R_factor_all            .044
loop_
_symmetry_equiv_pos_site_id
_symmetry_equiv_pos_as_xyz
  1	'x+.5, y, -z+.5'
  2	'x, -y+.5, z'
  3	'-x+.5, y+.5, z+.5'
  4	'-x, -y, -z'
  5	'-x+.5, -y, z+.5'
  6	'-x, y+.5, -z'
  7	'x+.5, -y+.5, -z+.5'
  8	'x, y, z'
loop_
_atom_type_symbol
_atom_type_oxidation_number
Al3+	3
Ca2+	2
H1+	1
O2-	-2
Si4+	4
loop_
_atom_site_label
_atom_site_type_symbol
_atom_site_symmetry_multiplicity
_atom_site_Wyckoff_symbol
_atom_site_fract_x
_atom_site_fract_y
_atom_site_fract_z
_atom_site_occupancy
_atom_site_attached_hydrogens
_atom_site_B_iso_or_equiv
Ca1 Ca2+ 4 c 0.3667(2) 0.25 0.4376(4) 1. 0 0.72(9) 
Ca2 Ca2+ 4 c 0.4518(2) 0.25 0.1150(4) 1. 0 0.85(9) 
Al1 Al3+ 8 d 0.2496(2) 0.9971(9) 0.1899(3) 1. 0 0.53(8) 
Al2 Al3+ 4 c 0.1054(3) 0.75 0.3006(5) 1. 0 0.3(1) 
Si1 Si4+ 4 c 0.0816(3) 0.25 0.1064(5) 1. 0 0.3(1) 
Si2 Si4+ 4 c 0.4104(3) 0.75 0.2821(5) 1. 0 0.4(1) 
Si3 Si4+ 4 c 0.1601(3) 0.25 0.4356(5) 1. 0 0.6(1) 
O1 O2- 8 d 0.1317(4) 0.000(2) 0.1451(8) 1. 0 0.4(2) 
O2 O2- 8 d 0.1012(5) 0.015(2) 0.4300(7) 1. 0 0.5(2) 
O3 O2- 8 d 0.3584(5) 0.990(2) 0.2452(8) 1. 0 0.4(2) 
O4 O2- 4 c 0.2178(7) 0.75 0.301(1) 1. 0 0.4(2) 
O5 O2- 4 c 0.2273(7) 0.25 0.312(1) 1. 0 0.2(2) 
O6 O2- 4 c 0.2713(7) 0.75 0.060(1) 1. 0 0.3(2) 
O7 O2- 4 c 0.9905(7) 0.25 0.164(1) 1. 0 0.4(2) 
O8 O2- 4 c 0.9954(8) 0.75 0.295(1) 1. 0 0.6(2) 
O9 O2- 4 c 0.4209(7) 0.75 0.443(1) 1. 0 0.7(2) 
O10 O2- 4 c 0.2680(8) 0.25 0.074(1) 1. 0 0.7(2) 
H1 H1+ 4 c 0.26(1) 0.25 0.95(2) 1. 0 0.5(2) 

#End of data_9245-ICSD


