data_420855-ICSD
#?2014 by Fachinformationszentrum Karlsruhe, and the U.S. Secretary of 
#Commerce on behalf of the United States.  All rights reserved.
_database_code_ICSD                420855
_audit_creation_date               2010/08/01
_chemical_name_systematic
;
Disilver Tetroxodivanadium Tetrakis(iodate(V))
;
_chemical_formula_structural       'Ag2 (V2 O4) (I O3)4'
_chemical_formula_sum              'Ag2 I4 O16 V2'
_publ_section_title
;
Syntheses and crystal structures of four new silver(I) iodates with 
d(0)-transition cations
;
loop_
_citation_id
_citation_journal_abbrev
_citation_year
_citation_journal_volume
_citation_page_first
_citation_page_last
_citation_journal_id_ASTM
primary 'Dalton Transactions' 2010 39 1473 1479 DTARAF
_publ_author_name
;
Sun Chuan Fu;Hu Chunli;Kong Fang;Yang Bingping;Mao Jiang Gao
;
_cell_length_a                     17.5991(10)
_cell_length_b                     10.7094(5)
_cell_length_c                     14.2861(7)
_cell_angle_alpha                  90.00
_cell_angle_beta                   90.00
_cell_angle_gamma                  90.00
_cell_volume                       2692.58
_cell_formula_units_Z              8
_symmetry_space_group_name_H-M     'P c c n'
_symmetry_Int_Tables_number        56
_refine_ls_R_factor_all            .043
loop_
_symmetry_equiv_pos_site_id
_symmetry_equiv_pos_as_xyz
  1	'x, -y+.5, z+.5'
  2	'-x+.5, y, z+.5'
  3	'x+.5, y+.5, -z'
  4	'-x, -y, -z'
  5	'-x, y+.5, -z+.5'
  6	'x+.5, -y, -z+.5'
  7	'-x+.5, -y+.5, z'
  8	'x, y, z'
loop_
_atom_type_symbol
_atom_type_oxidation_number
Ag1+	1
I5+	5
O2-	-2
V5+	5
loop_
_atom_site_label
_atom_site_type_symbol
_atom_site_symmetry_multiplicity
_atom_site_Wyckoff_symbol
_atom_site_fract_x
_atom_site_fract_y
_atom_site_fract_z
_atom_site_occupancy
_atom_site_attached_hydrogens
_atom_site_U_iso_or_equiv
Ag1 Ag1+ 8 e 0.36953(4) 0.24720(7) 0.01270(5) 1 0 0.02490(19) 
Ag2 Ag1+ 8 e 0.36502(4) 0.24079(7) 0.24187(5) 1 0 0.02595(19) 
V1 V5+ 8 e 0.39499(7) -0.23628(13) 0.26526(9) 1 0 0.0112(3) 
V2 V5+ 8 e 0.38873(8) -0.23747(13) 0.50939(8) 1 0 0.0118(3) 
I1 I5+ 8 e 0.28296(3) 0.48602(5) 0.12415(3) 1 0 0.01399(15) 
I2 I5+ 8 e 0.48748(3) -0.00363(5) 0.12370(3) 1 0 0.01164(16) 
I3 I5+ 8 e 0.29346(3) 0.51762(5) 0.37687(3) 1 0 0.01177(15) 
I4 I5+ 8 e 0.51806(3) -0.04032(5) 0.62447(3) 1 0 0.01286(16) 
O1 O2- 8 e 0.3804(3) 0.4311(6) 0.1229(4) 1 0 0.0190(12) 
O2 O2- 8 e 0.2534(3) 0.3930(6) 0.2253(4) 1 0 0.0183(12) 
O3 O2- 8 e 0.2498(3) 0.3899(6) 0.0274(4) 1 0 0.0173(12) 
O4 O2- 8 e 0.3966(3) 0.0716(6) 0.1226(4) 1 0 0.0204(13) 
O5 O2- 8 e 0.4769(3) -0.1161(6) 0.0278(3) 1 0 0.0152(11) 
O6 O2- 8 e 0.4728(3) -0.1120(6) 0.2241(3) 1 0 0.0159(11) 
O7 O2- 8 e 0.3343(3) 0.6085(6) 0.2787(4) 1 0 0.0169(11) 
O8 O2- 8 e 0.3271(3) 0.6189(6) 0.4717(4) 1 0 0.0203(12) 
O9 O2- 8 e 0.3659(3) 0.3985(6) 0.3796(4) 1 0 0.0190(13) 
O10 O2- 8 e 0.4858(3) -0.1345(6) 0.7220(4) 1 0 0.0186(12) 
O11 O2- 8 e 0.6126(4) -0.1036(7) 0.6207(4) 1 0 0.0246(14) 
O12 O2- 8 e 0.4806(3) -0.1288(6) 0.5229(4) 1 0 0.0181(12) 
O13 O2- 8 e 0.3321(3) -0.1263(6) 0.4760(4) 1 0 0.0176(12) 
O14 O2- 8 e 0.3706(3) -0.2420(6) 0.6245(3) 1 0 0.0138(12) 
O15 O2- 8 e 0.4337(3) -0.2495(5) 0.3737(3) 1 0 0.0123(12) 
O16 O2- 8 e 0.3260(3) -0.1404(6) 0.2791(4) 1 0 0.0208(12) 

loop_
_atom_site_aniso_label
_atom_site_aniso_type_symbol
_atom_site_aniso_U_11
_atom_site_aniso_U_22
_atom_site_aniso_U_33
_atom_site_aniso_U_12
_atom_site_aniso_U_13
_atom_site_aniso_U_23
Ag1 Ag1+ 0.0356(4) 0.0182(4) 0.0209(3) -0.0009(3) 0.0017(3) -0.0021(2)
Ag2 Ag1+ 0.0345(4) 0.0212(4) 0.0221(3) 0.0069(3) -0.0041(3) -0.0016(3)
V1 V5+ 0.0153(6) 0.0111(6) 0.0072(5) 0.0011(5) 0.0020(5) -0.0001(4)
V2 V5+ 0.0150(6) 0.0109(7) 0.0095(5) 0.0002(5) -0.0017(4) -0.0001(4)
I1 I5+ 0.0166(3) 0.0135(3) 0.0118(3) 0.00082(19) -0.00044(17) 0.00003(17)
I2 I5+ 0.0141(3) 0.0120(3) 0.0088(2) -0.00144(18) -0.00003(15) 0.00024(16)
I3 I5+ 0.0121(3) 0.0121(3) 0.0111(3) -0.00088(18) 0.00044(15) -0.00010(16)
I4 I5+ 0.0173(3) 0.0129(3) 0.0084(2) -0.00328(19) -0.00060(15) 0.00039(16)
O1 O2- 0.016(3) 0.021(3) 0.021(3) 0.000(3) 0.004(2) -0.004(2)
O2 O2- 0.022(3) 0.017(3) 0.016(3) -0.003(2) 0.005(2) 0.005(2)
O3 O2- 0.021(3) 0.017(3) 0.014(2) -0.002(2) -0.003(2) -0.003(2)
O4 O2- 0.018(3) 0.026(4) 0.017(3) 0.002(3) -0.002(2) -0.002(2)
O5 O2- 0.022(3) 0.014(3) 0.009(2) -0.005(2) -0.001(2) -0.002(2)
O6 O2- 0.025(3) 0.015(3) 0.007(2) -0.008(2) -0.002(2) 0.003(2)
O7 O2- 0.022(3) 0.018(3) 0.010(2) -0.007(2) 0.002(2) 0.003(2)
O8 O2- 0.023(3) 0.024(3) 0.014(3) -0.007(3) -0.001(2) -0.004(2)
O9 O2- 0.021(3) 0.016(3) 0.020(3) 0.006(2) 0.002(2) 0.002(2)
O10 O2- 0.029(3) 0.016(3) 0.011(2) -0.007(2) 0.000(2) 0.003(2)
O11 O2- 0.026(3) 0.028(4) 0.020(3) -0.002(3) 0.000(2) -0.001(2)
O12 O2- 0.025(3) 0.021(3) 0.009(2) -0.007(2) 0.000(2) 0.001(2)
O13 O2- 0.020(3) 0.022(3) 0.011(2) 0.006(2) 0.001(2) 0.003(2)
O14 O2- 0.017(3) 0.015(3) 0.010(3) 0.000(2) 0.0008(18) 0.001(2)
O15 O2- 0.011(3) 0.016(3) 0.010(2) 0.002(2) -0.0018(17) -0.001(2)
O16 O2- 0.026(3) 0.016(3) 0.021(3) 0.008(2) 0.002(2) -0.003(2)
#End of data_420855-ICSD


