data_83448-ICSD
#?2014 by Fachinformationszentrum Karlsruhe, and the U.S. Secretary of 
#Commerce on behalf of the United States.  All rights reserved.
_database_code_ICSD                83448
_audit_creation_date               1998/06/26
_chemical_name_systematic          'Calcium Iron Catena-disilicate'
_chemical_formula_structural       'Ca Fe (Si2 O6)'
_chemical_formula_sum              'Ca1 Fe1 O6 Si2'
_chemical_name_mineral             Hedenbergite
_publ_section_title
;
Single-crystal compression and crystal structure of clinopyroxene up 
to 10 GPa
;
loop_
_citation_id
_citation_journal_abbrev
_citation_year
_citation_journal_volume
_citation_page_first
_citation_page_last
_citation_journal_id_ASTM
primary 'American Mineralogist' 1997 82 245 258 AMMIAY
_publ_author_name
;
Zhang, L.;Ahsbahs, H.;Hafner, S.S.;Kutoglu, A.
;
_cell_length_a                     9.649(3)
_cell_length_b                     8.720(3)
_cell_length_c                     5.116(3)
_cell_angle_alpha                  90.
_cell_angle_beta                   103.76(3)
_cell_angle_gamma                  90.
_cell_volume                       418.1
_cell_formula_units_Z              4
_symmetry_space_group_name_H-M     'C 1 2/c 1'
_symmetry_Int_Tables_number        15
_refine_ls_R_factor_all            .026
loop_
_symmetry_equiv_pos_site_id
_symmetry_equiv_pos_as_xyz
  1	'x, -y, z+.5'
  2	'-x, -y, -z'
  3	'-x, y, -z+.5'
  4	'x, y, z'
  5	'x+.5, -y+.5, z+.5'
  6	'-x+.5, -y+.5, -z'
  7	'-x+.5, y+.5, -z+.5'
  8	'x+.5, y+.5, z'
loop_
_atom_type_symbol
_atom_type_oxidation_number
Ca2+	2
Fe2+	2
O2-	-2
Si4+	4
loop_
_atom_site_label
_atom_site_type_symbol
_atom_site_symmetry_multiplicity
_atom_site_Wyckoff_symbol
_atom_site_fract_x
_atom_site_fract_y
_atom_site_fract_z
_atom_site_occupancy
_atom_site_attached_hydrogens
_atom_site_B_iso_or_equiv
Ca1 Ca2+ 4 e 0 0.30506(10) 0.25 1. 0 0.53(2) 
Fe1 Fe2+ 4 e 0 0.91031(7) 0.25 1. 0 0.42(1) 
Si1 Si4+ 8 f 0.28757(17) 0.09506(9) 0.23088(17) 1. 0 0.39(2) 
O1 O2- 8 f 0.11951(43) 0.09289(21) 0.15248(42) 1. 0 0.61(4) 
O2 O2- 8 f 0.35991(40) 0.25266(24) 0.33002(43) 1. 0 0.74(4) 
O3 O2- 8 f 0.35335(44) 0.02593(22) 0.98444(48) 1. 0 0.62(4) 

#End of data_83448-ICSD


