data_2378-ICSD
#?2014 by Fachinformationszentrum Karlsruhe, and the U.S. Secretary of 
#Commerce on behalf of the United States.  All rights reserved.
_database_code_ICSD                2378
_audit_creation_date               1980/01/01
_audit_update_record               2012/02/01
_chemical_name_systematic          'Dicesium Dioxozincate'
_chemical_formula_structural       'Cs2 (Zn O2)'
_chemical_formula_sum              'Cs2 O2 Zn1'
_publ_section_title
;
Neue Oxozincate der Alkalimetalle: Rb2 (Zn O2) und Cs2 (Zn O2)
;
loop_
_citation_id
_citation_journal_abbrev
_citation_year
_citation_journal_volume
_citation_page_first
_citation_page_last
_citation_journal_id_ASTM
primary 'Zeitschrift fuer Anorganische und Allgemeine Chemie (1950) (DE)'
 1978 444 30 46 ZAACAB
_publ_author_name                  'Wambach, K.R.;Hoppe, R.'
_cell_length_a                     9.85
_cell_length_b                     6.619
_cell_length_c                     16.25999
_cell_angle_alpha                  90.
_cell_angle_beta                   116.76
_cell_angle_gamma                  90.
_cell_volume                       946.57
_cell_formula_units_Z              8
_symmetry_space_group_name_H-M     'P 1 21/c 1'
_symmetry_Int_Tables_number        14
_refine_ls_R_factor_all            .066
loop_
_symmetry_equiv_pos_site_id
_symmetry_equiv_pos_as_xyz
  1	'x, -y+.5, z+.5'
  2	'-x, -y, -z'
  3	'-x, y+.5, -z+.5'
  4	'x, y, z'
loop_
_atom_type_symbol
_atom_type_oxidation_number
Cs1+	1
O2-	-2
Zn2+	2
loop_
_atom_site_label
_atom_site_type_symbol
_atom_site_symmetry_multiplicity
_atom_site_Wyckoff_symbol
_atom_site_fract_x
_atom_site_fract_y
_atom_site_fract_z
_atom_site_occupancy
_atom_site_attached_hydrogens
Cs1 Cs1+ 4 e 0.3212(1) 0.9090(1) 0.7404(1) 1. 0 
Cs2 Cs1+ 4 e 0.1444(1) 0.8263(1) 0.4758(1) 1. 0 
Cs3 Cs1+ 4 e 0.0725(1) 0.3598(1) 0.3373(1) 1. 0 
Cs4 Cs1+ 4 e 0.4275(1) 0.0761(1) 0.3794(1) 1. 0 
Zn1 Zn2+ 4 e 0.4140(2) 0.4453(2) 0.5401(1) 1. 0 
Zn2 Zn2+ 4 e 0.2453(2) 0.3661(2) 0.6274(1) 1. 0 
O1 O2- 4 e 0.370(1) 0.620(1) 0.4318(6) 1. 0 
O2 O2- 4 e 0.382(1) 0.588(1) 0.6409(6) 1. 0 
O3 O2- 4 e 0.272(1) 0.221(2) 0.5318(7) 1. 0 
O4 O2- 4 e 0.860(1) 0.695(2) 0.3066(6) 1. 0 

loop_
_atom_site_aniso_label
_atom_site_aniso_type_symbol
_atom_site_aniso_U_11
_atom_site_aniso_U_22
_atom_site_aniso_U_33
_atom_site_aniso_U_12
_atom_site_aniso_U_13
_atom_site_aniso_U_23
Cs1 Cs1+ 0.0220(4) 0.0219(4) 0.0185(3) 0.0032(3) 0.0067(3) -.0035(3)
Cs2 Cs1+ 0.0174(3) 0.0164(3) 0.0262(4) 0.0004(3) 0.0039(3) -.0027(3)
Cs3 Cs1+ 0.0207(3) 0.0252(4) 0.0211(4) 0.0021(3) 0.0086(3) -.0021(3)
Cs4 Cs1+ 0.0208(4) 0.0217(4) 0.0278(4) -.0013(3) 0.0078(3) 0.0019(3)
Zn1 Zn2+ 0.0140(6) 0.0141(6) 0.0144(6) 0.0089(5) 0.0061(5) -.0001(5)
Zn2 Zn2+ 0.132(6) 0.0196(6) 0.0171(6) 0.0000(5) 0.0016(5) 0.0023(5)
O1 O2- 0.017(3) 0.024(3) 0.024(3) 0.005(3) 0.013(3) 0.003(3)
O2 O2- 0.023(3) 0.021(3) 0.013(3) -.006(3) 0.008(2) -.009(3)
O3 O2- 0.032(3) 0.024(3) 0.036(3) -.016(3) 0.018(3) -.017(3)
O4 O2- 0.020(3) 0.033(3) 0.018(3) 0.000(3) 0.010(3) 0.003(3)
#End of data_2378-ICSD


