data_73887-ICSD
#?2014 by Fachinformationszentrum Karlsruhe, and the U.S. Secretary of 
#Commerce on behalf of the United States.  All rights reserved.
_database_code_ICSD                73887
_audit_creation_date               1995/01/10
_chemical_name_systematic          'Sodium Copper(I) Zirconium Sulfide'
_chemical_formula_structural       'Na Cu Zr S3'
_chemical_formula_sum              'Cu1 Na1 S3 Zr1'
_publ_section_title
;
Synthesis and structures of the new group IV chalcogenides NaCuTiS3 
and NaCuZrQ3 (Q=S,Se,Te)
;
loop_
_citation_id
_citation_journal_abbrev
_citation_year
_citation_journal_volume
_citation_page_first
_citation_page_last
_citation_journal_id_ASTM
primary 'Journal of Solid State Chemistry' 1993 105 580 587 JSSCBI
_publ_author_name
;
Mansuetto, M.F.;Keane, P.M.;Ibers, J.A.
;
_cell_length_a                     3.688(1)
_cell_length_b                     12.838(5)
_cell_length_c                     9.726(3)
_cell_angle_alpha                  90.
_cell_angle_beta                   90.
_cell_angle_gamma                  90.
_cell_volume                       460.49
_cell_formula_units_Z              4
_symmetry_space_group_name_H-M     'C m c m'
_symmetry_Int_Tables_number        63
_refine_ls_R_factor_all            .022
loop_
_symmetry_equiv_pos_site_id
_symmetry_equiv_pos_as_xyz
  1	'-x, y, -z+.5'
  2	'-x, -y, z+.5'
  3	'-x, y, z'
  4	'-x, -y, -z'
  5	'x, -y, z+.5'
  6	'x, y, -z+.5'
  7	'x, -y, -z'
  8	'x, y, z'
  9	'-x+.5, y+.5, -z+.5'
 10	'-x+.5, -y+.5, z+.5'
 11	'-x+.5, y+.5, z'
 12	'-x+.5, -y+.5, -z'
 13	'x+.5, -y+.5, z+.5'
 14	'x+.5, y+.5, -z+.5'
 15	'x+.5, -y+.5, -z'
 16	'x+.5, y+.5, z'
loop_
_atom_type_symbol
_atom_type_oxidation_number
Cu1+	1
Na1+	1
S2-	-2
Zr4+	4
loop_
_atom_site_label
_atom_site_type_symbol
_atom_site_symmetry_multiplicity
_atom_site_Wyckoff_symbol
_atom_site_fract_x
_atom_site_fract_y
_atom_site_fract_z
_atom_site_occupancy
_atom_site_attached_hydrogens
_atom_site_U_iso_or_equiv
Na1 Na1+ 4 c 0 0.7482(2) 0.25 1. 0 0.0169(10) 
Cu1 Cu1+ 4 c 0 0.46692(5) 0.25 1. 0 0.0065(3) 
Zr1 Zr4+ 4 a 0 0 0 1. 0 0.0049(2) 
S1 S2- 8 f 0 0.36743(6) 0.05630(9) 1. 0 0.0055(3) 
S2 S2- 4 c 0 0.07682(9) 0.25 1. 0 0.0055(5) 

#End of data_73887-ICSD


