data_36310-ICSD
#?2014 by Fachinformationszentrum Karlsruhe, and the U.S. Secretary of 
#Commerce on behalf of the United States.  All rights reserved.
_database_code_ICSD                36310
_audit_creation_date               1980/01/01
_audit_update_record               2002/04/01
_chemical_name_systematic          'Magnesium Tungstate'
_chemical_formula_structural       'Mg (W O4)'
_chemical_formula_sum              'Mg1 O4 W1'
_publ_section_title
;
Untersuchungen ueber Kristallstrukturen des Wolframittypus und des 
Scheelittypus
;
loop_
_citation_id
_citation_journal_abbrev
_citation_year
_citation_journal_volume
_citation_page_first
_citation_page_last
_citation_journal_id_ASTM
primary
;
Skrifter utgitt av det Norske Videnskaps-Akademi i Oslo 1: Matematisk-
Naturvidenskapelig Klasse
;
 1929 1929 1 618 SUNVAQ
_publ_author_name                  'Broch, E.K.'
_cell_length_a                     4.69
_cell_length_b                     5.67
_cell_length_c                     4.93
_cell_angle_alpha                  90.
_cell_angle_beta                   89.67
_cell_angle_gamma                  90.
_cell_volume                       131.1
_cell_formula_units_Z              2
_symmetry_space_group_name_H-M     'P 1 2/c 1'
_symmetry_Int_Tables_number        13
loop_
_symmetry_equiv_pos_site_id
_symmetry_equiv_pos_as_xyz
  1	'x, -y, z+.5'
  2	'-x, -y, -z'
  3	'-x, y, -z+.5'
  4	'x, y, z'
loop_
_atom_type_symbol
_atom_type_oxidation_number
Mg2+	2
O2-	-2
W6+	6
loop_
_atom_site_label
_atom_site_type_symbol
_atom_site_symmetry_multiplicity
_atom_site_Wyckoff_symbol
_atom_site_fract_x
_atom_site_fract_y
_atom_site_fract_z
_atom_site_occupancy
_atom_site_attached_hydrogens
W1 W6+ 2 e 0 0.182(3) 0.25 1. 0 
Mg1 Mg2+ 2 f 0.5 0.68 0.25 1. 0 
O1 O2- 4 g 0.2 -.04 0.1 1. 0 
O2 O2- 4 g 0.2 0.4 0.4 1. 0 

#End of data_36310-ICSD


