data_50483-ICSD
#?2014 by Fachinformationszentrum Karlsruhe, and the U.S. Secretary of 
#Commerce on behalf of the United States.  All rights reserved.
_database_code_ICSD                50483
_audit_creation_date               1999/11/30
_chemical_name_systematic          'Barium Copper Aluminium Fluoride'
_chemical_formula_structural       'Ba2 Cu2 Al F11'
_chemical_formula_sum              'Al1 Ba2 Cu2 F11'
_publ_section_title
;
The crystal structure fo Ba2 Cu2 Al F11: a new structure type in 
copper fluoride crystal chemistry
;
loop_
_citation_id
_citation_journal_abbrev
_citation_year
_citation_journal_volume
_citation_page_first
_citation_page_last
_citation_journal_id_ASTM
primary 'Zeitschrift fuer Anorganische und Allgemeine Chemie (1950) (DE)'
 1998 624 331 334 ZAACAB
_publ_author_name
;
Dupont, N.;de Kozak, A.;Gredin, P.;Samouel, M.
;
_cell_length_a                     7.301(1)
_cell_length_b                     7.301(1)
_cell_length_c                     14.145(2)
_cell_angle_alpha                  90.
_cell_angle_beta                   90.
_cell_angle_gamma                  120.
_cell_volume                       652.98
_cell_formula_units_Z              3
_symmetry_space_group_name_H-M     'P 32'
_symmetry_Int_Tables_number        145
_refine_ls_R_factor_all            .062
loop_
_symmetry_equiv_pos_site_id
_symmetry_equiv_pos_as_xyz
  1	'-x+y, -x, z+.3333'
  2	'-y, x-y, z+.6667'
  3	'x, y, z'
loop_
_atom_type_symbol
_atom_type_oxidation_number
Al3+	3
Ba2+	2
Cu2+	2
F1-	-1
loop_
_atom_site_label
_atom_site_type_symbol
_atom_site_symmetry_multiplicity
_atom_site_Wyckoff_symbol
_atom_site_fract_x
_atom_site_fract_y
_atom_site_fract_z
_atom_site_occupancy
_atom_site_attached_hydrogens
Ba1 Ba2+ 3 a 0.6518(2) 0.4640(2) 0 1. 0 
Ba2 Ba2+ 3 a 0.3244(2) 0.8274(2) 0.1328(1) 1. 0 
Cu1 Cu2+ 3 a 0.3514(3) 0.3563(3) 0.2229(2) 1. 0 
Cu2 Cu2+ 3 a 0.9763(4) 0.2081(3) 0.0542(1) 1. 0 
Al1 Al3+ 3 a 0.8421(8) 0.8334(8) 0.2050(3) 1. 0 
F1 F1- 3 a 0.5255(18) 0.2476(19) 0.1822(8) 1. 0 
F2 F1- 3 a 0.6796(16) 0.0898(19) 0.0231(8) 1. 0 
F3 F1- 3 a 0.2619(19) 0.3391(21) 0.0949(9) 1. 0 
F4 F1- 3 a 0.1129(17) 0.9928(19) 0.2441(7) 1. 0 
F5 F1- 3 a 0.2046(21) 0.4914(22) 0.2621(10) 1. 0 
F6 F1- 3 a 0.0278(22) 0.4799(20) 0.0205(12) 1. 0 
F7 F1- 3 a 0.9337(18) 0.9285(21) 0.0851(8) 1. 0 
F8 F1- 3 a 0.9085(20) 0.6286(19) 0.1789(10) 1. 0 
F9 F1- 3 a 0.5847(18) 0.6720(18) 0.1525(8) 1. 0 
F10 F1- 3 a 0.7377(21) 0.7107(21) 0.3146(9) 1. 0 
F11 F1- 3 a 0.7938(26) 0.0499(22) 0.2184(9) 1. 0 

loop_
_atom_site_aniso_label
_atom_site_aniso_type_symbol
_atom_site_aniso_U_11
_atom_site_aniso_U_22
_atom_site_aniso_U_33
_atom_site_aniso_U_12
_atom_site_aniso_U_13
_atom_site_aniso_U_23
Ba1 Ba2+ 0.0115(3) 0.0228(3) 0.0080(3) 0.0068(3) 0.0012(3) 0.0006(3)
Ba2 Ba2+ 0.0120(4) 0.0128(4) 0.0147(4) 0.0067(3) 0.0032(3) 0.0047(3)
Cu1 Cu2+ 0.0123(7) 0.0120(7) 0.0076(6) 0.0081(6) 0.0008(6) 0.0018(6)
Cu2 Cu2+ 0.0103(8) 0.0113(8) 0.0078(7) 0.0053(6) -.0021(6) -.0005(6)
Al1 Al3+ 0.0081(17) 0.0066(16) 0.0058(14) 0.0024(15) -.0001(3) 0.0003(13)
F1 F1- 0.0084(38) 0.0165(45) 0.0145(41) 0.0062(34) -.0014(33) -.0021(34)
F2 F1- 0.0061(34) 0.0182(45) 0.0116(36) 0.0071(34) -.0024(29) -.0047(33)
F3 F1- 0.0091(41) 0.0185(51) 0.0194(49) -.0022(37) -.0104(37) 0.0043(41)
F4 F1- 0.0103(37) 0.0158(45) 0.0085(36) -.0001(34) -.0057(28) -.0015(31)
F5 F1- 0.0177(50) 0.0217(56) 0.0242(53) 0.0130(46) 0.0106(44) 0.0051(44)
F6 F1- 0.0188(53) 0.0100(43) 0.0377(73) 0.0036(39) -.0171(54) -.0032(45)
F7 F1- 0.0110(39) 0.0213(50) 0.0122(39) 0.0083(38) 0.0001(32) 0.0039(36)
F8 F1- 0.0170(46) 0.0100(41) 0.0267(58) 0.0103(39) 0.0051(40) 0.0033(38)
F9 F1- 0.0118(40) 0.0129(41) 0.0144(41) 0.0042(34) -.0019(33) -.0026(34)
F10 F1- 0.0173(46) 0.0162(46) 0.0150(43) 0.0053(39) 0.0063(38) 0.0109(38)
F11 F1- 0.0379(73) 0.0182(53) 0.0166(48) 0.0204(56) -.0082(48) -.0089(41)
#End of data_50483-ICSD


