data_24118-ICSD
#?2014 by Fachinformationszentrum Karlsruhe, and the U.S. Secretary of 
#Commerce on behalf of the United States.  All rights reserved.
_database_code_ICSD                24118
_audit_creation_date               1980/01/01
_audit_update_record               2012/02/01
_chemical_name_systematic          'Dipotassium Trimolybdate'
_chemical_formula_structural       'K2 (Mo3 O10)'
_chemical_formula_sum              'K2 Mo3 O10'
_publ_section_title
;
The crystal structure of dipotassium trimolybdate
;
loop_
_citation_id
_citation_journal_abbrev
_citation_year
_citation_journal_volume
_citation_journal_issue
_citation_page_first
_citation_page_last
_citation_journal_id_ASTM
primary 'Acta Chemica Scandinavica (1-27,1973-42,1988)' 1966 20- 2195 2201 ACSAA4
2 'Nova Acta Soc. Sci. Upsal., Ser. IV' 1950 15 1 1 22 NASSU3
3 'Powder Diffraction' 1986 1- 334 345 PODIE2
_publ_author_name                  'Seleborg, M.'
_cell_length_a                     13.952(9)
_cell_length_b                     7.757(7)
_cell_length_c                     9.015(11)
_cell_angle_alpha                  90.
_cell_angle_beta                   99.18(28)
_cell_angle_gamma                  90.
_cell_volume                       963.16
_cell_formula_units_Z              4
_symmetry_space_group_name_H-M     'C 1 2/c 1'
_symmetry_Int_Tables_number        15
_refine_ls_R_factor_all            .094
loop_
_symmetry_equiv_pos_site_id
_symmetry_equiv_pos_as_xyz
  1	'x, -y, z+.5'
  2	'-x, -y, -z'
  3	'-x, y, -z+.5'
  4	'x, y, z'
  5	'x+.5, -y+.5, z+.5'
  6	'-x+.5, -y+.5, -z'
  7	'-x+.5, y+.5, -z+.5'
  8	'x+.5, y+.5, z'
loop_
_atom_type_symbol
_atom_type_oxidation_number
K1+	1
Mo6+	6
O2-	-2
loop_
_atom_site_label
_atom_site_type_symbol
_atom_site_symmetry_multiplicity
_atom_site_Wyckoff_symbol
_atom_site_fract_x
_atom_site_fract_y
_atom_site_fract_z
_atom_site_occupancy
_atom_site_attached_hydrogens
_atom_site_B_iso_or_equiv
K1 K1+ 8 f 0.3160(7) 0.0957(10) 0.8444(14) 1. 0 2.26 
Mo1 Mo6+ 8 f 0.10781(23) 0.07905(32) 0.51844(45) 1. 0 1.169 
Mo2 Mo6+ 4 e 0 0.69648(45) 0.25 1. 0 0.972 
O1 O2- 8 f 0.2047(21) 0.0513(34) 0.0757(40) 1. 0 2.26 
O2 O2- 8 f 0.0253(24) 0.0946(34) 0.9056(40) 1. 0 2.75 
O3 O2- 8 f 0.1394(26) 0.1865(38) 0.3771(46) 1. 0 3.38 
O4 O2- 8 f 0.3766(18) 0.2599(28) 0.3211(36) 1. 0 1.25 
O5 O2- 8 f 0.4445(22) 0.0622(34) 0.1125(40) 1. 0 2.43 

#End of data_24118-ICSD


