data_280490-ICSD
#?2014 by Fachinformationszentrum Karlsruhe, and the U.S. Secretary of 
#Commerce on behalf of the United States.  All rights reserved.
_database_code_ICSD                280490
_audit_creation_date               2002/04/01
_audit_update_record               2006/04/01
_chemical_name_systematic
;
Potassium Hexaammineruthenium(III) Bis(chlorate(VIII)) Dichloride
;
_chemical_formula_structural       'K (Ru (N H3)6) (Cl O4)2 Cl2'
_chemical_formula_sum              'H18 Cl4 K1 N6 O8 Ru1'
_publ_section_title
;
Phase transitions and structures at 10, 92 and 293 K in eight 
trigonal double salts M(I) (M(III) (N H3)6) (Cl O4)2 X2
;
loop_
_citation_id
_citation_journal_abbrev
_citation_year
_citation_journal_volume
_citation_page_first
_citation_page_last
_citation_journal_id_ASTM
primary 'Acta Crystallographica, Section B: Structural Science'
 1998 54 613 625 ASBSDK
_publ_author_name
;
Figgis, B.;Sobolev, A.;Reynolds, P.
;
_cell_length_a                     6.965(2)
_cell_length_b                     6.965(2)
_cell_length_c                     27.3330(90)
_cell_angle_alpha                  90.
_cell_angle_beta                   90.
_cell_angle_gamma                  120.
_cell_volume                       1148.31
_cell_formula_units_Z              3
_symmetry_space_group_name_H-M     'R -3 m H'
_symmetry_Int_Tables_number        166
_refine_ls_R_factor_all            .016
loop_
_symmetry_equiv_pos_site_id
_symmetry_equiv_pos_as_xyz
  1	'x-y, -y, -z'
  2	'-x, -x+y, -z'
  3	'y, x, -z'
  4	'x-y, x, -z'
  5	'y, -x+y, -z'
  6	'-x, -y, -z'
  7	'-x+y, y, z'
  8	'x, x-y, z'
  9	'-y, -x, z'
 10	'-x+y, -x, z'
 11	'-y, x-y, z'
 12	'x, y, z'
 13	'x-y+.6666, -y+.3333, -z+.3333'
 14	'x-y+.3333, -y+.6666, -z+.6666'
 15	'-x+.6666, -x+y+.3333, -z+.3333'
 16	'-x+.3333, -x+y+.6666, -z+.6666'
 17	'y+.6666, x+.3333, -z+.3333'
 18	'y+.3333, x+.6666, -z+.6666'
 19	'x-y+.6666, x+.3333, -z+.3333'
 20	'x-y+.3333, x+.6666, -z+.6666'
 21	'y+.6666, -x+y+.3333, -z+.3333'
 22	'y+.3333, -x+y+.6666, -z+.6666'
 23	'-x+.6666, -y+.3333, -z+.3333'
 24	'-x+.3333, -y+.6666, -z+.6666'
 25	'-x+y+.6666, y+.3333, z+.3333'
 26	'-x+y+.3333, y+.6666, z+.6666'
 27	'x+.6666, x-y+.3333, z+.3333'
 28	'x+.3333, x-y+.6666, z+.6666'
 29	'-y+.6666, -x+.3333, z+.3333'
 30	'-y+.3333, -x+.6666, z+.6666'
 31	'-x+y+.6666, -x+.3333, z+.3333'
 32	'-x+y+.3333, -x+.6666, z+.6666'
 33	'-y+.6666, x-y+.3333, z+.3333'
 34	'-y+.3333, x-y+.6666, z+.6666'
 35	'x+.6666, y+.3333, z+.3333'
 36	'x+.3333, y+.6666, z+.6666'
loop_
_atom_type_symbol
_atom_type_oxidation_number
Cl1-	-1
Cl7+	7
H1+	1
K1+	1
N3-	-3
O2-	-2
Ru3+	3
loop_
_atom_site_label
_atom_site_type_symbol
_atom_site_symmetry_multiplicity
_atom_site_Wyckoff_symbol
_atom_site_fract_x
_atom_site_fract_y
_atom_site_fract_z
_atom_site_occupancy
_atom_site_attached_hydrogens
_atom_site_U_iso_or_equiv
Ru1 Ru3+ 3 a 0 0 0 1. 0 .0054(2) 
N1 N3- 18 h 0.14369(11) -.14369(11) -.04323(5) 1. 0 .0117(3) 
Cl1 Cl7+ 6 c 0 0 0.18419(2) 1. 0 .0080(2) 
O1 O2- 6 c 0 0 0.13131(7) 1. 0 .0158(4) 
O2 O2- 18 h 0.11284(10) -.11284(10) 0.20218(4) 1. 0 .0140(3) 
Cl2 Cl1- 6 c 0 0 0.38012(2) 1. 0 .0100(2) 
K1 K1+ 3 b 0 0 0.5 1. 0 .0110(2) 
H1 H1+ 18 h 0.196(3) -.196(3) -.0259(10) 1. 0 0.033(8) 
H2 H1+ 36 i 0.055(4) -.247(4) -.0637(7) 1. 0 0.044(6) 

loop_
_atom_site_aniso_label
_atom_site_aniso_type_symbol
_atom_site_aniso_U_11
_atom_site_aniso_U_22
_atom_site_aniso_U_33
_atom_site_aniso_U_12
_atom_site_aniso_U_13
_atom_site_aniso_U_23
Ru1 Ru3+ 0.00586(16) 0.00586(16) 0.00455(18) 0.00293(8) 0 0
N1 N3- 0.0151(5) 0.0151(5) 0.0091(5) 0.0108(5) 0.0008(2) -.0008(2)
Cl1 Cl7+ 0.0087(2) 0.0087(2) 0.0065(3) 0.00437(10) 0 0
O1 O2- 0.0211(7) 0.0211(7) 0.0052(8) 0.0105(3) 0 0
O2 O2- 0.0164(4) 0.0164(4) 0.0143(5) 0.0121(5) -.0009(2) 0.0009(2)
Cl2 Cl1- 0.0102(2) 0.0102(2) 0.0098(3) 0.00508(10) 0 0
K1 K1+ 0.0112(3) 0.0112(3) 0.0104(3) 0.00562(13) 0 0
#End of data_280490-ICSD


