data_42463-ICSD
#?2014 by Fachinformationszentrum Karlsruhe, and the U.S. Secretary of 
#Commerce on behalf of the United States.  All rights reserved.
_database_code_ICSD                42463
_audit_creation_date               2000/07/15
_audit_update_record               2006/04/01
_chemical_name_systematic
;
Cesium Lithium Tetrafluoroberyllate
;
_chemical_formula_structural       'Cs Li (Be F4)'
_chemical_formula_sum              'Be1 Cs1 F4 Li1'
_publ_section_title
;
Structure des orthofluoroberyllates de lithium M Li Be F4
;
loop_
_citation_id
_citation_journal_abbrev
_citation_year
_citation_journal_volume
_citation_page_first
_citation_page_last
_citation_journal_id_ASTM
primary 'Acta Crystallographica B (24,1968-38,1982)' 1972 28 1383 1387 ACBCAR
2 'Materials Research Bulletin' 1970 5 409 417 MRBUAC
3 'Golden Book of Phase Transitions, Wroclaw' 2002 1 1 123 GBOPT5
_publ_author_name                  'le Roy, J.;Aleonard, S.'
_cell_length_a                     9.311
_cell_length_b                     5.391
_cell_length_c                     8.75
_cell_angle_alpha                  90.
_cell_angle_beta                   90.
_cell_angle_gamma                  90.25
_cell_volume                       439.21
_cell_formula_units_Z              4
_symmetry_space_group_name_H-M     'P 1 1 21/n'
_symmetry_Int_Tables_number        14
_refine_ls_R_factor_all            .114
loop_
_symmetry_equiv_pos_site_id
_symmetry_equiv_pos_as_xyz
  1	'x+.5, y+.5, -z+.5'
  2	'-x, -y, -z'
  3	'-x+.5, -y+.5, z+.5'
  4	'x, y, z'
loop_
_atom_type_symbol
_atom_type_oxidation_number
Be2+	2
Cs1+	1
F1-	-1
Li1+	1
loop_
_atom_site_label
_atom_site_type_symbol
_atom_site_symmetry_multiplicity
_atom_site_Wyckoff_symbol
_atom_site_fract_x
_atom_site_fract_y
_atom_site_fract_z
_atom_site_occupancy
_atom_site_attached_hydrogens
_atom_site_B_iso_or_equiv
Cs1 Cs1+ 4 e 0.245(6) 0.297(3) 0.003(4) 1. 0 0.5 
Li1 Li1+ 4 e 0.417(6) 0.758(28) 0.317(2) 1. 0 1.5 
Be1 Be2+ 4 e 0.070(2) 0.806(5) 0.226(2) 1. 0 1.87 
F1 F1- 4 e 0.062(5) 0.758(7) 0.053(1) 1. 0 1.8 
F2 F1- 4 e -.051(6) -.024(8) 0.273(5) 1. 0 1.8 
F3 F1- 4 e 0.021(3) 0.516(5) 0.262(6) 1. 0 1.8 
F4 F1- 4 e 0.275(4) 0.793(6) 0.227(4) 1. 0 1.8 

#End of data_42463-ICSD


