data_412862-ICSD
#?2014 by Fachinformationszentrum Karlsruhe, and the U.S. Secretary of 
#Commerce on behalf of the United States.  All rights reserved.
_database_code_ICSD                412862
_audit_creation_date               2003/10/01
_chemical_name_systematic          'Calcium Iron(III) Fluoride'
_chemical_formula_structural       'Ca Fe F5'
_chemical_formula_sum              'Ca1 F5 Fe1'
_publ_section_title                'Zur Kristallstruktur von Ca Fe F5'
loop_
_citation_id
_citation_journal_abbrev
_citation_year
_citation_journal_volume
_citation_page_first
_citation_page_last
_citation_journal_id_ASTM
primary 'Zeitschrift fuer Anorganische und Allgemeine Chemie (1950) (DE)'
 2003 629 365 367 ZAACAB
_publ_author_name                  'Graulich, J.;Massa, W.;Babel, D.'
_cell_length_a                     5.492(1)
_cell_length_b                     10.076(2)
_cell_length_c                     7.599(2)
_cell_angle_alpha                  90.
_cell_angle_beta                   110.02(3)
_cell_angle_gamma                  90.
_cell_volume                       395.1
_cell_formula_units_Z              4
_symmetry_space_group_name_H-M     'P 1 21/c 1'
_symmetry_Int_Tables_number        14
_refine_ls_R_factor_all            .0339
loop_
_symmetry_equiv_pos_site_id
_symmetry_equiv_pos_as_xyz
  1	'x, -y+.5, z+.5'
  2	'-x, -y, -z'
  3	'-x, y+.5, -z+.5'
  4	'x, y, z'
loop_
_atom_type_symbol
_atom_type_oxidation_number
Ca2+	2
F1-	-1
Fe3+	3
loop_
_atom_site_label
_atom_site_type_symbol
_atom_site_symmetry_multiplicity
_atom_site_Wyckoff_symbol
_atom_site_fract_x
_atom_site_fract_y
_atom_site_fract_z
_atom_site_occupancy
_atom_site_attached_hydrogens
_atom_site_U_iso_or_equiv
Fe1 Fe3+ 4 e 0.10314(8) 0.24644(5) 0.39963(10) 1. 0 0.00872(15) 
Ca1 Ca2+ 4 e 0.52694(13) -.01783(7) 0.25400(11) 1. 0 0.00987(19) 
F1 F1- 4 e 0.3864(4) 0.1184(2) 0.4448(3) 1. 0 0.0166(5) 
F2 F1- 4 e 0.3548(4) 0.3874(2) 0.4924(3) 1. 0 0.0155(5) 
F3 F1- 4 e 0.1214(4) 0.6036(2) 0.1878(4) 1. 0 0.0258(6) 
F4 F1- 4 e 0.1722(4) 0.8632(2) 0.1413(4) 1. 0 0.0262(6) 
F5 F1- 4 e 0.1499(4) 0.29351(18) 0.1621(3) 1. 0 0.0176(5) 

loop_
_atom_site_aniso_label
_atom_site_aniso_type_symbol
_atom_site_aniso_U_11
_atom_site_aniso_U_22
_atom_site_aniso_U_33
_atom_site_aniso_U_12
_atom_site_aniso_U_13
_atom_site_aniso_U_23
Fe1 Fe3+ 0.0097(2) 0.0088(2) 0.0078(3) 0.00001(19) 0.0031(2) 0.00002(19)
Ca1 Ca2+ 0.0104(3) 0.0093(3) 0.0100(3) -0.0014(3) 0.0034(3) -0.0009(3)
F1 F1- 0.0193(10) 0.0151(10) 0.0170(12) 0.0075(8) 0.0081(9) 0.0022(9)
F2 F1- 0.0180(11) 0.0135(10) 0.0140(12) -0.0057(8) 0.0041(9) -0.0024(9)
F3 F1- 0.0240(12) 0.0226(11) 0.0288(16) 0.0134(10) 0.0065(10) 0.0061(10)
F4 F1- 0.0183(11) 0.0285(12) 0.0320(15) -0.0135(10) 0.0090(11) -0.0045(12)
F5 F1- 0.0267(11) 0.0183(10) 0.0097(11) -0.0037(8) 0.0089(10) -0.0022(10)
#End of data_412862-ICSD


