data_36265-ICSD
#?2014 by Fachinformationszentrum Karlsruhe, and the U.S. Secretary of 
#Commerce on behalf of the United States.  All rights reserved.
_database_code_ICSD                36265
_audit_creation_date               1980/01/01
_audit_update_record               2002/04/01
_chemical_name_systematic          'Pentasodium Lanthanum Tungstate'
_chemical_formula_structural       'Na5 La (W O4)4'
_chemical_formula_sum              'La1 Na5 O16 W4'
_publ_section_title
;
Double molybdates and tungatates of alkali metals with lanthanum or 
bismuth
;
loop_
_citation_id
_citation_journal_abbrev
_citation_year
_citation_journal_volume
_citation_journal_issue
_citation_page_first
_citation_page_last
_citation_journal_id_ASTM
primary 'Arkiv foer Kemi, Mineralogi och Geologi, A' 1943 17 1 1 18 ARKGAJ
_publ_author_name                  'Sillen, L.G.;Sundvall, H.'
_cell_length_a                     11.6
_cell_length_b                     11.6
_cell_length_c                     11.546
_cell_angle_alpha                  90.
_cell_angle_beta                   90.
_cell_angle_gamma                  90.
_cell_volume                       1553.63
_cell_formula_units_Z              4
_symmetry_space_group_name_H-M     'I 41/a S'
_symmetry_Int_Tables_number        88
loop_
_symmetry_equiv_pos_site_id
_symmetry_equiv_pos_as_xyz
  1	'y, -x+.5, z+.25'
  2	'-y, x+.5, z+.25'
  3	'y, -x, -z'
  4	'-y, x, -z'
  5	'-x, -y+.5, -z+.25'
  6	'x, y+.5, -z+.25'
  7	'-x, -y, z'
  8	'x, y, z'
  9	'y+.5, -x, z+.75'
 10	'-y+.5, x, z+.75'
 11	'y+.5, -x+.5, -z+.5'
 12	'-y+.5, x+.5, -z+.5'
 13	'-x+.5, -y, -z+.75'
 14	'x+.5, y, -z+.75'
 15	'-x+.5, -y+.5, z+.5'
 16	'x+.5, y+.5, z+.5'
loop_
_atom_type_symbol
_atom_type_oxidation_number
La3+	3
Na1+	1
O2-	-2
W6+	6
loop_
_atom_site_label
_atom_site_type_symbol
_atom_site_symmetry_multiplicity
_atom_site_Wyckoff_symbol
_atom_site_fract_x
_atom_site_fract_y
_atom_site_fract_z
_atom_site_occupancy
_atom_site_attached_hydrogens
Na1 Na1+ 4 a 0 0 0 1. 0 
Na2 Na1+ 16 f 0.3 0.1 0 1. 0 
La1 La3+ 4 b 0 0 0.5 1. 0 
W1 W6+ 16 f 0.18 0.4 0.015 1. 0 
O1 O2- 16 f 0.05 0.4 -.06 1. 0 
O2 O2- 16 f 0.18 0.27 0.09 1. 0 
O3 O2- 16 f 0.31 0.4 -.06 1. 0 
O4 O2- 16 f 0.18 0.53 0.09 1. 0 

#End of data_36265-ICSD


