data_404017-ICSD
#?2014 by Fachinformationszentrum Karlsruhe, and the U.S. Secretary of 
#Commerce on behalf of the United States.  All rights reserved.
_database_code_ICSD                404017
_audit_creation_date               1996/04/22
_audit_update_record               2000/07/15
_chemical_name_systematic
;
Copper Potassium Diterbium Tetrakis(molybdate)
;
_chemical_formula_structural       'Cu K Tb2 (Mo O4)4'
_chemical_formula_sum              'Cu1 K1 Mo4 O16 Tb2'
_publ_section_title
;
Synthese und Roentgenstrukturanalyse von K Cu Gd2 Mo4 O16 und K Cu 
Tb2 Mo4 O16
;
loop_
_citation_id
_citation_journal_abbrev
_citation_year
_citation_journal_volume
_citation_page_first
_citation_page_last
_citation_journal_id_ASTM
primary 'Zeitschrift fuer Naturforschung, B: Chemical Sciences'
 1995 50 1794 1798 ZNBSEN
_publ_author_name                  'Mueller Buschbaum, H.;Gallinat, S.'
_cell_length_a                     5.2592(13)
_cell_length_b                     12.616(3)
_cell_length_c                     19.556(9)
_cell_angle_alpha                  90.
_cell_angle_beta                   92.93(4)
_cell_angle_gamma                  90.
_cell_volume                       1295.85
_cell_formula_units_Z              4
_symmetry_space_group_name_H-M     'C 1 2/c 1'
_symmetry_Int_Tables_number        15
_refine_ls_R_factor_all            .064
loop_
_symmetry_equiv_pos_site_id
_symmetry_equiv_pos_as_xyz
  1	'x, -y, z+.5'
  2	'-x, -y, -z'
  3	'-x, y, -z+.5'
  4	'x, y, z'
  5	'x+.5, -y+.5, z+.5'
  6	'-x+.5, -y+.5, -z'
  7	'-x+.5, y+.5, -z+.5'
  8	'x+.5, y+.5, z'
loop_
_atom_type_symbol
_atom_type_oxidation_number
Cu1+	1
K1+	1
Mo6+	6
O2-	-2
Tb3+	3
loop_
_atom_site_label
_atom_site_type_symbol
_atom_site_symmetry_multiplicity
_atom_site_Wyckoff_symbol
_atom_site_fract_x
_atom_site_fract_y
_atom_site_fract_z
_atom_site_occupancy
_atom_site_attached_hydrogens
Tb1 Tb3+ 8 f -.00145(2) 0.852600(9) 0.032000(6) 1. 0 
Mo1 Mo6+ 8 f 0.01306(4) 0.56101(2) 0.090960(11) 1. 0 
Mo2 Mo6+ 8 f 0.00779(3) 0.258600(15) 0.14727(1) 1. 0 
Cu1 Cu1+ 4 e 0 0.69161(4) 0.25 1. 0 
K1 K1+ 4 e 0 0.97160(6) 0.25 1. 0 
O1 O2- 8 f 0.8262(3) 0.23782(12) 0.43283(8) 1. 0 
O2 O2- 8 f 0.1606(3) 0.33157(11) 0.54305(8) 1. 0 
O3 O2- 8 f 0.7363(3) 0.48047(12) 0.53690(9) 1. 0 
O4 O2- 8 f 0.1251(3) 0.14163(14) 0.32765(9) 1. 0 
O5 O2- 8 f 0.8935(3) 0.41069(11) 0.67036(8) 1. 0 
O6 O2- 8 f 0.7724(3) 0.29763(12) 0.28791(9) 1. 0 
O7 O2- 8 f 0.7794(3) 0.45360(12) 0.39878(8) 1. 0 
O8 O2- 8 f 0.2502(2) 0.34896(12) 0.36729(7) 1. 0 

loop_
_atom_site_aniso_label
_atom_site_aniso_type_symbol
_atom_site_aniso_U_11
_atom_site_aniso_U_22
_atom_site_aniso_U_33
_atom_site_aniso_U_12
_atom_site_aniso_U_13
_atom_site_aniso_U_23
Tb1 Tb3+ 0.01144(3) 0.01084(3) 0.00616(3) 0.00082 0.00013(3) -.00022(4)
Mo1 Mo6+ 0.01018(7) 0.01485(7) 0.00758(7) -.00109(6) 0.00120(6) -.00065(7)
Mo2 Mo6+ 0.01163(7) 0.01500(8) 0.00508(7) -.00081 0.00008(6) -.00071(7)
Cu1 Cu1+ 0.0345(2) 0.0278(2) 0.0200(2) 0 -.0113(2) 0
K1 K1+ 0.0286(4) 0.0125(3) 0.0273(4) 0 -.0134(3) 0
O1 O2- 0.0150(7) 0.0155(7) 0.0141(8) 0.0000(6) 0.0011(6) -.0005(6)
O2 O2- 0.0135(7) 0.0134(7) 0.0136(7) 0.0002(5) 0.0006(6) 0.0001(6)
O3 O2- 0.0173(7) 0.0170(7) 0.0169(8) -.0003(7) 0.0008(7) -.0001(7)
O4 O2- 0.0225(8) 0.0228(8) 0.0224(8) -.0001(8) 0.0014(7) -.0004(8)
O5 O2- 0.0137(7) 0.0138(7) 0.0135(8) 0.0003(6) 0.0009(6) -.0001(6)
O6 O2- 0.0181(7) 0.0184(7) 0.0174(8) -.0001(6) 0.0010(7) 0.0003(7)
O7 O2- 0.0140(7) 0.0138(7) 0.0132(7) 0.0002(6) 0.0005(6) 0.0001(6)
O8 O2- 0.0106(6) 0.0107(6) 0.0105(7) 0.0000(6) 0.0007(5) 0.0002(7)
#End of data_404017-ICSD


