data_409727-ICSD
#?2014 by Fachinformationszentrum Karlsruhe, and the U.S. Secretary of 
#Commerce on behalf of the United States.  All rights reserved.
_database_code_ICSD                409727
_audit_creation_date               2004/10/01
_audit_update_record               2013/02/01
_chemical_name_systematic
;
Dirubidium Phyllo-trithiotetraargentate(I),
;
_chemical_formula_structural       'Rb2 (Ag4 S3)'
_chemical_formula_sum              'Ag4 Rb2 S3'
_publ_section_title
;
Refinement of the crystal structure of dirubidium 
trithioargentate(I), Rb2 Ag4 S3
;
loop_
_citation_id
_citation_journal_abbrev
_citation_year
_citation_journal_volume
_citation_page_first
_citation_page_last
_citation_journal_id_ASTM
primary 'Zeitschrift fuer Kristallographie - New Crystal Structures'
 2003 218 385 386 ZKNSFT
2 'Zeitschrift fuer Anorganische und Allgemeine Chemie (1950) (DE)'
 1976 425 109 116 ZAACAB
_publ_author_name                  'Klepp, K.O.;Sing, M.'
_cell_length_a                     17.808(8)
_cell_length_b                     4.310(2)
_cell_length_c                     11.799(5)
_cell_angle_alpha                  90.
_cell_angle_beta                   108.55(2)
_cell_angle_gamma                  90.
_cell_volume                       858.55
_cell_formula_units_Z              4
_symmetry_space_group_name_H-M     'C 1 2/m 1'
_symmetry_Int_Tables_number        12
_refine_ls_R_factor_all            .038
loop_
_symmetry_equiv_pos_site_id
_symmetry_equiv_pos_as_xyz
  1	'-x, y, -z'
  2	'-x, -y, -z'
  3	'x, -y, z'
  4	'x, y, z'
  5	'-x+.5, y+.5, -z'
  6	'-x+.5, -y+.5, -z'
  7	'x+.5, -y+.5, z'
  8	'x+.5, y+.5, z'
loop_
_atom_type_symbol
_atom_type_oxidation_number
Ag1+	1
Rb1+	1
S2-	-2
loop_
_atom_site_label
_atom_site_type_symbol
_atom_site_symmetry_multiplicity
_atom_site_Wyckoff_symbol
_atom_site_fract_x
_atom_site_fract_y
_atom_site_fract_z
_atom_site_occupancy
_atom_site_attached_hydrogens
_atom_site_U_iso_or_equiv
Rb1 Rb1+ 4 i 0.18999(8) 0 0.8434(1) 1. 0 0.0143(3) 
Rb2 Rb1+ 4 i 0.33114(8) 0 0.6592(1) 1. 0 0.0154(3) 
Ag1 Ag1+ 4 i 0.40986(7) 0 -.00895(9) 1. 0 0.0172(3) 
Ag2 Ag1+ 4 i 0.00979(7) 0 0.37546(9) 1. 0 0.0259(3) 
Ag3 Ag1+ 4 i 0.01713(7) 0 0.13260(9) 1. 0 0.0203(3) 
Ag4 Ag1+ 4 i 0.41051(8) 0 0.4111(1) 1. 0 0.0273(3) 
S1 S2- 4 i 0.4660(2) 0 0.2250(3) 1. 0 0.0121(9) 
S2 S2- 4 i 0.1379(2) 0 0.5399(3) 1. 0 0.0137(9) 
S3 S2- 4 i 0.1523(2) 0 0.1070(3) 1. 0 0.0121(8) 

loop_
_atom_site_aniso_label
_atom_site_aniso_type_symbol
_atom_site_aniso_U_11
_atom_site_aniso_U_22
_atom_site_aniso_U_33
_atom_site_aniso_U_12
_atom_site_aniso_U_13
_atom_site_aniso_U_23
Rb1 Rb1+ 0.0129(6) 0.0174(8) 0.0132(5) 0 0.0048(4) 0
Rb2 Rb1+ 0.0156(6) 0.0172(8) 0.0140(5) 0 0.0058(4) 0
Ag1 Ag1+ 0.0176(5) 0.0155(6) 0.0178(4) 0 0.0045(4) 0
Ag2 Ag1+ 0.0163(5) 0.0371(8) 0.0208(5) 0 0.0007(4) 0
Ag3 Ag1+ 0.0175(5) 0.0247(7) 0.0217(4) 0 0.0104(3) 0
Ag4 Ag1+ 0.0362(7) 0.0150(7) 0.0283(5) 0 0.0069(5) 0
S1 S2- 0.017(2) 0.010(2) 0.010(1) 0 0.004(1) 0
S2 S2- 0.014(2) 0.010(2) 0.013(1) 0 -.001(1) 0
S3 S2- 0.016(1) 0.005(2) 0.018(1) 0 0.010(1) 0
#End of data_409727-ICSD


