data_74046-ICSD
#?2014 by Fachinformationszentrum Karlsruhe, and the U.S. Secretary of 
#Commerce on behalf of the United States.  All rights reserved.
_database_code_ICSD                74046
_audit_creation_date               1995/01/10
_audit_update_record               2012/02/01
_chemical_name_systematic
;
Calcium Trinickel Bis(diphosphate(V))
;
_chemical_formula_structural       'Ca Ni3 (P2 O7)2'
_chemical_formula_sum              'Ca1 Ni3 O14 P4'
_publ_section_title
;
A M3 (P2 O7)2 (A= alkaline-earth metals; M= Fe, Co, Ni): diphosphates 
containing infinite chains of edge-sharing M O6 octahedra
;
loop_
_citation_id
_citation_journal_abbrev
_citation_year
_citation_journal_volume
_citation_page_first
_citation_page_last
_citation_journal_id_ASTM
primary 'Inorganic Chemistry' 1993 32 4373 4377 INOCAJ
_publ_author_name                  'Lii, K.-H.;Shih, P.-F.;Chen, T.-M.'
_cell_length_a                     7.330(3)
_cell_length_b                     7.589(3)
_cell_length_c                     9.400(3)
_cell_angle_alpha                  90.
_cell_angle_beta                   111.90(3)
_cell_angle_gamma                  90.
_cell_volume                       485.16
_cell_formula_units_Z              2
_symmetry_space_group_name_H-M     'P 1 21/c 1'
_symmetry_Int_Tables_number        14
_refine_ls_R_factor_all            .026
loop_
_symmetry_equiv_pos_site_id
_symmetry_equiv_pos_as_xyz
  1	'x, -y+.5, z+.5'
  2	'-x, -y, -z'
  3	'-x, y+.5, -z+.5'
  4	'x, y, z'
loop_
_atom_type_symbol
_atom_type_oxidation_number
Ca2+	2
Ni2+	2
O2-	-2
P5+	5
loop_
_atom_site_label
_atom_site_type_symbol
_atom_site_symmetry_multiplicity
_atom_site_Wyckoff_symbol
_atom_site_fract_x
_atom_site_fract_y
_atom_site_fract_z
_atom_site_occupancy
_atom_site_attached_hydrogens
_atom_site_U_iso_or_equiv
Ca1 Ca2+ 2 b 0.5 0 0 1. 0 0.0101(3) 
Ni1 Ni2+ 4 e 0.18474(7) 0.62706(6) 0.02500(5) 1. 0 0.0069(2) 
Ni2 Ni2+ 2 a 0 0 0 1. 0 0.0058(2) 
P1 P5+ 4 e 0.8802(1) 0.7044(1) 0.1915(1) 1. 0 0.0047(3) 
P2 P5+ 4 e 0.5977(1) 0.4335(1) 0.2032(1) 1. 0 0.0055(3) 
O1 O2- 4 e 0.3921(4) 0.4730(4) 0.1948(3) 1. 0 0.0110(9) 
O2 O2- 4 e 0.0104(4) 0.2122(3) 0.1360(3) 1. 0 0.0069(8) 
O3 O2- 4 e 0.9718(4) 0.5766(3) 0.1126(3) 1. 0 0.0087(8) 
O4 O2- 4 e 0.6726(4) 0.6226(3) 0.1745(3) 1. 0 0.0098(8) 
O5 O2- 4 e 0.6213(4) 0.3059(3) 0.0877(3) 1. 0 0.0099(8) 
O6 O2- 4 e 0.2715(4) 0.8807(3) 0.1311(3) 1. 0 0.0084(8) 
O7 O2- 4 e 0.83144(4) 0.8781(3) 0.1069(3) 1. 0 0.0063(8) 

#End of data_74046-ICSD


