data_249699-ICSD
#?2014 by Fachinformationszentrum Karlsruhe, and the U.S. Secretary of 
#Commerce on behalf of the United States.  All rights reserved.
_database_code_ICSD                249699
_audit_creation_date               2009/02/01
_chemical_name_systematic
;
Cesium Silver Uranium(IV) Triselenide
;
_chemical_formula_structural       'Cs Ag U Se3'
_chemical_formula_sum              'Ag1 Cs1 Se3 U1'
_publ_section_title
;
Syntheses, structures, physical properties, and electronic properties 
of some AMUQ3 compounds (A = alkali metal, M = Cu or Ag, Q = S or Se)
;
loop_
_citation_id
_citation_journal_abbrev
_citation_year
_citation_journal_volume
_citation_journal_issue
_citation_page_first
_citation_page_last
_citation_journal_id_ASTM
primary 'Inorganic Chemistry' 2008 47 15 6873 6879 INOCAJ
_publ_author_name
;
Yao Ji Yong;Wells, D.M.;Chan, G.-H.;Zeng Huiyi;Ellis, D.E.;van Duyne, 
R.P.;Ibers, J.A.
;
_cell_length_a                     4.2190(4)
_cell_length_b                     15.6610(16)
_cell_length_c                     10.8440(11)
_cell_angle_alpha                  90.00
_cell_angle_beta                   90.00
_cell_angle_gamma                  90.00
_cell_volume                       716.5
_cell_formula_units_Z              4
_symmetry_space_group_name_H-M     'C m c m'
_symmetry_Int_Tables_number        63
_refine_ls_R_factor_all            .0241
loop_
_symmetry_equiv_pos_site_id
_symmetry_equiv_pos_as_xyz
  1	'-x, y, -z+.5'
  2	'-x, -y, z+.5'
  3	'-x, y, z'
  4	'-x, -y, -z'
  5	'x, -y, z+.5'
  6	'x, y, -z+.5'
  7	'x, -y, -z'
  8	'x, y, z'
  9	'-x+.5, y+.5, -z+.5'
 10	'-x+.5, -y+.5, z+.5'
 11	'-x+.5, y+.5, z'
 12	'-x+.5, -y+.5, -z'
 13	'x+.5, -y+.5, z+.5'
 14	'x+.5, y+.5, -z+.5'
 15	'x+.5, -y+.5, -z'
 16	'x+.5, y+.5, z'
loop_
_atom_type_symbol
_atom_type_oxidation_number
Ag1+	1
Cs1+	1
Se2-	-2
U4+	4
loop_
_atom_site_label
_atom_site_type_symbol
_atom_site_symmetry_multiplicity
_atom_site_Wyckoff_symbol
_atom_site_fract_x
_atom_site_fract_y
_atom_site_fract_z
_atom_site_occupancy
_atom_site_attached_hydrogens
_atom_site_U_iso_or_equiv
Cs1 Cs1+ 4 c 0.0000 0.74485(4) 0.2500 1 0 0.01022(19) 
U1 U4+ 4 a 0.0000 0.0000 0.0000 1 0 0.00527(16) 
Ag1 Ag1+ 4 c 0.0000 0.45835(5) 0.2500 1 0 0.0091(2) 
Se1 Se2- 4 c 0.0000 0.06044(7) 0.2500 1 0 0.0063(2) 
Se2 Se2- 8 f 0.0000 0.37864(5) 0.03998(6) 1 0 0.00661(19) 

loop_
_atom_site_aniso_label
_atom_site_aniso_type_symbol
_atom_site_aniso_U_11
_atom_site_aniso_U_22
_atom_site_aniso_U_33
_atom_site_aniso_U_12
_atom_site_aniso_U_13
_atom_site_aniso_U_23
Cs1 Cs1+ 0.0117(3) 0.0086(3) 0.0103(3) 0.000 0.000 0.000
U1 U4+ 0.0060(2) 0.0072(2) 0.0026(2) 0.000 0.000 -0.00022(12)
Ag1 Ag1+ 0.0102(4) 0.0124(4) 0.0047(4) 0.000 0.000 0.000
Se1 Se2- 0.0073(4) 0.0085(5) 0.0030(5) 0.000 0.000 0.000
Se2 Se2- 0.0080(3) 0.0068(4) 0.0049(4) 0.000 0.000 -0.0003(3)
#End of data_249699-ICSD


