data_66580-ICSD
#?2014 by Fachinformationszentrum Karlsruhe, and the U.S. Secretary of 
#Commerce on behalf of the United States.  All rights reserved.
_database_code_ICSD                66580
_audit_creation_date               1994/01/19
_audit_update_record               2010/08/01
_chemical_name_systematic          'Copper(I) Silver Sulfide'
_chemical_formula_structural       'Cu Ag S'
_chemical_formula_sum              'Ag1 Cu1 S1'
_chemical_name_mineral             Stromeyerite
_publ_section_title
;
A low-temperature structural phase transformation in Cu Ag S
;
loop_
_citation_id
_citation_journal_abbrev
_citation_year
_citation_journal_volume
_citation_page_first
_citation_page_last
_citation_journal_id_ASTM
primary 'Acta Crystallographica, Section B: Structural Science'
 1991 47 891 899 ASBSDK
2 'Golden Book of Phase Transitions, Wroclaw' 2002 1 1 123 GBOPT5
_publ_author_name
;
Baker, C.L.;Lincoln, F.J.;Johnson, A.W.S.
;
_cell_length_a                     4.059(2)
_cell_length_b                     6.617(4)
_cell_length_c                     7.967(2)
_cell_angle_alpha                  90.
_cell_angle_beta                   90.
_cell_angle_gamma                  90.
_cell_volume                       213.98
_cell_formula_units_Z              4
_symmetry_space_group_name_H-M     'C m c 21'
_symmetry_Int_Tables_number        36
_refine_ls_R_factor_all            .061
loop_
_symmetry_equiv_pos_site_id
_symmetry_equiv_pos_as_xyz
  1	'x, -y, z+.5'
  2	'-x, -y, z+.5'
  3	'-x, y, z'
  4	'x, y, z'
  5	'x+.5, -y+.5, z+.5'
  6	'-x+.5, -y+.5, z+.5'
  7	'-x+.5, y+.5, z'
  8	'x+.5, y+.5, z'
loop_
_atom_type_symbol
_atom_type_oxidation_number
Ag1+	1
Cu1+	1
S2-	-2
loop_
_atom_site_label
_atom_site_type_symbol
_atom_site_symmetry_multiplicity
_atom_site_Wyckoff_symbol
_atom_site_fract_x
_atom_site_fract_y
_atom_site_fract_z
_atom_site_occupancy
_atom_site_attached_hydrogens
Ag1 Ag1+ 4 a 0.5 0.495(2) 0.5 1. 0 
Cu1 Cu1+ 4 a 0 0.4328(3) 0.2486(11) 1. 0 
S1 S2- 4 a 0.5 0.2859(6) 0.2484(15) 1. 0 

loop_
_atom_site_aniso_label
_atom_site_aniso_type_symbol
_atom_site_aniso_U_11
_atom_site_aniso_U_22
_atom_site_aniso_U_33
_atom_site_aniso_U_12
_atom_site_aniso_U_13
_atom_site_aniso_U_23
Ag1 Ag1+ 0.0360(8) 0.144(3) 0.0361(9) 0 0 -0.0483(12)
Cu1 Cu1+ 0.0157(8) 0.0314(12) 0.0333(12) 0 0 -0.010(2)
S1 S2- 0.0135(12) 0.0156(14) 0.032(2) 0 0 0.000(3)
#End of data_66580-ICSD


