data_26146-ICSD
#?2014 by Fachinformationszentrum Karlsruhe, and the U.S. Secretary of 
#Commerce on behalf of the United States.  All rights reserved.
_database_code_ICSD                26146
_audit_creation_date               1980/01/01
_audit_update_record               2006/04/01
_chemical_name_systematic          'Potassium Catena-phosphate(V)'
_chemical_formula_structural       'K (P O3)'
_chemical_formula_sum              'K1 O3 P1'
_publ_section_title
;
Zur Phasentransformation des Kaliumpolyphosphates (K P O3)x
;
loop_
_citation_id
_citation_journal_abbrev
_citation_year
_citation_journal_volume
_citation_page_first
_citation_page_last
_citation_journal_id_ASTM
primary 'Acta Crystallographica B (24,1968-38,1982)' 1969 25 1110 1118 ACBCAR
2 'Golden Book of Phase Transitions, Wroclaw' 2002 1 1 123 GBOPT5
_publ_author_name                  'Jost, K.H.;Schulze, H.J.'
_cell_length_a                     14.02(3)
_cell_length_b                     4.54(1)
_cell_length_c                     10.28(2)
_cell_angle_alpha                  90.
_cell_angle_beta                   101.5(2)
_cell_angle_gamma                  90.
_cell_volume                       641.19
_cell_formula_units_Z              8
_symmetry_space_group_name_H-M     'P 1 21/a 1'
_symmetry_Int_Tables_number        14
_refine_ls_R_factor_all            .124
loop_
_symmetry_equiv_pos_site_id
_symmetry_equiv_pos_as_xyz
  1	'x+.5, -y+.5, z'
  2	'-x, -y, -z'
  3	'-x+.5, y+.5, -z'
  4	'x, y, z'
loop_
_atom_type_symbol
_atom_type_oxidation_number
K1+	1
O2-	-2
P5+	5
loop_
_atom_site_label
_atom_site_type_symbol
_atom_site_symmetry_multiplicity
_atom_site_Wyckoff_symbol
_atom_site_fract_x
_atom_site_fract_y
_atom_site_fract_z
_atom_site_occupancy
_atom_site_attached_hydrogens
_atom_site_B_iso_or_equiv
K1 K1+ 4 e 0.1301(38) 0.766(11) 0.3977(38) 1. 0 2.507 
K2 K1+ 4 e 0.1709(38) 0.224(11) 0.0663(38) 1. 0 2.53 
P1 P5+ 4 e 0.1532(42) 0.204(13) 0.6898(42) 1. 0 2.237 
P2 P5+ 4 e 0.0549(43) 0.707(13) 0.7846(42) 1. 0 2.286 
O1 O2- 4 e 0.116(13) 0.723(31) 0.917(13) 1. 0 2.801 
O2 O2- 4 e 0.050(14) 0.231(33) 0.241(14) 1. 0 3.058 
O3 O2- 4 e 0.166(12) 0.287(31) 0.555(12) 1. 0 2.592 
O4 O2- 4 e 0.236(12) 0.225(30) 0.800(12) 1. 0 2.377 
O5 O2- 4 e 0.105(12) 0.868(31) 0.678(12) 1. 0 2.581 
O6 O2- 4 e 0.061(12) 0.371(31) 0.728(12) 1. 0 2.391 

#End of data_26146-ICSD


