data_6116-ICSD
#?2014 by Fachinformationszentrum Karlsruhe, and the U.S. Secretary of 
#Commerce on behalf of the United States.  All rights reserved.
_database_code_ICSD                6116
_audit_creation_date               1980/01/01
_audit_update_record               1985/04/18
_chemical_name_systematic          'Sodium Tetraoxoniobate'
_chemical_formula_structural       'Na3 Nb O4'
_chemical_formula_sum              'Na3 Nb1 O4'
_publ_section_title
;
Sur les composes Na3 T O4 (T=Nb, Ta et Ru). Structure cristalline de 
Na3 Nb O4
;
loop_
_citation_id
_citation_journal_abbrev
_citation_year
_citation_journal_volume
_citation_page_first
_citation_page_last
_citation_journal_id_ASTM
primary
;
Bulletin de la Societe Francaise de Mineralogie et de 
Cristallographie (72,1949-100,1977)
;
 1974 97 3 5 BUFCAE
_publ_author_name                  'Darriet, J.;Galy, J.'
_cell_length_a                     11.126
_cell_length_b                     12.988
_cell_length_c                     5.746
_cell_angle_alpha                  90.
_cell_angle_beta                   109.41
_cell_angle_gamma                  90.
_cell_volume                       783.13
_cell_formula_units_Z              8
_symmetry_space_group_name_H-M     'C 1 2/m 1'
_symmetry_Int_Tables_number        12
_refine_ls_R_factor_all            .054
loop_
_symmetry_equiv_pos_site_id
_symmetry_equiv_pos_as_xyz
  1	'-x, y, -z'
  2	'-x, -y, -z'
  3	'x, -y, z'
  4	'x, y, z'
  5	'-x+.5, y+.5, -z'
  6	'-x+.5, -y+.5, -z'
  7	'x+.5, -y+.5, z'
  8	'x+.5, y+.5, z'
loop_
_atom_type_symbol
_atom_type_oxidation_number
Na1+	1
Nb5+	5
O2-	-2
loop_
_atom_site_label
_atom_site_type_symbol
_atom_site_symmetry_multiplicity
_atom_site_Wyckoff_symbol
_atom_site_fract_x
_atom_site_fract_y
_atom_site_fract_z
_atom_site_occupancy
_atom_site_attached_hydrogens
_atom_site_B_iso_or_equiv
Nb1 Nb5+ 4 g 0 0.13319(4) 0 1. 0 0.556 
Nb2 Nb5+ 4 i 0.26061(5) 0 0.03133(9) 1. 0 0.563 
Na1 Na1+ 4 g 0 0.3764(2) 0 1. 0 0.77 
Na2 Na1+ 4 e 0.25 0.25 0 1. 0 0.72 
Na3 Na1+ 8 j 0.2441(2) 0.1267(2) 0.5226(4) 1. 0 0.92 
Na4 Na1+ 2 c 0 0 0.5 1. 0 0.68 
Na5 Na1+ 4 h 0 0.2593(3) 0.5 1. 0 1.08 
Na6 Na1+ 2 d 0 0.5 0.5 1. 0 1.88 
O1 O2- 4 i 0.1121(4) 0 0.1938(8) 1. 0 0.47 
O2 O2- 8 j 0.1030(3) 0.2256(3) 0.2262(6) 1. 0 0.51 
O3 O2- 4 i 0.1583(4) 0.5 0.2031(8) 1. 0 0.41 
O4 O2- 8 j 0.1185(3) 0.1102(3) 0.8140(6) 1. 0 0.41 
O5 O2- 8 j 0.1477(3) 0.3935(3) 0.7681(6) 1. 0 0.49 

#End of data_6116-ICSD


