data_290664-ICSD
#?2014 by Fachinformationszentrum Karlsruhe, and the U.S. Secretary of 
#Commerce on behalf of the United States.  All rights reserved.
_database_code_ICSD                290664
_audit_creation_date               2014/08/01
_chemical_name_systematic
;
Tetrapotassium Digadolinium Dialuminiumoctasilicate
;
_chemical_formula_structural       'K4 Gd2 (Al2 Si8 O24)'
_chemical_formula_sum              'Al2 Gd2 K4 O24 Si8'
_publ_section_title
;
Crystal structures and luminescence properties of novel compounds K4 
M2 [Al2 Si8 O24] (M = Ce, Gd)
;
loop_
_citation_id
_citation_journal_abbrev
_citation_year
_citation_journal_volume
_citation_journal_issue
_citation_page_first
_citation_page_last
_citation_journal_id_ASTM
primary 'Crystallography Reports' 2013 58 6 835 841 CYSTE3
_publ_author_name
;
S.M. Aksenov;V.A. Rassulov;R.K. Rastsvetaeva;V.K. Taroev
;
_cell_length_a                     26.6520(2)
_cell_length_b                     7.2854(1)
_cell_length_c                     14.8182(1)
_cell_angle_alpha                  90
_cell_angle_beta                   123.46(1)
_cell_angle_gamma                  90
_cell_volume                       2400.41
_cell_formula_units_Z              4
_symmetry_space_group_name_H-M     'P 1 21/n 1'
_symmetry_Int_Tables_number        14
_refine_ls_R_factor_all            .025
loop_
_symmetry_equiv_pos_site_id
_symmetry_equiv_pos_as_xyz
  1	'-x+.5, y+.5, -z+.5'
  2	'-x, -y, -z'
  3	'x+.5, -y+.5, z+.5'
  4	'x, y, z'
loop_
_atom_type_symbol
_atom_type_oxidation_number
Al3+	3
Gd3+	3
K1+	1
O2-	-2
Si4+	4
loop_
_atom_site_label
_atom_site_type_symbol
_atom_site_symmetry_multiplicity
_atom_site_Wyckoff_symbol
_atom_site_fract_x
_atom_site_fract_y
_atom_site_fract_z
_atom_site_occupancy
_atom_site_attached_hydrogens
_atom_site_U_iso_or_equiv
Gd1 Gd3+ 4 e 0.7693(1) 0.7866(1) -0.2506(1) 1. 0 0.0063(1) 
Gd2 Gd3+ 4 e 0.7693(1) 0.2129(1) 0.2494(1) 1. 0 0.0054(1) 
K1 K1+ 4 e 0.3070(1) 0.5064(1) 0.0263(1) 1. 0 0.0222(2) 
K2 K1+ 4 e 0.8067(1) 0.0059(1) 0.0261(1) 1. 0 0.0224(2) 
K3 K1+ 4 e 0.9634(1) 0.7595(2) 0.0394(1) 1. 0 0.0467(5) 
K4 K1+ 4 e 0.4638(1) 0.2596(2) 0.0401(1) 1. 0 0.0463(5) 
Si1 Si4+ 4 e 0.8345(1) 0.5319(1) -0.0067(1) 1. 0 0.0066(1) 
Si2 Si4+ 4 e 0.6655(1) -0.0316(1) 0.0065(1) 1. 0 0.0034(1) 
Si3 Si4+ 4 e 0.6599(1) 0.0195(1) -0.2081(1) 1. 0 0.0063(1) 
Si4 Si4+ 4 e 0.6184(2) 0.3554(1) 0.1593(1) 1. 0 0.0059(1) 
Si5 Si4+ 4 e 0.8400(1) 0.5192(1) 0.2081(1) 1. 0 0.0061(1) 
Si6 Si4+ 4 e 0.6184(1) -0.3559(1) -0.3406(1) 1. 0 0.0064(1) 
Si7 Si4+ 4 e 0.9388(1) 0.2659(1) 0.0787(1) 1. 0 0.0071(1) 
Si8 Si4+ 4 e 0.5614(1) 0.2337(1) -0.0785(1) 1. 0 0.0071(1) 
Al1 Al3+ 4 e 0.5717(1) 0.6895(1) 0.2277(1) 1. 0 0.0058(2) 
Al2 Al3+ 4 e 0.0717(1) 0.1908(1) 0.2278(1) 1. 0 0.0072(2) 
O1 O2- 4 e 0.8895(1) 0.6462(2) 0.3081(1) 1. 0 0.0118(4) 
O2 O2- 4 e 0.6106(1) -0.1494(2) -0.3075(1) 1. 0 0.0113(4) 
O3 O2- 4 e 0.5888(1) 0.3574(3) 0.0294(1) 1. 0 0.0171(6) 
O4 O2- 4 e 0.5894(1) -0.3578(3) -0.4700(1) 1. 0 0.0170(6) 
O5 O2- 4 e 0.9283(1) 0.1459(3) 0.1574(1) 1. 0 0.0122(5) 
O6 O2- 4 e 0.5955(1) 0.0379(2) -0.0503(2) 1. 0 0.0134(4) 
O7 O2- 4 e 0.9051(1) 0.4621(3) 0.0520(2) 1. 0 0.0155(6) 
O8 O2- 4 e 0.5718(1) 0.3534(3) -0.1579(1) 1. 0 0.0144(5) 
O9 O2- 4 e 0.6706(1) -0.0969(3) -0.0957(1) 1. 0 0.0123(5) 
O10 O2- 4 e 0.8296(1) 0.5946(3) 0.0962(1) 1. 0 0.0145(6) 
O11 O2- 4 e 0.7118(1) 0.1311(3) 0.0715(1) 1. 0 0.0130(4) 
O12 O2- 4 e 0.8279(1) 0.7107(3) -0.0735(1) 1. 0 0.0129(4) 
O13 O2- 4 e 0.5748(1) -0.4852(3) -0.3262(2) 1. 0 0.0160(6) 
O14 O2- 4 e 0.6379(1) 0.1920(2) -0.2338(1) 1. 0 0.0105(4) 
O15 O2- 4 e 0.8614(1) 0.3061(2) 0.2331(2) 1. 0 0.0119(5) 
O16 O2- 4 e 0.5748(1) 0.4849(3) 0.1741(2) 1. 0 0.0145(5) 
O17 O2- 4 e 0.4918(1) 0.1948(3) -0.1277(2) 1. 0 0.0139(5) 
O18 O2- 4 e 0.0087(1) 0.3089(3) 0.1278(2) 1. 0 0.0142(5) 
O19 O2- 4 e 0.7879(1) 0.3681(2) -0.0709(1) 1. 0 0.0128(4) 
O20 O2- 4 e 0.8281(1) 0.2864(2) 0.4273(1) 1. 0 0.0119(4) 
O21 O2- 4 e 0.6879(1) -0.4156(2) -0.2738(1) 1. 0 0.0099(4) 
O22 O2- 4 e 0.7778(1) 0.5156(2) 0.2000(1) 1. 0 0.0085(4) 
O23 O2- 4 e 0.7226(1) -0.0160(2) -0.1997(1) 1. 0 0.0094(4) 
O24 O2- 4 e 0.6872(1) 0.4159(2) 0.2250(1) 1. 0 0.0119(5) 

#End of data_290664-ICSD


