data_200741-ICSD
#?2014 by Fachinformationszentrum Karlsruhe, and the U.S. Secretary of 
#Commerce on behalf of the United States.  All rights reserved.
_database_code_ICSD                200741
_audit_creation_date               1980/01/01
_audit_update_record               1985/05/29
_chemical_name_systematic
;
Potassium Tris(nitrato)heptafluorodiantimonate(III)
;
_chemical_formula_structural       'K4 Sb2 F7 (N O3)3'
_chemical_formula_sum              'F7 K4 N3 O9 Sb2'
_publ_section_title
;
Crystal structure of di- and trinitratoheptafluorodiantimonates(III) 
of potassium K (Sb2 F7) (K N O3)2 and K (Sb2 F7) (K N O3)3
;
loop_
_citation_id
_citation_journal_abbrev
_citation_year
_citation_journal_volume
_citation_page_first
_citation_page_last
_citation_journal_id_ASTM
primary 'Koordinatsionnaya Khimiya (= Coordination Chemistry (USSR))'
 1979 5 133 137 KOKHDC
_publ_author_name
;
Udovenko, A.A.;Volkova, L.M.;Davidovich, R.L.;Simonov, M.A.
;
_cell_length_a                     8.613(2)
_cell_length_b                     8.996(2)
_cell_length_c                     19.929(4)
_cell_angle_alpha                  90.
_cell_angle_beta                   90.
_cell_angle_gamma                  90.
_cell_volume                       1544.15
_cell_formula_units_Z              4
_symmetry_space_group_name_H-M     'P b c n'
_symmetry_Int_Tables_number        60
_refine_ls_R_factor_all            .031
loop_
_symmetry_equiv_pos_site_id
_symmetry_equiv_pos_as_xyz
  1	'x, -y, z+.5'
  2	'-x+.5, y+.5, z'
  3	'x+.5, y+.5, -z+.5'
  4	'-x, -y, -z'
  5	'-x, y, -z+.5'
  6	'x+.5, -y+.5, -z'
  7	'-x+.5, -y+.5, z+.5'
  8	'x, y, z'
loop_
_atom_type_symbol
_atom_type_oxidation_number
F1-	-1
K1+	1
N5+	5
O2-	-2
Sb3+	3
loop_
_atom_site_label
_atom_site_type_symbol
_atom_site_symmetry_multiplicity
_atom_site_Wyckoff_symbol
_atom_site_fract_x
_atom_site_fract_y
_atom_site_fract_z
_atom_site_occupancy
_atom_site_attached_hydrogens
Sb1 Sb3+ 8 d 0.11509(2) 0.12057(2) 0.15298(1) 1. 0 
K1 K1+ 8 d 0.17540(9) 0.16496(9) 0.50334(4) 1. 0 
K2 K1+ 8 d 0.18573(9) 0.17049(9) 0.82077(4) 1. 0 
F1 F1- 8 d 0.1050(2) 0.0918(2) 0.6424(1) 1. 0 
F2 F1- 8 d 0.1049(2) 0.1298(2) 0.3655(1) 1. 0 
F3 F1- 8 d 0.1259(2) 0.1222(2) 0.0532(1) 1. 0 
F4 F1- 4 c 0 0.0399(3) 0.25 1. 0 
O1 O2- 8 d 0.0343(3) 0.3489(3) 0.9243(1) 1. 0 
O2 O2- 8 d 0.0893(3) 0.4519(4) 0.1060(1) 1. 0 
O3 O2- 8 d 0.1436(3) 0.4374(3) 0.4350(1) 1. 0 
O4 O2- 8 d 0.1208(3) 0.4419(3) 0.7640(1) 1. 0 
O5 O2- 4 c 0 0.3523(4) 0.25 1. 0 
N1 N5+ 8 d 0.0288(3) 0.4863(3) 0.9176(1) 1. 0 
N2 N5+ 4 c 0 0.4905(4) 0.25 1. 0 

#End of data_200741-ICSD


