data_246189-ICSD
#?2014 by Fachinformationszentrum Karlsruhe, and the U.S. Secretary of 
#Commerce on behalf of the United States.  All rights reserved.
_database_code_ICSD                246189
_audit_creation_date               2009/02/01
_chemical_name_systematic          'Lithium Uranyl Arsenate(V) - Alpha'
_chemical_formula_structural       'Li ((U O2) (As O4))'
_chemical_formula_sum              'As1 Li1 O6 U1'
_publ_section_title
;
Crystal chemistry pf anhydrous Li uranyl phosphates and arsenates. I. 
Polymorphism and structure topology: Synthesis and crystal structures 
of alpha-Li [(U O2) (P O4)], alpha-Li [(U O2) (As O4)], beta-Li [(U 
O2) (P O4)] and Li2 [(U O2)3 (P2 O7)2]
;
loop_
_citation_id
_citation_journal_abbrev
_citation_year
_citation_journal_volume
_citation_journal_issue
_citation_page_first
_citation_page_last
_citation_journal_id_ASTM
primary 'Journal of Solid State Chemistry' 2008 181 11 3010 3015 JSSCBI
_publ_author_name
;
Alekseev, E.V.;Krivovichev, S.V.;Malcherek, T.;Depmeier, W.
;
_cell_length_a                     5.129(2)
_cell_length_b                     10.105(3)
_cell_length_c                     11.080(3)
_cell_angle_alpha                  107.70(2)
_cell_angle_beta                   102.53(3)
_cell_angle_gamma                  104.74(3)
_cell_volume                       501.35
_cell_formula_units_Z              4
_symmetry_space_group_name_H-M     'P -1'
_symmetry_Int_Tables_number        2
_refine_ls_R_factor_all            .055
loop_
_symmetry_equiv_pos_site_id
_symmetry_equiv_pos_as_xyz
  1	'-x, -y, -z'
  2	'x, y, z'
loop_
_atom_type_symbol
_atom_type_oxidation_number
As5+	5
Li1+	1
O2-	-2
U6+	6
loop_
_atom_site_label
_atom_site_type_symbol
_atom_site_symmetry_multiplicity
_atom_site_Wyckoff_symbol
_atom_site_fract_x
_atom_site_fract_y
_atom_site_fract_z
_atom_site_occupancy
_atom_site_attached_hydrogens
_atom_site_U_iso_or_equiv
U1 U6+ 2 i 0.0382(1) 0.80059(6) 0.01894(6) 1. 0 0.0130(2) 
U2 U6+ 2 i -0.0194(1) 0.71824(6) 0.47998(6) 1. 0 0.0135(2) 
As1 As5+ 2 i 0.2785(3) 0.5817(2) 0.2159(2) 1. 0 0.0133(4) 
As2 As5+ 2 i 0.3383(3) 1.1083(2) 0.2716(2) 1. 0 0.0133(4) 
Li1 Li1+ 2 i 0.747(6) 0.906(3) 0.303(3) 1. 0 0.014(6) 
Li2 Li1+ 2 i 0.678(7) 0.381(3) 0.231(3) 1. 0 0.024(7) 
O1 O2- 2 i -0.196(2) 0.816(1) 0.118(1) 1. 0 0.014(2) 
O2 O2- 2 i 0.637(2) 1.259(1) 0.351(1) 1. 0 0.016(3) 
O3 O2- 2 i 0.105(2) 1.110(1) 0.359(1) 1. 0 0.018(3) 
O4 O2- 2 i 0.031(2) 0.558(1) 0.292(1) 1. 0 0.020(3) 
O5 O2- 2 i 0.593(2) 0.709(1) 0.323(1) 1. 0 0.016(2) 
O6 O2- 2 i 0.269(2) 0.783(1) -0.084(1) 1. 0 0.015(2) 
O7 O2- 2 i 0.177(2) 1.092(1) 0.115(1) 1. 0 0.021(3) 
O8 O2- 2 i 0.325(2) 0.417(1) 0.151(1) 1. 0 0.017(3) 
O9 O2- 2 i 0.173(3) 0.638(1) 0.093(1) 1. 0 0.026(3) 
O10 O2- 2 i 0.185(3) 0.877(1) 0.459(1) 1. 0 0.030(3) 
O11 O2- 2 i -0.232(3) 0.561(1) 0.497(1) 1. 0 0.027(3) 
O12 O2- 2 i 0.408(2) 0.948(1) 0.236(1) 1. 0 0.018(3) 

#End of data_246189-ICSD


