data_245079-ICSD
#?2014 by Fachinformationszentrum Karlsruhe, and the U.S. Secretary of 
#Commerce on behalf of the United States.  All rights reserved.
_database_code_ICSD                245079
_audit_creation_date               2007/08/01
_chemical_name_systematic          'Dicalcium Silicate'
_chemical_formula_structural       'Ca2 (Si O4)'
_chemical_formula_sum              'Ca2 O4 Si1'
_publ_section_title
;
Charge states of Ca atoms in beta-dicalcium silicate
;
loop_
_citation_id
_citation_journal_abbrev
_citation_year
_citation_journal_volume
_citation_journal_issue
_citation_page_first
_citation_page_last
_citation_journal_id_ASTM
primary 'Journal of Solid State Chemistry' 2006 179 11 3286 3294 JSSCBI
_publ_author_name
;
Mori, K.;Kiyanagi, R.;Yonemura, M.;Iwase, K.;Sato, T.;Itoh, 
K.;Sugiyama, M.;Kamiyama, T.;Fukunaga, T.
;
_cell_length_a                     5.53414(6)
_cell_length_b                     6.78699(8)
_cell_length_c                     9.38074(11)
_cell_angle_alpha                  90
_cell_angle_beta                   93.755(1)
_cell_angle_gamma                  90
_cell_volume                       351.59
_cell_formula_units_Z              4
_symmetry_space_group_name_H-M     'P 1 21/n 1'
_symmetry_Int_Tables_number        14
_refine_ls_R_factor_all            .0394
loop_
_symmetry_equiv_pos_site_id
_symmetry_equiv_pos_as_xyz
  1	'-x+.5, y+.5, -z+.5'
  2	'-x, -y, -z'
  3	'x+.5, -y+.5, z+.5'
  4	'x, y, z'
loop_
_atom_type_symbol
_atom_type_oxidation_number
Ca2+	2
O2-	-2
Si4+	4
loop_
_atom_site_label
_atom_site_type_symbol
_atom_site_symmetry_multiplicity
_atom_site_Wyckoff_symbol
_atom_site_fract_x
_atom_site_fract_y
_atom_site_fract_z
_atom_site_occupancy
_atom_site_attached_hydrogens
_atom_site_B_iso_or_equiv
Ca1 Ca2+ 4 e 0.23103(38) 0.33828(32) 0.42874(26) 1. 0 2.025(63) 
Ca2 Ca2+ 4 e 0.22596(43) 0.99582(38) 0.70284(24) 1. 0 2.214(69) 
Si1 Si4+ 4 e 0.26364(41) 0.78308(27) 0.41755(24) 1. 0 1.183(63) 
O1 O2- 4 e 0.21901(33) 0.01077(25) 0.43929(21) 1. 0 2.405(66) 
O2 O2- 4 e 0.48061(35) 0.74620(29) 0.31044(21) 1. 0 2.267(56) 
O3 O2- 4 e 0.01637(31) 0.67101(32) 0.36059(20) 1. 0 2.579(62) 
O4 O2- 4 e 0.33793(31) 0.67330(32) 0.57215(18) 1. 0 2.347(63) 

#End of data_245079-ICSD


