data_51498-ICSD
#?2014 by Fachinformationszentrum Karlsruhe, and the U.S. Secretary of 
#Commerce on behalf of the United States.  All rights reserved.
_database_code_ICSD                51498
_audit_creation_date               2003/04/01
_chemical_name_systematic          'Disilver Palladium Oxide'
_chemical_formula_structural       'Ag2 Pd O2'
_chemical_formula_sum              'Ag2 O2 Pd1'
_publ_section_title
;
Synthesis, structure and properties of Ag2 Pd O2
;
loop_
_citation_id
_citation_journal_abbrev
_citation_year
_citation_journal_volume
_citation_page_first
_citation_page_last
_citation_journal_id_ASTM
primary 'Solid State Sciences' 2001 3 25 30 SSSCFJ
_publ_author_name                  'Schreyer, M.;Jansen, M.'
_cell_length_a                     4.55523(5)
_cell_length_b                     3.00803(3)
_cell_length_c                     9.8977(1)
_cell_angle_alpha                  90
_cell_angle_beta                   90
_cell_angle_gamma                  90
_cell_volume                       135.62
_cell_formula_units_Z              2
_symmetry_space_group_name_H-M     'I m m m'
_symmetry_Int_Tables_number        71
_refine_ls_R_factor_all            .0645
loop_
_symmetry_equiv_pos_site_id
_symmetry_equiv_pos_as_xyz
  1	'x, y, -z'
  2	'x, -y, z'
  3	'-x, y, z'
  4	'-x, -y, -z'
  5	'-x, -y, z'
  6	'-x, y, -z'
  7	'x, -y, -z'
  8	'x, y, z'
  9	'x+.5, y+.5, -z+.5'
 10	'x+.5, -y+.5, z+.5'
 11	'-x+.5, y+.5, z+.5'
 12	'-x+.5, -y+.5, -z+.5'
 13	'-x+.5, -y+.5, z+.5'
 14	'-x+.5, y+.5, -z+.5'
 15	'x+.5, -y+.5, -z+.5'
 16	'x+.5, y+.5, z+.5'
loop_
_atom_type_symbol
_atom_type_oxidation_number
Ag1+	1
O2-	-2
Pd2+	2
loop_
_atom_site_label
_atom_site_type_symbol
_atom_site_symmetry_multiplicity
_atom_site_Wyckoff_symbol
_atom_site_fract_x
_atom_site_fract_y
_atom_site_fract_z
_atom_site_occupancy
_atom_site_attached_hydrogens
_atom_site_U_iso_or_equiv
Pd1 Pd2+ 2 a 0.0 0.0 0.0 1. 0 0.0343(4) 
Ag1 Ag1+ 4 i 0.0 0.0 0.35758(9) 1. 0 0.0402(4) 
O1 O2- 4 j 0.5 0.0 0.3627(8) 1. 0 0.035(2) 

#End of data_51498-ICSD


