data_20359-ICSD
#?2014 by Fachinformationszentrum Karlsruhe, and the U.S. Secretary of 
#Commerce on behalf of the United States.  All rights reserved.
_database_code_ICSD                20359
_audit_creation_date               1980/01/01
_audit_update_record               2012/02/01
_chemical_name_systematic          'Dipotassium Tetranitropalladate'
_chemical_formula_structural       'K2 (Pd (N O2)4)'
_chemical_formula_sum              'K2 N4 O8 Pd1'
_publ_section_title
;
About the crystal structure of potassium tetranitropalladate
;
loop_
_citation_id
_citation_journal_abbrev
_citation_year
_citation_journal_volume
_citation_page_first
_citation_page_last
_citation_journal_id_ASTM
primary 'Doklady Akademii Nauk SSSR' 1947 58 603 605 DANKAS
_publ_author_name                  'Porai Koshits, M.A.'
_cell_length_a                     7.82(2)
_cell_length_b                     12.82(2)
_cell_length_c                     9.44(2)
_cell_angle_alpha                  90.
_cell_angle_beta                   96.57
_cell_angle_gamma                  90.
_cell_volume                       940.17
_cell_formula_units_Z              4
_symmetry_space_group_name_H-M     'P 1 21/a 1'
_symmetry_Int_Tables_number        14
loop_
_symmetry_equiv_pos_site_id
_symmetry_equiv_pos_as_xyz
  1	'x+.5, -y+.5, z'
  2	'-x, -y, -z'
  3	'-x+.5, y+.5, -z'
  4	'x, y, z'
loop_
_atom_type_symbol
_atom_type_oxidation_number
K1+	1
N3+	3
O2-	-2
Pd2+	2
loop_
_atom_site_label
_atom_site_type_symbol
_atom_site_symmetry_multiplicity
_atom_site_Wyckoff_symbol
_atom_site_fract_x
_atom_site_fract_y
_atom_site_fract_z
_atom_site_occupancy
_atom_site_attached_hydrogens
Pd1 Pd2+ 2 a 0 0 0 1. 0 
Pd2 Pd2+ 2 d 0 0 0.5 1. 0 
N1 N3+ 4 e 0.109 0.132 -.087 1. 0 
N2 N3+ 4 e 0.234 -.08 0 1. 0 
N3 N3+ 4 e -.268 -.009 0.456 1. 0 
N4 N3+ 4 e 0.012 0.147 0.41 1. 0 
O1 O2- 4 e 0.25 0.119 -.104 1. 0 
O2 O2- 4 e 0.013 0.199 -.104 1. 0 
O3 O2- 4 e 0.338 -.048 0.084 1. 0 
O4 O2- 4 e 0.226 -.145 -.084 1. 0 
O5 O2- 4 e -.326 0.066 0.392 1. 0 
O6 O2- 4 e -.326 -.09 0.509 1. 0 
O7 O2- 4 e -.057 0.208 0.46 1. 0 
O8 O2- 4 e 0.086 0.144 0.304 1. 0 
K1 K1+ 4 e 0.416 0.16 0.18 1. 0 
K2 K1+ 4 e 0.155 0.335 0.659 1. 0 

#End of data_20359-ICSD


