data_69034-ICSD
#?2014 by Fachinformationszentrum Karlsruhe, and the U.S. Secretary of 
#Commerce on behalf of the United States.  All rights reserved.
_database_code_ICSD                69034
_audit_creation_date               1992/01/20
_chemical_name_systematic          'Lithium Tetraiodozincate'
_chemical_formula_structural       'Li2 (Zn I4)'
_chemical_formula_sum              'I4 Li2 Zn1'
_publ_section_title                'Li2ZnI4: a neutron powder study'
loop_
_citation_id
_citation_journal_abbrev
_citation_year
_citation_journal_volume
_citation_page_first
_citation_page_last
_citation_journal_id_ASTM
primary 'Journal of Solid State Chemistry' 1990 87 463 466 JSSCBI
_publ_author_name
;
Pfitzner, A.;Lutz, H.D.;Cockcroft, J.K.
;
_cell_length_a                     14.803(9)
_cell_length_b                     8.560(2)
_cell_length_c                     7.012(1)
_cell_angle_alpha                  90.
_cell_angle_beta                   90.
_cell_angle_gamma                  90.
_cell_volume                       888.52
_cell_formula_units_Z              4
_symmetry_space_group_name_H-M     'P n m a'
_symmetry_Int_Tables_number        62
_refine_ls_R_factor_all            .055
loop_
_symmetry_equiv_pos_site_id
_symmetry_equiv_pos_as_xyz
  1	'x+.5, y, -z+.5'
  2	'x, -y+.5, z'
  3	'-x+.5, y+.5, z+.5'
  4	'-x, -y, -z'
  5	'-x+.5, -y, z+.5'
  6	'-x, y+.5, -z'
  7	'x+.5, -y+.5, -z+.5'
  8	'x, y, z'
loop_
_atom_type_symbol
_atom_type_oxidation_number
I1-	-1
Li1+	1
Zn2+	2
loop_
_atom_site_label
_atom_site_type_symbol
_atom_site_symmetry_multiplicity
_atom_site_Wyckoff_symbol
_atom_site_fract_x
_atom_site_fract_y
_atom_site_fract_z
_atom_site_occupancy
_atom_site_attached_hydrogens
_atom_site_B_iso_or_equiv
Li1 Li1+ 4 a 0 0 0 1. 0 3.6(6) 
Li2 Li1+ 4 c 0.269(2) 0.25 0.000(6) 1. 0 4.9(1) 
Zn1 Zn2+ 4 c 0.0858(9) 0.25 0.4037(7) 1. 0 2.4(1) 
I1 I1- 4 c 0.0918(8) 0.25 0.769(1) 1. 0 2.1(3) 
I2 I1- 4 c 0.4228(10) 0.25 0.252(1) 1. 0 2.1(3) 
I3 I1- 8 d 0.1700(7) 0.0063(9) 0.248(2) 1. 0 2.6(2) 

#End of data_69034-ICSD


