data_162428-ICSD
#?2014 by Fachinformationszentrum Karlsruhe, and the U.S. Secretary of 
#Commerce on behalf of the United States.  All rights reserved.
_database_code_ICSD                162428
_audit_creation_date               2009/08/01
_chemical_name_systematic
;
Cobalt Zinc Tellurate(IV) Dibromide
;
_chemical_formula_structural       'Co Zn (Te O3) Br2'
_chemical_formula_sum              'Br2 Co1 O3 Te1 Zn1'
_publ_section_title
;
Crystal structure and magnetic properties of Co Zn (Te O3) Br2
;
loop_
_citation_id
_citation_journal_abbrev
_citation_year
_citation_journal_volume
_citation_journal_issue
_citation_page_first
_citation_page_last
_citation_journal_id_ASTM
primary 'Journal of the Physical Society of Japan' 2008 77 8 084707-1 084707-5 JUPSAU
_publ_author_name
;
Kashi, T.;Yasiu, Y.;Moyoshi, T.;Sato, M.;Kakurai, K.;Iikubo, 
S.;Igawa, N.
;
_cell_length_a                     10.5560(3)
_cell_length_b                     15.8985(4)
_cell_length_c                     7.7296(2)
_cell_angle_alpha                  90.
_cell_angle_beta                   90.
_cell_angle_gamma                  90.
_cell_volume                       1297.22
_cell_formula_units_Z              8
_symmetry_space_group_name_H-M     'P c c n'
_symmetry_Int_Tables_number        56
_refine_ls_R_factor_all            .0166
loop_
_symmetry_equiv_pos_site_id
_symmetry_equiv_pos_as_xyz
  1	'x, -y+.5, z+.5'
  2	'-x+.5, y, z+.5'
  3	'x+.5, y+.5, -z'
  4	'-x, -y, -z'
  5	'-x, y+.5, -z+.5'
  6	'x+.5, -y, -z+.5'
  7	'-x+.5, -y+.5, z'
  8	'x, y, z'
loop_
_atom_type_symbol
_atom_type_oxidation_number
Br1-	-1
Co2+	2
O2-	-2
Te4+	4
Zn2+	2
loop_
_atom_site_label
_atom_site_type_symbol
_atom_site_symmetry_multiplicity
_atom_site_Wyckoff_symbol
_atom_site_fract_x
_atom_site_fract_y
_atom_site_fract_z
_atom_site_occupancy
_atom_site_attached_hydrogens
_atom_site_B_iso_or_equiv
Te1 Te4+ 8 e 0.5241(3) 0.4028(2) 0.2122(4) 1. 0 0.66(8) 
Co1 Co2+ 8 e 0.7692(7) 0.4633(4) 0.3942(8) 1. 0 0.26 
Zn1 Zn2+ 8 e 0.5004(3) 0.6060(2) 0.3460(4) 1. 0 0.77(6) 
Br1 Br1- 8 e 0.7112(2) 0.6217(2) 0.4452(4) 1. 0 0.34(5) 
Br2 Br1- 8 e 0.4043(2) 0.7055(2) 0.1564(3) 1. 0 0.34(5) 
O1 O2- 8 e 0.6868(3) 0.4414(2) 0.1436(4) 1. 0 0.43(7) 
O2 O2- 8 e 0.4453(3) 0.5090(2) 0.1979(4) 1. 0 0.29(6) 
O3 O2- 8 e 0.5885(3) 0.4189(2) 0.4416(4) 1. 0 0.21(6) 

#End of data_162428-ICSD


