data_61661-ICSD
#?2014 by Fachinformationszentrum Karlsruhe, and the U.S. Secretary of 
#Commerce on behalf of the United States.  All rights reserved.
_database_code_ICSD                61661
_audit_creation_date               1986/12/03
_chemical_name_systematic          'Potassium Iodide'
_chemical_formula_structural       'K I'
_chemical_formula_sum              'I1 K1'
_publ_section_title
;
A Diamond Cell for X-ray Diffraction Studies at High Pressures
;
loop_
_citation_id
_citation_journal_abbrev
_citation_year
_citation_journal_volume
_citation_page_first
_citation_page_last
_citation_journal_id_ASTM
primary
;
Journal of Research of the National Bureau of Standards, Section A. 
Physics and Chemistry
;
 1962 66 325 331 JNBAAR
_publ_author_name                  'Piermarini, G.J.;Weir, C.E.'
_cell_length_a                     4.093
_cell_length_b                     4.093
_cell_length_c                     4.093
_cell_angle_alpha                  90.
_cell_angle_beta                   90.
_cell_angle_gamma                  90.
_cell_volume                       68.57
_cell_formula_units_Z              1
_symmetry_space_group_name_H-M     'P m -3 m'
_symmetry_Int_Tables_number        221
loop_
_symmetry_equiv_pos_site_id
_symmetry_equiv_pos_as_xyz
  1	'z, y, -x'
  2	'y, x, -z'
  3	'x, z, -y'
  4	'z, x, -y'
  5	'y, z, -x'
  6	'x, y, -z'
  7	'z, -y, x'
  8	'y, -x, z'
  9	'x, -z, y'
 10	'z, -x, y'
 11	'y, -z, x'
 12	'x, -y, z'
 13	'-z, y, x'
 14	'-y, x, z'
 15	'-x, z, y'
 16	'-z, x, y'
 17	'-y, z, x'
 18	'-x, y, z'
 19	'-z, -y, -x'
 20	'-y, -x, -z'
 21	'-x, -z, -y'
 22	'-z, -x, -y'
 23	'-y, -z, -x'
 24	'-x, -y, -z'
 25	'-z, -y, x'
 26	'-y, -x, z'
 27	'-x, -z, y'
 28	'-z, -x, y'
 29	'-y, -z, x'
 30	'-x, -y, z'
 31	'-z, y, -x'
 32	'-y, x, -z'
 33	'-x, z, -y'
 34	'-z, x, -y'
 35	'-y, z, -x'
 36	'-x, y, -z'
 37	'z, -y, -x'
 38	'y, -x, -z'
 39	'x, -z, -y'
 40	'z, -x, -y'
 41	'y, -z, -x'
 42	'x, -y, -z'
 43	'z, y, x'
 44	'y, x, z'
 45	'x, z, y'
 46	'z, x, y'
 47	'y, z, x'
 48	'x, y, z'
loop_
_atom_type_symbol
_atom_type_oxidation_number
I1-	-1
K1+	1
loop_
_atom_site_label
_atom_site_type_symbol
_atom_site_symmetry_multiplicity
_atom_site_Wyckoff_symbol
_atom_site_fract_x
_atom_site_fract_y
_atom_site_fract_z
_atom_site_occupancy
_atom_site_attached_hydrogens
K1 K1+ 1 a 0 0 0 1. 0 
I1 I1- 1 b 0.5 0.5 0.5 1. 0 

#End of data_61661-ICSD


