data_86428-ICSD
#?2014 by Fachinformationszentrum Karlsruhe, and the U.S. Secretary of 
#Commerce on behalf of the United States.  All rights reserved.
_database_code_ICSD                86428
_audit_creation_date               1999/11/30
_audit_update_record               2010/08/01
_chemical_name_systematic
;
Calcium Samarium Copper Trioxide Chloride
;
_chemical_formula_structural       'Ca Sm Cu O3 Cl'
_chemical_formula_sum              'Ca1 Cl1 Cu1 O3 Sm1'
_publ_section_title
;
The crystal structure of Ca Sm Cu O3 Cl
;
loop_
_citation_id
_citation_journal_abbrev
_citation_year
_citation_journal_volume
_citation_page_first
_citation_page_last
_citation_journal_id_ASTM
primary 'Journal of Solid State Chemistry' 1991 93 263 266 JSSCBI
_publ_author_name
;
Ramanujachary, K.V.;Greaney, M.;Fuller, R.L.;Greenblatt, M.
;
_cell_length_a                     3.894(3)
_cell_length_b                     3.894(3)
_cell_length_c                     13.416(8)
_cell_angle_alpha                  90.
_cell_angle_beta                   90.
_cell_angle_gamma                  90.
_cell_volume                       203.43
_cell_formula_units_Z              2
_symmetry_space_group_name_H-M     'P 4/n m m Z'
_symmetry_Int_Tables_number        129
_refine_ls_R_factor_all            .055
loop_
_symmetry_equiv_pos_site_id
_symmetry_equiv_pos_as_xyz
  1	'y+.5, x+.5, -z'
  2	'-y, x+.5, -z'
  3	'y+.5, -x, -z'
  4	'-y, -x, -z'
  5	'x+.5, y+.5, -z'
  6	'-x, y+.5, -z'
  7	'x+.5, -y, -z'
  8	'-x, -y, -z'
  9	'-y+.5, -x+.5, z'
 10	'y, -x+.5, z'
 11	'-y+.5, x, z'
 12	'y, x, z'
 13	'-x+.5, -y+.5, z'
 14	'x, -y+.5, z'
 15	'-x+.5, y, z'
 16	'x, y, z'
loop_
_atom_type_symbol
_atom_type_oxidation_number
Ca2+	2
Cl1-	-1
Cu2+	2
O2-	-2
Sm3+	3
loop_
_atom_site_label
_atom_site_type_symbol
_atom_site_symmetry_multiplicity
_atom_site_Wyckoff_symbol
_atom_site_fract_x
_atom_site_fract_y
_atom_site_fract_z
_atom_site_occupancy
_atom_site_attached_hydrogens
_atom_site_B_iso_or_equiv
Sm1 Sm3+ 2 c 0.25 0.25 0.4100(1) 1. 0 0.40(1) 
Ca1 Ca2+ 2 c 0.25 0.25 0.1609(4) 1. 0 0.66(4) 
Cu1 Cu2+ 2 c 0.75 0.75 0.2770(2) 1. 0 0.41(3) 
Cl1 Cl1- 2 c 0.75 0.75 0.0740(5) 1. 0 1.02(6) 
O1 O2- 4 f 0.25 0.75 0.275(1) 1. 0 0.9(2) 
O2 O2- 2 b 0.25 0.75 0.5 1. 0 0.4(2) 

#End of data_86428-ICSD


