data_186817-ICSD
#?2014 by Fachinformationszentrum Karlsruhe, and the U.S. Secretary of 
#Commerce on behalf of the United States.  All rights reserved.
_database_code_ICSD                186817
_audit_creation_date               2013/08/01
_chemical_name_systematic          'Potassium Dihydrogen Phosphate'
_chemical_formula_structural       'K H2 (P O4)'
_chemical_formula_sum              'H2 K1 O4 P1'
_publ_section_title
;
Crystal structure of high-pressure phases V and VI of potassium 
dihydrogen phosphate
;
loop_
_citation_id
_citation_journal_abbrev
_citation_year
_citation_journal_volume
_citation_journal_issue
_citation_page_first
_citation_page_last
_citation_journal_id_ASTM
primary 'Journal of the Physical Society of Japan' 2012 81 6 064706-1 064706-5 JUPSAU
_publ_author_name
;
Nakamoto, Yuki;Sakata, Masafumi;Fujihisa, Hiroshi;Shimizu, 
Katsuya;Deguchi, Kiyoshi
;
_cell_length_a                     5.428(1)
_cell_length_b                     12.669(1)
_cell_length_c                     4.501(1)
_cell_angle_alpha                  90.
_cell_angle_beta                   90.
_cell_angle_gamma                  90.
_cell_volume                       309.52
_cell_formula_units_Z              4
_symmetry_space_group_name_H-M     'C 2 2 21'
_symmetry_Int_Tables_number        20
_refine_ls_R_factor_all            .008
loop_
_symmetry_equiv_pos_site_id
_symmetry_equiv_pos_as_xyz
  1	'-x, y, -z+.5'
  2	'-x, -y, z+.5'
  3	'x, -y, -z'
  4	'x, y, z'
  5	'-x+.5, y+.5, -z+.5'
  6	'-x+.5, -y+.5, z+.5'
  7	'x+.5, -y+.5, -z'
  8	'x+.5, y+.5, z'
loop_
_atom_type_symbol
_atom_type_oxidation_number
H1+	1
K1+	1
O2-	-2
P5+	5
loop_
_atom_site_label
_atom_site_type_symbol
_atom_site_symmetry_multiplicity
_atom_site_Wyckoff_symbol
_atom_site_fract_x
_atom_site_fract_y
_atom_site_fract_z
_atom_site_occupancy
_atom_site_attached_hydrogens
K1 K1+ 4 b 0 0.1155 0.250 1. 0 
P1 P5+ 4 b 0 0.3649 0.250 1. 0 
O1 O2- 8 c 0.2229 0.4348 0.3140 1. 0 
O2 O2- 8 c 0.0797 0.2960 -0.0075 1. 0 
H1 H1+ 4 a 0.1991 0.5 0.5 1. 0 
H2 H1+ 4 b 0 0.2964 0.750 1. 0 

#End of data_186817-ICSD


