data_80107-ICSD
#?2014 by Fachinformationszentrum Karlsruhe, and the U.S. Secretary of 
#Commerce on behalf of the United States.  All rights reserved.
_database_code_ICSD                80107
_audit_creation_date               1996/10/14
_audit_update_record               2011/02/01
_chemical_name_systematic          'Copper Bis(tetrachloroaluminate)'
_chemical_formula_structural       'Cu (Al Cl4)2'
_chemical_formula_sum              'Al2 Cl8 Cu1'
_publ_section_title
;
Re-examination shows that copper(II) tetrachloroaluminium, Cu (Al 
Cl4)2, is monoclinic and not triclinic as originally stated
;
loop_
_citation_id
_citation_journal_abbrev
_citation_year
_citation_journal_volume
_citation_page_first
_citation_page_last
_citation_journal_id_ASTM
primary 'Acta Crystallographica, Section C: Crystal Structure Communications'
 1995 51 1739 1741 ACSCEE
2 'Bulletin of the Chemical Society of Japan' 1982 55 2064 2067 BCSJA8
_publ_author_name                  'Herbstein, F.H.;Kapon, M.'
_cell_length_a                     6.582(6)
_cell_length_b                     7.362(5)
_cell_length_c                     12.265(5)
_cell_angle_alpha                  90.
_cell_angle_beta                   94.03(6)
_cell_angle_gamma                  90.
_cell_volume                       592.85
_cell_formula_units_Z              2
_symmetry_space_group_name_H-M     'P 1 21/c 1'
_symmetry_Int_Tables_number        14
_refine_ls_R_factor_all            .088
loop_
_symmetry_equiv_pos_site_id
_symmetry_equiv_pos_as_xyz
  1	'x, -y+.5, z+.5'
  2	'-x, -y, -z'
  3	'-x, y+.5, -z+.5'
  4	'x, y, z'
loop_
_atom_type_symbol
_atom_type_oxidation_number
Al3+	3
Cl1-	-1
Cu2+	2
loop_
_atom_site_label
_atom_site_type_symbol
_atom_site_symmetry_multiplicity
_atom_site_Wyckoff_symbol
_atom_site_fract_x
_atom_site_fract_y
_atom_site_fract_z
_atom_site_occupancy
_atom_site_attached_hydrogens
Cu1 Cu2+ 2 a 0 0 0 1. 0 
Al1 Al3+ 4 e 0.1918(3) 0.7351(3) 0.1812(2) 1. 0 
Cl1 Cl1- 4 e 0.8885(3) 0.7556(3) 0.0944(2) 1. 0 
Cl2 Cl1- 4 e 0.2992(3) -.0131(3) 0.1086(2) 1. 0 
Cl3 Cl1- 4 e 0.1665(4) 0.7669(3) 0.3503(1) 1. 0 
Cl4 Cl1- 4 e 0.3576(4) 0.5124(3) 0.1365(2) 1. 0 

loop_
_atom_site_aniso_label
_atom_site_aniso_type_symbol
_atom_site_aniso_U_11
_atom_site_aniso_U_22
_atom_site_aniso_U_33
_atom_site_aniso_U_12
_atom_site_aniso_U_13
_atom_site_aniso_U_23
Cu1 Cu2+ 0.0519(9) 0.0440(8) 0.0304(8) -0.0084(5) -0.0055(6) 0.0165(5)
Al1 Al3+ 0.0537(13) 0.0358(11) 0.0187(10) 0.0031(9) 0.0040(8) 0.0030(7)
Cl1 Cl1- 0.0511(11) 0.0428(10) 0.0343(10) -0.0089(7) -0.0011(7) 0.0127(7)
Cl2 Cl1- 0.0510(11) 0.0511(12) 0.0327(10) -0.0120(8) -0.0049(8) 0.0136(7)
Cl3 Cl1- 0.0823(14) 0.0542(12) 0.0194(9) -0.0107(10) 0.0093(8) 0.0017(7)
Cl4 Cl1- 0.0745(15) 0.0578(14) 0.0549(14) 0.0234(11) -0.0012(11) -0.012(1)
#End of data_80107-ICSD


