data_80114-ICSD
#?2014 by Fachinformationszentrum Karlsruhe, and the U.S. Secretary of 
#Commerce on behalf of the United States.  All rights reserved.
_database_code_ICSD                80114
_audit_creation_date               1996/10/14
_chemical_name_systematic
;
Potassium Yttrium Cyclo-tetraphosphate
;
_chemical_formula_structural       'K Y (P4 O12)'
_chemical_formula_sum              'K1 O12 P4 Y1'
_publ_section_title                'K Y P4 O12'
loop_
_citation_id
_citation_journal_abbrev
_citation_year
_citation_journal_volume
_citation_page_first
_citation_page_last
_citation_journal_id_ASTM
primary 'Acta Crystallographica, Section C: Crystal Structure Communications'
 1995 51 1970 1972 ACSCEE
_publ_author_name                  'Hamady, A.;Jouini, T.;Driss, A.'
_cell_length_a                     7.8067(6)
_cell_length_b                     12.3221(10)
_cell_length_c                     10.4078(10)
_cell_angle_alpha                  90.
_cell_angle_beta                   111.174(7)
_cell_angle_gamma                  90.
_cell_volume                       933.59
_cell_formula_units_Z              4
_symmetry_space_group_name_H-M     'C 1 2/c 1'
_symmetry_Int_Tables_number        15
_refine_ls_R_factor_all            .026
loop_
_symmetry_equiv_pos_site_id
_symmetry_equiv_pos_as_xyz
  1	'x, -y, z+.5'
  2	'-x, -y, -z'
  3	'-x, y, -z+.5'
  4	'x, y, z'
  5	'x+.5, -y+.5, z+.5'
  6	'-x+.5, -y+.5, -z'
  7	'-x+.5, y+.5, -z+.5'
  8	'x+.5, y+.5, z'
loop_
_atom_type_symbol
_atom_type_oxidation_number
K1+	1
O2-	-2
P5+	5
Y3+	3
loop_
_atom_site_label
_atom_site_type_symbol
_atom_site_symmetry_multiplicity
_atom_site_Wyckoff_symbol
_atom_site_fract_x
_atom_site_fract_y
_atom_site_fract_z
_atom_site_occupancy
_atom_site_attached_hydrogens
Y1 Y3+ 4 e 0 0.11940(4) 0.25 1. 0 
K1 K1+ 4 e 0 0.1842(1) 0.75 1. 0 
P1 P5+ 8 f 0.281(1) 0.02344(7) 0.05977(9) 1. 0 
P2 P5+ 8 f 0.4579(1) 0.17090(7) 0.5033(1) 1. 0 
O1 O2- 8 f 0.2198(3) 0.0291(2) 0.1775(3) 1. 0 
O2 O2- 8 f 0.1462(4) 0.0106(2) -.0827(3) 1. 0 
O3 O2- 8 f 0.4017(4) 0.1288(2) 0.0663(3) 1. 0 
O4 O2- 8 f 0.4317(3) 0.0709(2) 0.5897(3) 1. 0 
O5 O2- 8 f 0.2880(3) 0.1992(2) 0.3863(3) 1. 0 
O6 O2- 8 f 0.5560(4) 0.2572(2) 0.6020(3) 1. 0 

loop_
_atom_site_aniso_label
_atom_site_aniso_type_symbol
_atom_site_aniso_U_11
_atom_site_aniso_U_22
_atom_site_aniso_U_33
_atom_site_aniso_U_12
_atom_site_aniso_U_13
_atom_site_aniso_U_23
Y1 Y3+ 0.0074(3) 0.0055(3) 0.0064(3) 0 0.0027(2) 0
K1 K1+ 0.0837(14) 0.0139(7) 0.0194(7) 0 0.0210(8) 0
P1 P5+ 0.0080(5) 0.0060(5) 0.0074(5) -.0001(3) 0.0041(4) -.0009(4)
P2 P5+ 0.0075(5) 0.0060(5) 0.0085(5) -.0001(3) 0.0039(4) -.0008(4)
O1 O2- 0.0125(14) 0.0118(14) 0.0123(14) 0.0002(10) 0.0083(11) -.0010(11)
O2 O2- 0.0119(13) 0.0114(13) 0.0105(14) 0.0011(11) 0.0031(11) -.0032(11)
O3 O2- 0.0142(14) 0.0100(13) 0.0165(14) -.0038(11) 0.0109(12) -.0021(11)
O4 O2- 0.0105(13) 0.0093(13) 0.0094(13) -.0021(11) 0.0029(10) 0.0017(11)
O5 O2- 0.0115(13) 0.0098(13) 0.0110(13) -.0005(11) 0.0041(11) -.0002(11)
O6 O2- 0.0120(13) 0.0101(13) 0.0151(14) -.0021(11) 0.0053(11) -.0054(11)
#End of data_80114-ICSD


