data_20031-ICSD
#?2014 by Fachinformationszentrum Karlsruhe, and the U.S. Secretary of 
#Commerce on behalf of the United States.  All rights reserved.
_database_code_ICSD                20031
_audit_creation_date               1980/01/01
_audit_update_record               1987/05/21
_chemical_name_systematic          'Dilithium Cadmium Germanate'
_chemical_formula_structural       'Li2 Cd Ge O4'
_chemical_formula_sum              'Cd1 Ge1 Li2 O4'
_publ_section_title
;
Crystallization of germanates in system Li2 O - Cd O - Ge O2 - H2 O 
and the crystal structure of Li, Cd - orthogermanates
;
loop_
_citation_id
_citation_journal_abbrev
_citation_year
_citation_journal_volume
_citation_page_first
_citation_page_last
_citation_journal_id_ASTM
primary 'Doklady Akademii Nauk SSSR' 1971 200 329 332 DANKAS
_publ_author_name
;
Korjakina, N.S.;Suvorova, N.V.;Dem'yanets, L.N.;Maksimov, 
B.A.;Ilyukhin, V.V.;Belov, N.V.
;
_cell_length_a                     6.64
_cell_length_b                     5.47
_cell_length_c                     5.13
_cell_angle_alpha                  90.
_cell_angle_beta                   90.
_cell_angle_gamma                  90.
_cell_volume                       186.33
_cell_formula_units_Z              2
_symmetry_space_group_name_H-M     'P m n 21'
_symmetry_Int_Tables_number        31
_refine_ls_R_factor_all            .118
loop_
_symmetry_equiv_pos_site_id
_symmetry_equiv_pos_as_xyz
  1	'x+.5, -y, z+.5'
  2	'-x+.5, -y, z+.5'
  3	'-x, y, z'
  4	'x, y, z'
loop_
_atom_type_symbol
_atom_type_oxidation_number
Cd2+	2
Ge4+	4
Li1+	1
O2-	-2
loop_
_atom_site_label
_atom_site_type_symbol
_atom_site_symmetry_multiplicity
_atom_site_Wyckoff_symbol
_atom_site_fract_x
_atom_site_fract_y
_atom_site_fract_z
_atom_site_occupancy
_atom_site_attached_hydrogens
_atom_site_B_iso_or_equiv
Cd1 Cd2+ 2 a 0 0.179 0 1. 0 -.281 
Ge1 Ge4+ 2 a 0.5 0.187 0.001 1. 0 -.131 
Li1 Li1+ 4 b 0.259 0.333 0.51 1. 0 -.348 
O1 O2- 4 b 0.286 0.34 0.893 1. 0 -.328 
O2 O2- 2 a 0 0.16 0.441 1. 0 0.095 
O3 O2- 2 a 0.5 0.194 0.38 1. 0 -.224 

#End of data_20031-ICSD


