data_61087-ICSD
#?2014 by Fachinformationszentrum Karlsruhe, and the U.S. Secretary of 
#Commerce on behalf of the United States.  All rights reserved.
_database_code_ICSD                61087
_audit_creation_date               1986/12/03
_audit_update_record               1986/12/13
_chemical_name_systematic          'Dirubidium Dilithium Germanate'
_chemical_formula_structural       'Rb2 Li2 Ge O4'
_chemical_formula_sum              'Ge1 Li2 O4 Rb2'
_publ_section_title
;
Neue Oxide des Formeltyps A2 (T3 O4): Rb2 Li2 Si O4 und Rb2 Li2 Ge O4
;
loop_
_citation_id
_citation_journal_abbrev
_citation_year
_citation_journal_volume
_citation_page_first
_citation_page_last
_citation_journal_id_ASTM
primary
;
Zeitschrift fuer Naturforschung, Teil B. Anorganische Chemie, 
Organische Chemie (33,1978-41,1986)
;
 1985 40 1441 1452 ZNBAD2
_publ_author_name                  'Hofmann, R.;Nowitzki, B.;Hoppe, R.'
_cell_length_a                     9.0544(95)
_cell_length_b                     5.7537(65)
_cell_length_c                     5.6064(72)
_cell_angle_alpha                  94.67(9)
_cell_angle_beta                   110.82(10)
_cell_angle_gamma                  93.60(9)
_cell_volume                       270.77
_cell_formula_units_Z              2
_symmetry_space_group_name_H-M     'P -1'
_symmetry_Int_Tables_number        2
_refine_ls_R_factor_all            .1368
loop_
_symmetry_equiv_pos_site_id
_symmetry_equiv_pos_as_xyz
  1	'-x, -y, -z'
  2	'x, y, z'
loop_
_atom_type_symbol
_atom_type_oxidation_number
Ge4+	4
Li1+	1
O2-	-2
Rb1+	1
loop_
_atom_site_label
_atom_site_type_symbol
_atom_site_symmetry_multiplicity
_atom_site_Wyckoff_symbol
_atom_site_fract_x
_atom_site_fract_y
_atom_site_fract_z
_atom_site_occupancy
_atom_site_attached_hydrogens
_atom_site_U_iso_or_equiv
Ge1 Ge4+ 2 i 0.2757(3) 0.3156(4) 0.4224(5) 1. 0 0 
Rb1 Rb1+ 2 i 0.2681(4) 0.8486(5) 0.7993(6) 1. 0 0 
Rb2 Rb1+ 2 i 0.0212(4) 0.2766(5) 0.8093(5) 1. 0 0 
Li1 Li1+ 2 i 0.422(5) 0.387(6) 0.112(7) 1. 0 0.004(7) 
Li2 Li1+ 2 i 0.447(5) 0.803(9) 0.379(9) 1. 0 0.020(9) 
O1 O2- 2 i 0.388(2) 0.356(3) 0.750(4) 1. 0 0.014(4) 
O2 O2- 2 i 0.270(2) 0.579(3) 0.261(4) 1. 0 0.022(9) 
O3 O2- 2 i 0.389(3) 0.132(3) 0.292(4) 1. 0 0.031(11) 
O4 O2- 2 i 0.080(3) 0.206(4) 0.348(4) 1. 0 0.025(5) 

loop_
_atom_site_aniso_label
_atom_site_aniso_type_symbol
_atom_site_aniso_U_11
_atom_site_aniso_U_22
_atom_site_aniso_U_33
_atom_site_aniso_U_12
_atom_site_aniso_U_13
_atom_site_aniso_U_23
Ge1 Ge4+ 0.0179(14) 0.0078(11) 0.0037(11) -.0014(9) 0.0062(10) -.0031(8)
Rb1 Rb1+ 0.046(2) 0.0178(12) 0.0165(13) -.0002(12) 0.0158(13) -.005(1)
Rb2 Rb1+ 0.040(2) 0.0192(13) 0.0124(12) 0.0021(11) 0.0156(12) -.0048(9)
#End of data_61087-ICSD


