data_173744-ICSD
#?2014 by Fachinformationszentrum Karlsruhe, and the U.S. Secretary of 
#Commerce on behalf of the United States.  All rights reserved.
_database_code_ICSD                173744
_audit_creation_date               2009/08/01
_chemical_name_systematic
;
Dipotassium Dicobalt Trimolybdate - Ii
;
_chemical_formula_structural       'K2 Co2 (Mo3 O12)'
_chemical_formula_sum              'Co2 K2 Mo3 O12'
_publ_section_title
;
Polymorphism of K2 Co2 Mo3 O12: variations in the packing schemes and 
changes in molybdenum coordination under high pressure
;
loop_
_citation_id
_citation_journal_abbrev
_citation_year
_citation_journal_volume
_citation_journal_issue
_citation_page_first
_citation_page_last
_citation_journal_id_ASTM
primary 'Acta Crystallographica, Section B: Structural Science'
 2009 65 1 29 35 ASBSDK
_publ_author_name
;
Engel, J.M.;Ahsbahs, H.;Fuess, H.;Ehrenberg, H.
;
_cell_length_a                     13.5237(8)
_cell_length_b                     7.6440(4)
_cell_length_c                     18.850(1)
_cell_angle_alpha                  90.00
_cell_angle_beta                   104.260(6)
_cell_angle_gamma                  90.00
_cell_volume                       1888.58
_cell_formula_units_Z              8
_symmetry_space_group_name_H-M     'P 1 21/c 1'
_symmetry_Int_Tables_number        14
_refine_ls_R_factor_all            .047
loop_
_symmetry_equiv_pos_site_id
_symmetry_equiv_pos_as_xyz
  1	'x, -y+.5, z+.5'
  2	'-x, -y, -z'
  3	'-x, y+.5, -z+.5'
  4	'x, y, z'
loop_
_atom_type_symbol
_atom_type_oxidation_number
Co2+	2
K1+	1
Mo6+	6
O2-	-2
loop_
_atom_site_label
_atom_site_type_symbol
_atom_site_symmetry_multiplicity
_atom_site_Wyckoff_symbol
_atom_site_fract_x
_atom_site_fract_y
_atom_site_fract_z
_atom_site_occupancy
_atom_site_attached_hydrogens
_atom_site_U_iso_or_equiv
Mo1 Mo6+ 4 e 0.24962(11) 0.3685(7) 0.26601(11) 1 0 0.010(4) 
Mo2 Mo6+ 4 e 0.25987(11) 0.7825(8) 0.24996(10) 1 0 0.019(4) 
Mo3 Mo6+ 4 e 0.67270(12) 0.7542(7) 0.39151(11) 1 0 0.011(3) 
Mo4 Mo6+ 4 e 0.12143(11) 0.7131(7) 0.40837(10) 1 0 0.010(3) 
Mo5 Mo6+ 4 e 0.53078(11) 0.2909(7) 0.44848(11) 1 0 0.014(3) 
Mo6 Mo6+ 4 e 0.04318(11) 0.3513(7) 0.45044(10) 1 0 0.014(3) 
Co1 Co2+ 4 e 0.41748(18) 0.6830(11) 0.38075(16) 1 0 0.026(5) 
Co2 Co2+ 4 e 0.10865(17) 0.4358(11) 0.65596(16) 1 0 0.0133(8) 
Co3 Co2+ 4 e 0.28968(17) 0.4449(11) 0.44681(17) 1 0 0.012(5) 
Co4 Co2+ 4 e 0.22303(18) 0.6460(11) 0.57217(17) 1 0 0.016(5) 
K1 K1+ 4 e 0.2852(3) 0.023(2) 0.4158(3) 1 0 0.026(10) 
K2 K1+ 4 e 0.0983(3) 0.0195(19) 0.5872(3) 1 0 0.017(9) 
K3 K1+ 4 e 0.4974(3) -0.0323(19) 0.2553(3) 1 0 0.025(7) 
K4 K1+ 4 e 0.0147(3) 0.1841(18) 0.2842(3) 1 0 0.028(9) 
O1 O2- 4 e 0.3390(8) 0.231(5) 0.2443(8) 1 0 0.0161(9) 
O2 O2- 4 e 0.1707(9) 0.587(5) 0.2295(8) 1 0 0.0161(9) 
O3 O2- 4 e 0.3453(9) 0.553(5) 0.2893(8) 1 0 0.0161(9) 
O4 O2- 4 e 0.1599(9) 0.929(5) 0.2485(8) 1 0 0.0161(9) 
O5 O2- 4 e 0.2327(9) 0.307(5) 0.3534(7) 1 0 0.0161(9) 
O6 O2- 4 e 0.3064(8) 0.803(5) 0.1726(8) 1 0 0.0161(9) 
O7 O2- 4 e 0.1366(8) 0.287(5) 0.2067(8) 1 0 0.0161(9) 
O8 O2- 4 e 0.3588(8) 0.879(5) 0.3176(8) 1 0 0.0161(9) 
O9 O2- 4 e 0.7007(9) 0.964(6) 0.3654(8) 1 0 0.0161(9) 
O10 O2- 4 e 0.0577(9) 0.875(5) 0.3525(8) 1 0 0.0161(9) 
O11 O2- 4 e 0.5470(8) 0.689(5) 0.3518(7) 1 0 0.0161(9) 
O12 O2- 4 e -0.0426(9) 0.487(5) 0.6401(8) 1 0 0.0161(9) 
O13 O2- 4 e 0.6779(8) 0.764(5) 0.4848(7) 1 0 0.0161(9) 
O14 O2- 4 e 0.1686(8) 0.825(5) 0.4936(7) 1 0 0.0161(9) 
O15 O2- 4 e 0.7737(9) 0.608(5) 0.3860(8) 1 0 0.0161(9) 
O16 O2- 4 e 0.2376(9) 0.685(5) 0.3822(8) 1 0 0.0161(9) 
O17 O2- 4 e 0.5077(9) 0.158(5) 0.3755(7) 1 0 0.0161(9) 
O18 O2- 4 e 0.0954(9) 0.156(5) 0.4392(8) 1 0 0.0161(9) 
O19 O2- 4 e 0.5389(9) 0.164(5) 0.5276(7) 1 0 0.0161(9) 
O20 O2- 4 e 0.0173(8) 0.335(5) 0.5413(7) 1 0 0.0161(9) 
O21 O2- 4 e 0.6512(8) 0.403(5) 0.4600(7) 1 0 0.0161(9) 
O22 O2- 4 e 0.1593(8) 0.493(5) 0.4795(8) 1 0 0.0161(9) 
O23 O2- 4 e 0.4307(8) 0.452(5) 0.4344(8) 1 0 0.0161(9) 
O24 O2- 4 e -0.0886(9) 0.321(5) 0.3996(8) 1 0 0.0161(9) 

loop_
_atom_site_aniso_label
_atom_site_aniso_type_symbol
_atom_site_aniso_U_11
_atom_site_aniso_U_22
_atom_site_aniso_U_33
_atom_site_aniso_U_12
_atom_site_aniso_U_13
_atom_site_aniso_U_23
Mo1 Mo6+ 0.0114(9) 0.008(12) 0.0122(13) -0.0004(16) 0.0048(7) 0.000(2)
Mo2 Mo6+ 0.0120(9) 0.035(12) 0.0108(12) -0.0010(17) 0.0038(7) 0.001(2)
Mo3 Mo6+ 0.0121(9) 0.007(10) 0.0130(12) -0.0006(17) 0.0032(7) 0.003(2)
Mo4 Mo6+ 0.0132(9) 0.009(10) 0.0085(12) -0.0008(16) 0.0046(7) 0.000(2)
Mo5 Mo6+ 0.0105(8) 0.020(10) 0.0130(12) -0.0023(16) 0.0030(7) 0.001(2)
Mo6 Mo6+ 0.0099(9) 0.025(11) 0.0085(12) -0.0001(16) 0.0052(7) -0.002(2)
Co1 Co2+ 0.0137(14) 0.057(17) 0.0094(18) -0.003(3) 0.0050(11) 0.000(4)
Co3 Co2+ 0.0108(13) 0.008(16) 0.018(2) -0.001(2) 0.0071(11) 0.001(4)
Co4 Co2+ 0.0149(14) 0.022(17) 0.012(2) 0.003(2) 0.0075(11) 0.005(3)
K1 K1+ 0.033(3) 0.02(3) 0.024(4) 0.001(5) 0.013(2) -0.001(7)
K2 K1+ 0.020(2) 0.02(3) 0.009(3) -0.015(4) 0.0061(18) -0.001(6)
K3 K1+ 0.019(2) 0.04(2) 0.022(3) 0.002(5) 0.0081(18) 0.015(6)
K4 K1+ 0.023(2) 0.05(3) 0.014(3) -0.001(4) 0.0086(19) -0.011(6)
#End of data_173744-ICSD


