data_250235-ICSD
#?2014 by Fachinformationszentrum Karlsruhe, and the U.S. Secretary of 
#Commerce on behalf of the United States.  All rights reserved.
_database_code_ICSD                250235
_audit_creation_date               2005/04/01
_chemical_name_systematic
;
Potassium Tin Zirconium Heptafluoride
;
_chemical_formula_structural       'K Sn Zr F7'
_chemical_formula_sum              'F7 K1 Sn1 Zr1'
_publ_section_title
;
Synthesis, structure, internal mobility, and ionic conductivity in N 
H4 Sn Zr F7 and K Sn Zr F7
;
loop_
_citation_id
_citation_journal_abbrev
_citation_year
_citation_journal_volume
_citation_page_first
_citation_page_last
_citation_journal_id_ASTM
primary 'Zhurnal Neorganicheskoi Khimii' 2004 49 1322 1330 ZNOKAQ
_publ_author_name
;
Tkachenko, I.A.;Gerasimenko, A.V.;Merkulov, E.B.;Kavun, V.Ya.;Uvarov, 
N.F.;Sergienko, V.I.
;
_cell_length_a                     8.375(1)
_cell_length_b                     5.9390(7)
_cell_length_c                     12.468(1)
_cell_angle_alpha                  90
_cell_angle_beta                   90
_cell_angle_gamma                  90
_cell_volume                       620.15
_cell_formula_units_Z              4
_symmetry_space_group_name_H-M     'P m n a'
_symmetry_Int_Tables_number        53
_refine_ls_R_factor_all            .0365
loop_
_symmetry_equiv_pos_site_id
_symmetry_equiv_pos_as_xyz
  1	'x+.5, y, -z+.5'
  2	'x+.5, -y, z+.5'
  3	'-x, y, z'
  4	'-x, -y, -z'
  5	'-x+.5, -y, z+.5'
  6	'-x+.5, y, -z+.5'
  7	'x, -y, -z'
  8	'x, y, z'
loop_
_atom_type_symbol
_atom_type_oxidation_number
F1-	-1
K1+	1
Sn2+	2
Zr4+	4
loop_
_atom_site_label
_atom_site_type_symbol
_atom_site_symmetry_multiplicity
_atom_site_Wyckoff_symbol
_atom_site_fract_x
_atom_site_fract_y
_atom_site_fract_z
_atom_site_occupancy
_atom_site_attached_hydrogens
_atom_site_U_iso_or_equiv
Sn1 Sn2+ 4 h 0 0.23714(7) 0.40561(3) 1. 0 0.0158(1) 
Zr1 Zr4+ 4 h 0 0.25020(8) 0.08527(4) 1. 0 0.0107(1) 
F1 F1- 4 f 0.1437(5) 0.5 0 1. 0 0.0192(9) 
F2 F1- 4 h 0 0.1272(6) -0.0711(3) 1. 0 0.023(1) 
F3 F1- 4 h 0 0.4993(6) 0.1935(3) 1. 0 0.024(1) 
F4 F1- 4 h 0 0.0950(6) 0.2410(3) 1. 0 0.023(1) 
F5 F1- 8 i 0.2331(3) 0.1592(6) 0.1099(2) 1. 0 0.0274(8) 
F6 F1- 4 h 0 -0.1161(6) 0.4162(3) 1. 0 0.024(1) 
K1 K1+ 4 g 0.25 0.7829(3) 0.25 1. 0 0.0323(4) 

#End of data_250235-ICSD


