data_9371-ICSD
#?2014 by Fachinformationszentrum Karlsruhe, and the U.S. Secretary of 
#Commerce on behalf of the United States.  All rights reserved.
_database_code_ICSD                9371
_audit_creation_date               1980/01/01
_audit_update_record               2011/02/01
_chemical_name_systematic          'Tetradecamagnesium Pentagermanate'
_chemical_formula_structural       'Mg14 (Ge5 O24)'
_chemical_formula_sum              'Ge5 Mg14 O24'
_publ_section_title
;
The crystal structure of magnesium germanate. A reformulation of Mg4 
Ge O6 As Mg28 Ge10 O48
;
loop_
_citation_id
_citation_journal_abbrev
_citation_year
_citation_journal_volume
_citation_page_first
_citation_page_last
_citation_journal_id_ASTM
primary 'Journal of Solid State Chemistry' 1970 2 612 618 JSSCBI
_publ_author_name
;
von Dreele, R.B.;Bless, P.W.;Kostiner, E.;Hughes, R.E.
;
_cell_length_a                     14.512(2)
_cell_length_b                     10.219(2)
_cell_length_c                     5.944(1)
_cell_angle_alpha                  90.
_cell_angle_beta                   90.
_cell_angle_gamma                  90.
_cell_volume                       881.48
_cell_formula_units_Z              2
_symmetry_space_group_name_H-M     'P b a m'
_symmetry_Int_Tables_number        55
_refine_ls_R_factor_all            .044
loop_
_symmetry_equiv_pos_site_id
_symmetry_equiv_pos_as_xyz
  1	'x+.5, -y+.5, z'
  2	'-x+.5, y+.5, z'
  3	'x, y, -z'
  4	'-x, -y, -z'
  5	'-x+.5, y+.5, -z'
  6	'x+.5, -y+.5, -z'
  7	'-x, -y, z'
  8	'x, y, z'
loop_
_atom_type_symbol
_atom_type_oxidation_number
Ge4+	4
Mg2+	2
O2-	-2
loop_
_atom_site_label
_atom_site_type_symbol
_atom_site_symmetry_multiplicity
_atom_site_Wyckoff_symbol
_atom_site_fract_x
_atom_site_fract_y
_atom_site_fract_z
_atom_site_occupancy
_atom_site_attached_hydrogens
_atom_site_B_iso_or_equiv
Ge1 Ge4+ 2 a 0 0 0 1. 0 0.3 
Ge2 Ge4+ 4 g 0.12563(3) 0.50156(5) 0 1. 0 0.28 
Ge3 Ge4+ 4 h 0.18623(3) 0.32509(5) 0.5 1. 0 0.39 
Mg1 Mg2+ 2 d 0 0.5 0.5 1. 0 0.39 
Mg2 Mg2+ 2 b 0 0 0.5 1. 0 0.42 
Mg3 Mg2+ 4 g 0.1759(1) 0.1785(2) 0 1. 0 0.39 
Mg4 Mg2+ 4 h 0.3259(1) 0.1466(2) 0.5 1. 0 0.36 
Mg5 Mg2+ 8 i -.0046(1) 0.2517(1) 0.2423(2) 1. 0 0.38 
Mg6 Mg2+ 8 i 0.3315(1) 0.4192(1) 0.2460(2) 1. 0 0.37 
O1 O2- 4 g 0.0840(2) 0.3374(3) 0 1. 0 0.38 
O2 O2- 4 g 0.4217(2) 0.3488(3) 0 1. 0 0.35 
O3 O2- 4 g 0.2520(2) 0.0034(4) 0 1. 0 0.43 
O4 O2- 4 h 0.0677(2) 0.3294(4) 0.5 1. 0 0.48 
O5 O2- 4 h 0.4129(2) 0.3315(3) 0.5 1. 0 0.37 
O6 O2- 4 h 0.2562(2) -.0231(3) 0.5 1. 0 0.45 
O7 O2- 8 i 0.0757(2) 0.0780(2) 0.2234(4) 1. 0 0.42 
O8 O2- 8 i 0.4142(2) 0.0810(2) 0.2482(4) 1. 0 0.38 
O9 O2- 8 i 0.2426(2) 0.2513(2) 0.2731(4) 1. 0 0.45 

#End of data_9371-ICSD


