data_63519-ICSD
#?2014 by Fachinformationszentrum Karlsruhe, and the U.S. Secretary of 
#Commerce on behalf of the United States.  All rights reserved.
_database_code_ICSD                63519
_audit_creation_date               1988/12/19
_chemical_name_systematic
;
Lithium Magnesium Indium Tris(molybdate(VI))
;
_chemical_formula_structural       'Li Mg In (Mo O4)3'
_chemical_formula_sum              'In1 Li1 Mg1 Mo3 O12'
_publ_section_title
;
Structure of the ternary molybdate LiMgIn(MoO4)3
;
loop_
_citation_id
_citation_journal_abbrev
_citation_year
_citation_journal_volume
_citation_journal_issue
_citation_page_first
_citation_page_last
_citation_journal_id_ASTM
primary 'Doklady Akademii Nauk SSSR' 1985 284- 128 130 DANKAS
2 'Soviet Physics, Doklady (see: Doklady Akademii Nauk SSR)'
 1985 30 9 734 735 SPHDA9
_publ_author_name
;
Khazheeva, Z.I.;Mokhosoev, M.V.;Smirnyagina, N.N.;Kozhevnikova, 
N.M.;Alekseev, F.P.;Simonov, V.I.
;
_cell_length_a                     6.964(1)
_cell_length_b                     8.442(2)
_cell_length_c                     9.731(1)
_cell_angle_alpha                  96.32(2)
_cell_angle_beta                   106.75(3)
_cell_angle_gamma                  101.84(2)
_cell_volume                       527.35
_cell_formula_units_Z              2
_symmetry_space_group_name_H-M     'P -1'
_symmetry_Int_Tables_number        2
_refine_ls_R_factor_all            .064
loop_
_symmetry_equiv_pos_site_id
_symmetry_equiv_pos_as_xyz
  1	'-x, -y, -z'
  2	'x, y, z'
loop_
_atom_type_symbol
_atom_type_oxidation_number
In3+	3
Li1+	1
Mg2+	2
Mo6+	6
O2-	-2
loop_
_atom_site_label
_atom_site_type_symbol
_atom_site_symmetry_multiplicity
_atom_site_Wyckoff_symbol
_atom_site_fract_x
_atom_site_fract_y
_atom_site_fract_z
_atom_site_occupancy
_atom_site_attached_hydrogens
_atom_site_B_iso_or_equiv
Mo1 Mo6+ 2 i 0.7988(1) 0.3955(1) 0.6591(1) 1. 0 0.76(2) 
Mo2 Mo6+ 2 i 0.0054(1) -.0088(1) 0.2557(1) 1. 0 0.76(2) 
Mo3 Mo6+ 2 i 0.5192(1) 0.3000(1) 0.1230(1) 1. 0 0.85(2) 
Mg1 Mg2+ 2 i 0.9567(1) 0.3046(1) 0.0069(1) 1. 0 1.07(2) 
In1 In3+ 2 i 0.2516(1) 0.3027(1) 0.5942(1) 1. 0 1.17(2) 
O1 O2- 2 i 0.8522(7) 0.1349(6) 0.8142(5) 1. 0 1.21(2) 
O2 O2- 2 i 0.9393(7) 0.2931(6) 0.5716(5) 1. 0 1.26(2) 
O3 O2- 2 i 0.5522(6) 0.2663(6) 0.6383(5) 1. 0 1.08(2) 
O4 O2- 2 i 0.2301(7) 0.1287(5) 0.7358(4) 1. 0 0.90(2) 
O5 O2- 2 i 0.2442(8) 0.4397(6) 0.4261(5) 1. 0 1.53(2) 
O6 O2- 2 i 0.9438(7) 0.4737(6) 0.8502(4) 1. 0 1.08(2) 
O7 O2- 2 i 0.6464(7) 0.2766(6) 0.9884(5) 1. 0 1.29(2) 
O8 O2- 2 i 0.1617(8) 0.0965(6) 0.4285(5) 1. 0 1.36(2) 
O9 O2- 2 i 0.9502(8) 0.1338(7) 0.1445(6) 1. 0 1.68(2) 
O10 O2- 2 i 0.2622(7) 0.3021(8) 0.0354(6) 1. 0 1.80(2) 
O11 O2- 2 i 0.5169(10) 0.1325(7) 0.2096(6) 1. 0 1.97(2) 
O12 O2- 2 i 0.6492(8) 0.4810(6) 0.2517(6) 1. 0 1.70(2) 
Li1 Li1+ 2 i 0.5321(12) 0.1058(9) 0.7865(8) 1. 0 1.98(2) 

#End of data_63519-ICSD


