data_26141-ICSD
#?2014 by Fachinformationszentrum Karlsruhe, and the U.S. Secretary of 
#Commerce on behalf of the United States.  All rights reserved.
_database_code_ICSD                26141
_audit_creation_date               1980/01/01
_audit_update_record               2011/02/01
_chemical_name_systematic
;
Tetrasilver Manganese Diantimony Sulfide
;
_chemical_formula_structural       'Ag4 Mn Sb2 S6'
_chemical_formula_sum              'Ag4 Mn1 S6 Sb2'
_chemical_name_mineral             Samsonite
_publ_section_title
;
The crystal structure of samsonite, (Ag2 S)2 (Mn S) (Sb2 S3)
;
loop_
_citation_id
_citation_journal_abbrev
_citation_year
_citation_journal_volume
_citation_page_first
_citation_page_last
_citation_journal_id_ASTM
primary 'Acta Crystallographica B (24,1968-38,1982)' 1969 25 1004 1006 ACBCAR
_publ_author_name                  'Hruskova, J.;Synecek, V.'
_cell_length_a                     10.31
_cell_length_b                     8.07
_cell_length_c                     6.62
_cell_angle_alpha                  90.
_cell_angle_beta                   90.
_cell_angle_gamma                  90.
_cell_volume                       550.8
_cell_formula_units_Z              2
_symmetry_space_group_name_H-M     'P 1 21/n 1'
_symmetry_Int_Tables_number        14
loop_
_symmetry_equiv_pos_site_id
_symmetry_equiv_pos_as_xyz
  1	'-x+.5, y+.5, -z+.5'
  2	'-x, -y, -z'
  3	'x+.5, -y+.5, z+.5'
  4	'x, y, z'
loop_
_atom_type_symbol
_atom_type_oxidation_number
Ag1+	1
Mn2+	2
S2-	-2
Sb3+	3
loop_
_atom_site_label
_atom_site_type_symbol
_atom_site_symmetry_multiplicity
_atom_site_Wyckoff_symbol
_atom_site_fract_x
_atom_site_fract_y
_atom_site_fract_z
_atom_site_occupancy
_atom_site_attached_hydrogens
Mn1 Mn2+ 2 b 0 0 0.5 1. 0 
Sb1 Sb3+ 4 e 0.185 0.163 0.037 1. 0 
Ag1 Ag1+ 4 e 0.3 0.242 0.571 1. 0 
Ag2 Ag1+ 4 e 0.505 -.04 0.75 1. 0 
S1 S2- 4 e 0.083 0.25 0.352 1. 0 
S2 S2- 4 e 0.98 0.15 0.84 1. 0 
S3 S2- 4 e 0.767 0.067 0.392 1. 0 

#End of data_26141-ICSD


