data_20093-ICSD
#?2014 by Fachinformationszentrum Karlsruhe, and the U.S. Secretary of 
#Commerce on behalf of the United States.  All rights reserved.
_database_code_ICSD                20093
_audit_creation_date               1980/01/01
_audit_update_record               1999/01/19
_chemical_name_systematic          'Dizinc Silicate'
_chemical_formula_structural       'Zn2 (Si O4)'
_chemical_formula_sum              'O4 Si1 Zn2'
_chemical_name_mineral             Willemite
_publ_section_title
;
The crystal structure of willemite Zn2 (Si O4)
;
loop_
_citation_id
_citation_journal_abbrev
_citation_year
_citation_journal_volume
_citation_page_first
_citation_page_last
_citation_journal_id_ASTM
primary 'Doklady Akademii Nauk SSSR' 1977 237 581 588 DANKAS
_publ_author_name
;
Simonov, M.A.;Sandomirskii, P.A.;Egorov Tismenko, Yu.K.;Belov, N.V.
;
_cell_length_a                     13.971(3)
_cell_length_b                     13.971(3)
_cell_length_c                     9.334(1)
_cell_angle_alpha                  90.
_cell_angle_beta                   90.
_cell_angle_gamma                  120.
_cell_volume                       1577.81
_cell_formula_units_Z              18
_symmetry_space_group_name_H-M     'R -3 H'
_symmetry_Int_Tables_number        148
_refine_ls_R_factor_all            .082
loop_
_symmetry_equiv_pos_site_id
_symmetry_equiv_pos_as_xyz
  1	'x-y, x, -z'
  2	'y, -x+y, -z'
  3	'-x, -y, -z'
  4	'-x+y, -x, z'
  5	'-y, x-y, z'
  6	'x, y, z'
  7	'x-y+.6666, x+.3333, -z+.3333'
  8	'x-y+.3333, x+.6666, -z+.6666'
  9	'y+.6666, -x+y+.3333, -z+.3333'
 10	'y+.3333, -x+y+.6666, -z+.6666'
 11	'-x+.6666, -y+.3333, -z+.3333'
 12	'-x+.3333, -y+.6666, -z+.6666'
 13	'-x+y+.6666, -x+.3333, z+.3333'
 14	'-x+y+.3333, -x+.6666, z+.6666'
 15	'-y+.6666, x-y+.3333, z+.3333'
 16	'-y+.3333, x-y+.6666, z+.6666'
 17	'x+.6666, y+.3333, z+.3333'
 18	'x+.3333, y+.6666, z+.6666'
loop_
_atom_type_symbol
_atom_type_oxidation_number
O2-	-2
Si4+	4
Zn2+	2
loop_
_atom_site_label
_atom_site_type_symbol
_atom_site_symmetry_multiplicity
_atom_site_Wyckoff_symbol
_atom_site_fract_x
_atom_site_fract_y
_atom_site_fract_z
_atom_site_occupancy
_atom_site_attached_hydrogens
_atom_site_B_iso_or_equiv
Zn1 Zn2+ 18 f 0.1916(1) 0.2087(1) 0.5844(1) 1. 0 0.66(3) 
Zn2 Zn2+ 18 f 0.1921(1) 0.2155(1) 0.9185(1) 1. 0 0.72(3) 
Si1 Si4+ 18 f 0.1963(3) 0.2118(3) 0.2510(4) 1. 0 0.71(3) 
O1 O2- 18 f 0.1267(7) 0.2085(8) 0.1082(9) 1. 0 0.85(15) 
O2 O2- 18 f 0.1295(7) 0.2059(7) 0.3955(9) 1. 0 0.77(14) 
O3 O2- 18 f 0.1100(8) 0.2175(8) 0.7496(9) 1. 0 0.80(14) 
O4 O2- 18 f 0.3165(7) 0.3215(8) 0.2493(9) 1. 0 0.99(15) 

#End of data_20093-ICSD


