data_262970-ICSD
#?2014 by Fachinformationszentrum Karlsruhe, and the U.S. Secretary of 
#Commerce on behalf of the United States.  All rights reserved.
_database_code_ICSD                262970
_audit_creation_date               2013/02/01
_chemical_name_systematic          'Potassium Aluminium Dioxide'
_chemical_formula_structural       'K Al O2'
_chemical_formula_sum              'Al1 K1 O2'
_publ_section_title
;
The natural tiling approach to cation conductivity in K Al O2 
polymorphs
;
loop_
_citation_id
_citation_journal_abbrev
_citation_year
_citation_journal_volume
_citation_journal_issue
_citation_page_first
_citation_page_last
_citation_journal_id_ASTM
primary 'Acta Crystallographica, Section B: Structural Science'
 2012 68 4 356 363 ASBSDK
_publ_author_name
;
Voronin, V.I.;Shekhtman, G.Sh.;Blatov, V.A.
;
_cell_length_a                     5.4668(4)
_cell_length_b                     10.9862(9)
_cell_length_c                     15.5103(14)
_cell_angle_alpha                  90.00000
_cell_angle_beta                   90.00000
_cell_angle_gamma                  90.00000
_cell_volume                       931.54
_cell_formula_units_Z              16
_symmetry_space_group_name_H-M     'P b c a'
_symmetry_Int_Tables_number        61
_refine_ls_R_factor_all            .045
loop_
_symmetry_equiv_pos_site_id
_symmetry_equiv_pos_as_xyz
  1	'x+.5, y, -z+.5'
  2	'x, -y+.5, z+.5'
  3	'-x+.5, y+.5, z'
  4	'-x, -y, -z'
  5	'-x+.5, -y, z+.5'
  6	'-x, y+.5, -z+.5'
  7	'x+.5, -y+.5, -z'
  8	'x, y, z'
loop_
_atom_type_symbol
_atom_type_oxidation_number
Al3+	3
K1+	1
O2-	-2
loop_
_atom_site_label
_atom_site_type_symbol
_atom_site_symmetry_multiplicity
_atom_site_Wyckoff_symbol
_atom_site_fract_x
_atom_site_fract_y
_atom_site_fract_z
_atom_site_occupancy
_atom_site_attached_hydrogens
_atom_site_U_iso_or_equiv
Al1 Al3+ 8 c 0.256(2) 0.0108(11) 0.1870(11) 1.00000 0 0.0127(12) 
Al2 Al3+ 8 c 0.2795(17) 0.2589(11) 0.0656(11) 1.00000 0 0.0127(12) 
K1 K1+ 8 c 0.749(3) 0.0050(12) 0.0635(15) 1.00000 0 0.037(13) 
K2 K1+ 8 c 0.782(2) 0.2574(11) 0.1888(13) 1.00000 0 0.033(10) 
O1 O2- 8 c 0.5636(16) 0.2803(9) 0.0158(5) 1.00000 0 0.032(5) 
O2 O2- 8 c 0.1885(16) 0.3986(7) 0.1076(5) 1.00000 0 0.020(4) 
O3 O2- 8 c 0.2938(15) 0.1508(9) 0.1450(6) 1.00000 0 0.037(5) 
O4 O2- 8 c 0.0510(17) 0.4873(8) 0.2767(7) 1.00000 0 0.031(6) 

loop_
_atom_site_aniso_label
_atom_site_aniso_type_symbol
_atom_site_aniso_U_11
_atom_site_aniso_U_22
_atom_site_aniso_U_33
_atom_site_aniso_U_12
_atom_site_aniso_U_13
_atom_site_aniso_U_23
K1 K1+ 0.037(12) 0.017(10) 0.057(17) 0.00000 0.023(12) 0.00000
K2 K1+ 0.021(8) 0.034(10) 0.043(14) 0.00000 -0.001(6) 0.00000
O1 O2- 0.022(4) 0.051(6) 0.022(5) 0.00000 0.003(4) 0.00000
O2 O2- 0.027(5) 0.003(4) 0.029(5) 0.00000 -0.004(3) 0.00000
O3 O2- 0.0132(15) 0.053(6) 0.044(7) 0.00000 -0.006(4) 0.00000
O4 O2- 0.006(4) 0.062(9) 0.024(5) 0.00000 -0.004(4) 0.00000
#End of data_262970-ICSD


