data_249329-ICSD
#?2014 by Fachinformationszentrum Karlsruhe, and the U.S. Secretary of 
#Commerce on behalf of the United States.  All rights reserved.
_database_code_ICSD                249329
_audit_creation_date               2008/02/01
_chemical_name_systematic
;
Tricalcium Monogermanate Dichloride
;
_chemical_formula_structural       'Ca3 Ge O4 Cl2'
_chemical_formula_sum              'Ca3 Cl2 Ge1 O4'
_chemical_name_mineral             Norbergite
_publ_section_title
;
Ca3 Ge O4 Cl2 with a norbergite-like structure
;
loop_
_citation_id
_citation_journal_abbrev
_citation_year
_citation_journal_volume
_citation_journal_issue
_citation_page_first
_citation_page_last
_citation_journal_id_ASTM
primary 'Acta Crystallographica, Section C: Crystal Structure Communications'
 2007 63 7 i69 i72 ACSCEE
_publ_author_name
;
Redhammer, G.J.;Roth, G.;Amthauer, G.
;
_cell_length_a                     11.7045(8)
_cell_length_b                     10.3432(7)
_cell_length_c                     5.7082(4)
_cell_angle_alpha                  90
_cell_angle_beta                   90
_cell_angle_gamma                  90
_cell_volume                       691.05
_cell_formula_units_Z              4
_symmetry_space_group_name_H-M     'P n m a'
_symmetry_Int_Tables_number        62
_refine_ls_R_factor_all            .025
loop_
_symmetry_equiv_pos_site_id
_symmetry_equiv_pos_as_xyz
  1	'x+.5, y, -z+.5'
  2	'x, -y+.5, z'
  3	'-x+.5, y+.5, z+.5'
  4	'-x, -y, -z'
  5	'-x+.5, -y, z+.5'
  6	'-x, y+.5, -z'
  7	'x+.5, -y+.5, -z+.5'
  8	'x, y, z'
loop_
_atom_type_symbol
_atom_type_oxidation_number
Ca2+	2
Cl1-	-1
Ge4+	4
O2-	-2
loop_
_atom_site_label
_atom_site_type_symbol
_atom_site_symmetry_multiplicity
_atom_site_Wyckoff_symbol
_atom_site_fract_x
_atom_site_fract_y
_atom_site_fract_z
_atom_site_occupancy
_atom_site_attached_hydrogens
_atom_site_U_iso_or_equiv
Ge1 Ge4+ 4 c 0.27873(3) 0.25 0.17883(6) 1 0 0.00980(15) 
Ca1 Ca2+ 8 d 0.33637(4) 0.08012(4) 0.61786(8) 1 0 0.01406(16) 
Ca2 Ca2+ 4 c 0.03976(6) 0.25 0.39747(12) 1 0 0.01485(18) 
Cl1 Cl1- 8 d 0.07046(6) 0.06716(7) 0.75132(13) 1 0 0.0294(2) 
O1 O2- 8 d 0.19748(15) 0.11792(16) 0.2774(3) 1 0 0.0143(3) 
O2 O2- 4 c 0.3352(2) 0.25 -0.1034(4) 1 0 0.0147(5) 
O3 O2- 4 c 0.3966(2) 0.25 0.3725(4) 1 0 0.0129(5) 

loop_
_atom_site_aniso_label
_atom_site_aniso_type_symbol
_atom_site_aniso_U_11
_atom_site_aniso_U_22
_atom_site_aniso_U_33
_atom_site_aniso_U_12
_atom_site_aniso_U_13
_atom_site_aniso_U_23
Ge1 Ge4+ 0.0098(2) 0.0103(2) 0.0094(2) 0 0.00101(12) 0
Ca1 Ca2+ 0.0189(3) 0.0108(2) 0.0124(3) -0.00092(17) 0.00031(18) 0.00070(16)
Ca2 Ca2+ 0.0103(3) 0.0200(4) 0.0142(3) 0 -0.0004(2) 0
Cl1 Cl1- 0.0243(4) 0.0374(4) 0.0264(4) 0.0121(3) 0.0068(3) 0.0170(3)
O1 O2- 0.0140(8) 0.0122(8) 0.0166(8) -0.0031(6) 0.0036(7) -0.0003(7)
O2 O2- 0.0179(12) 0.0150(11) 0.0112(11) 0 0.0037(9) 0
O3 O2- 0.0120(11) 0.0154(12) 0.0113(11) 0 -0.0021(9) 0
#End of data_249329-ICSD


