data_153449-ICSD
#?2014 by Fachinformationszentrum Karlsruhe, and the U.S. Secretary of 
#Commerce on behalf of the United States.  All rights reserved.
_database_code_ICSD                153449
_audit_creation_date               2006/10/01
_chemical_name_systematic          'Potassium Sodium Divanadate'
_chemical_formula_structural       'K Na (V2 O6)'
_chemical_formula_sum              'K1 Na1 O6 V2'
_publ_section_title
;
Inorganic crystal structure data to be presented in a form more 
useful for further studies
;
loop_
_citation_id
_citation_journal_abbrev
_citation_year
_citation_journal_volume
_citation_journal_issue
_citation_page_first
_citation_page_last
_citation_journal_id_ASTM
primary 'Jiegon Huaxue' 2004 23 10 1150 1160 JHUADF
2 'Jiegon Huaxue' 1996 15- 458 461 JHUADF
_publ_author_name                  'Hu Sheng Zhi;Parthe, E.'
_cell_length_a                     10.568
_cell_length_b                     10.082
_cell_length_c                     5.810
_cell_angle_alpha                  90.
_cell_angle_beta                   103.9
_cell_angle_gamma                  90.
_cell_volume                       600.91
_cell_formula_units_Z              4
_symmetry_space_group_name_H-M     'C 1 2/c 1'
_symmetry_Int_Tables_number        15
loop_
_symmetry_equiv_pos_site_id
_symmetry_equiv_pos_as_xyz
  1	'x, -y, z+.5'
  2	'-x, -y, -z'
  3	'-x, y, -z+.5'
  4	'x, y, z'
  5	'x+.5, -y+.5, z+.5'
  6	'-x+.5, -y+.5, -z'
  7	'-x+.5, y+.5, -z+.5'
  8	'x+.5, y+.5, z'
loop_
_atom_type_symbol
_atom_type_oxidation_number
K1+	1
Na1+	1
O2-	-2
V5+	5
loop_
_atom_site_label
_atom_site_type_symbol
_atom_site_symmetry_multiplicity
_atom_site_Wyckoff_symbol
_atom_site_fract_x
_atom_site_fract_y
_atom_site_fract_z
_atom_site_occupancy
_atom_site_attached_hydrogens
K1 K1+ 4 e 0 0.1920 0.250 1. 0 
Na1 Na1+ 4 e 0 0.5955 0.250 1. 0 
V1 V5+ 8 f 0.2852 0.4147 0.2206 1. 0 
O1 O2- 8 f 0.1250 0.4128 0.1525 1. 0 
O2 O2- 8 f 0.1542 0.0148 0.0174 1. 0 
O3 O2- 8 f 0.3427 0.2644 0.2814 1. 0 

#End of data_153449-ICSD


