data_162458-ICSD
#?2014 by Fachinformationszentrum Karlsruhe, and the U.S. Secretary of 
#Commerce on behalf of the United States.  All rights reserved.
_database_code_ICSD                162458
_audit_creation_date               2009/08/01
_audit_update_record               2011/02/01
_chemical_name_systematic
;
Tripotassium Pentabismuth Hexakis(arsenate(V))
;
_chemical_formula_structural       'K3 Bi5 (As O4)6'
_chemical_formula_sum              'As6 Bi5 K3 O24'
_publ_section_title
;
Synthesis, structural characterization and cation transport of 
tripotassium pentabismuth arsenate K3 Bi5 (As O4)6
;
loop_
_citation_id
_citation_journal_abbrev
_citation_year
_citation_journal_volume
_citation_page_first
_citation_page_last
_citation_journal_id_ASTM
primary 'Phosphorus, Sulfur, Silicon and Related Elements'
 2007 182 2457 2466 PSSLEC
_publ_author_name
;
Falah, C.;Boughzala, H.;Driss, A.;Jouini, A.;Jouini, T.
;
_cell_length_a                     18.257(2)
_cell_length_b                     7.260(1)
_cell_length_c                     20.130(4)
_cell_angle_alpha                  90.
_cell_angle_beta                   119.86(1)
_cell_angle_gamma                  90.
_cell_volume                       2313.94
_cell_formula_units_Z              4
_symmetry_space_group_name_H-M     'C 1 2/c 1'
_symmetry_Int_Tables_number        15
_refine_ls_R_factor_all            .0521
loop_
_symmetry_equiv_pos_site_id
_symmetry_equiv_pos_as_xyz
  1	'x, -y, z+.5'
  2	'-x, -y, -z'
  3	'-x, y, -z+.5'
  4	'x, y, z'
  5	'x+.5, -y+.5, z+.5'
  6	'-x+.5, -y+.5, -z'
  7	'-x+.5, y+.5, -z+.5'
  8	'x+.5, y+.5, z'
loop_
_atom_type_symbol
_atom_type_oxidation_number
As5+	5
Bi3+	3
K1+	1
O2-	-2
loop_
_atom_site_label
_atom_site_type_symbol
_atom_site_symmetry_multiplicity
_atom_site_Wyckoff_symbol
_atom_site_fract_x
_atom_site_fract_y
_atom_site_fract_z
_atom_site_occupancy
_atom_site_attached_hydrogens
_atom_site_U_iso_or_equiv
Bi1 Bi3+ 8 f 0.41108(4) 0.15167(8) 0.52570(4) 1. 0 0.0063(2) 
Bi2 Bi3+ 4 e 0 0.0887(1) 0.250 1. 0 0.0051(3) 
Bi3 Bi3+ 8 f 0.17075(4) 0.14693(8) 0.70096(4) 1. 0 0.0051(2) 
As1 As5+ 8 f 0.2039(1) 0.1551(2) 0.3839(1) 1. 0 0.0029(4) 
As2 As5+ 8 f 0.6179(1) 0.1275(2) 0.6534(1) 1. 0 0.0041(4) 
As3 As5+ 8 f -0.0340(1) 0.1702(2) 0.5864(1) 1. 0 0.0035(4) 
K1 K1+ 8 f 0.2576(3) -0.1452(6) 0.5830(3) 1. 0 0.017(1) 
K2 K1+ 4 e 0.5 0.0512(8) 0.250 1. 0 0.024(2) 
O1 O2- 8 f 0.1291(8) 0.298(2) 0.3794(7) 1. 0 0.009(3) 
O2 O2- 8 f 0.2697(8) 0.051(2) 0.4666(8) 1. 0 0.012(3) 
O3 O2- 8 f 0.2707(9) 0.290(2) 0.3677(9) 1. 0 0.020(3) 
O4 O2- 8 f 0.1482(8) -0.006(2) 0.3143(7) 1. 0 0.012(3) 
O5 O2- 8 f 0.5785(9) 0.078(2) 0.5601(8) 1. 0 0.018(3) 
O6 O2- 8 f 0.6486(8) -0.059(2) 0.7139(7) 1. 0 0.012(3) 
O7 O2- 8 f 0.7037(9) 0.269(2) 0.6886(9) 1. 0 0.015(3) 
O8 O2- 8 f 0.5360(8) 0.225(2) 0.6579(9) 1. 0 0.016(3) 
O9 O2- 8 f 0.0542(8) 0.173(2) 0.5771(8) 1. 0 0.012(3) 
O10 O2- 8 f -0.1065(9) 0.013(2) 0.5335(8) 1. 0 0.014(3) 
O11 O2- 8 f -0.0783(9) 0.382(2) 0.5821(8) 1. 0 0.013(3) 
O12 O2- 8 f 0.0141(9) 0.134(2) 0.6847(8) 1. 0 0.011(3) 

#End of data_162458-ICSD


