data_10501-ICSD
#?2014 by Fachinformationszentrum Karlsruhe, and the U.S. Secretary of 
#Commerce on behalf of the United States.  All rights reserved.
_database_code_ICSD                10501
_audit_creation_date               1980/01/01
_audit_update_record               2002/04/01
_chemical_name_systematic          'Tetrasodium Trioxocobaltate(II)'
_chemical_formula_structural       'Na4 (Co O3)'
_chemical_formula_sum              'Co1 Na4 O3'
_publ_section_title
;
The preparation and crystal structure of the ternary oxides Na4 Co O3 
and Na10 Co4 O9
;
loop_
_citation_id
_citation_journal_abbrev
_citation_year
_citation_journal_volume
_citation_page_first
_citation_page_last
_citation_journal_id_ASTM
primary 'Journal of Chemical Research (Synopsis)' 1979 1979 371 371 JRPSDC
_publ_author_name                  'Barker, M.G.;Fairhall, G.A.'
_cell_length_a                     10.993
_cell_length_b                     5.749
_cell_length_c                     8.13
_cell_angle_alpha                  90.
_cell_angle_beta                   113.96
_cell_angle_gamma                  90.
_cell_volume                       469.53
_cell_formula_units_Z              4
_symmetry_space_group_name_H-M     'C 1 c 1'
_symmetry_Int_Tables_number        9
_refine_ls_R_factor_all            .0797
loop_
_symmetry_equiv_pos_site_id
_symmetry_equiv_pos_as_xyz
  1	'x, -y, z+.5'
  2	'x, y, z'
  3	'x+.5, -y+.5, z+.5'
  4	'x+.5, y+.5, z'
loop_
_atom_type_symbol
_atom_type_oxidation_number
Co2+	2
Na1+	1
O2-	-2
loop_
_atom_site_label
_atom_site_type_symbol
_atom_site_symmetry_multiplicity
_atom_site_Wyckoff_symbol
_atom_site_fract_x
_atom_site_fract_y
_atom_site_fract_z
_atom_site_occupancy
_atom_site_attached_hydrogens
_atom_site_U_iso_or_equiv
Na1 Na1+ 4 a 0.783(3) 0.154(4) 0.658(4) 1. 0 0.023(6) 
Na2 Na1+ 4 a 0.347(4) 0.788(4) 0.400(6) 1. 0 0.037(7) 
Na3 Na1+ 4 a 0.147(4) 0.157(3) 0.491(5) 1. 0 0.026(5) 
Na4 Na1+ 4 a 0.923(3) 0.821(4) 0.571(4) 1. 0 0.018(6) 
Co1 Co2+ 4 a 0.5117 0.151(1) 0.2918 1. 0 0.022(2) 
O1 O2- 4 a 0.332(9) 0.003(6) 0.13(1) 1. 0 0.04(1) 
O2 O2- 4 a 0.663(5) 0.016(5) 0.359(8) 1. 0 0.016(9) 
O3 O2- 4 a 0.468(6) 0.447(6) 0.346(9) 1. 0 0.026(9) 

#End of data_10501-ICSD


