data_182332-ICSD
#?2014 by Fachinformationszentrum Karlsruhe, and the U.S. Secretary of 
#Commerce on behalf of the United States.  All rights reserved.
_database_code_ICSD                182332
_audit_creation_date               2012/02/01
_chemical_name_systematic
;
Tetrapotassium Divanadium Trioxide Tetrasulfate
;
_chemical_formula_structural       'K4 V2 O3 (S O4)4'
_chemical_formula_sum              'K4 O19 S4 V2'
_publ_section_title
;
Synthesis, crystal structure and vibrational spectra of M4 V2 O3 (S 
O4)4 (M = K, Rb, Cs)
;
loop_
_citation_id
_citation_journal_abbrev
_citation_year
_citation_journal_volume
_citation_journal_issue
_citation_page_first
_citation_page_last
_citation_journal_id_ASTM
primary 'Zhurnal Neorganicheskoi Khimii' 2011 56 4 531 540 ZNOKAQ
_publ_author_name
;
Krasil'nikov, V.N.;Tyutyunnik, A.P.;Zubkov, V.G.;Berger, 
I.F.;Perelyaeva, L.Ya.;Baklanova, I.V.
;
_cell_length_a                     7.7688(2)
_cell_length_b                     10.4918(3)
_cell_length_c                     11.9783(4)
_cell_angle_alpha                  75.600(2)
_cell_angle_beta                   75.133(2)
_cell_angle_gamma                  71.285(2)
_cell_volume                       878.87
_cell_formula_units_Z              2
_symmetry_space_group_name_H-M     'P -1'
_symmetry_Int_Tables_number        2
_refine_ls_R_factor_all            .0149
loop_
_symmetry_equiv_pos_site_id
_symmetry_equiv_pos_as_xyz
  1	'-x, -y, -z'
  2	'x, y, z'
loop_
_atom_type_symbol
_atom_type_oxidation_number
K1+	1
O2-	-2
S6+	6
V5+	5
loop_
_atom_site_label
_atom_site_type_symbol
_atom_site_symmetry_multiplicity
_atom_site_Wyckoff_symbol
_atom_site_fract_x
_atom_site_fract_y
_atom_site_fract_z
_atom_site_occupancy
_atom_site_attached_hydrogens
_atom_site_U_iso_or_equiv
K1 K1+ 2 i 0.799(1) 0.348(1) 0.9446(9) 1. 0 0.029(4) 
K2 K1+ 2 i 0.410(1) 0.032(1) 0.8405(8) 1. 0 0.019(4) 
K3 K1+ 2 i 0.068(1) 0.164(1) 0.5496(9) 1. 0 0.031(4) 
K4 K1+ 2 i 0.688(1) 0.546(1) 0.3569(9) 1. 0 0.031(4) 
V1 V5+ 2 i 0.451(1) 0.2860(9) 0.2994(7) 1. 0 0.019(4) 
V2 V5+ 2 i 0.112(1) 0.2236(9) 0.1887(8) 1. 0 0.023(3) 
S1 S6+ 2 i 0.077(2) -0.009(1) 0.153(1) 1. 0 0.020(5) 
S2 S6+ 2 i 0.199(2) 0.527(1) 0.358(1) 1. 0 0.031(5) 
S3 S6+ 2 i 0.575(2) 0.179(1) 0.496(1) 1. 0 0.029(5) 
S4 S6+ 2 i 0.701(2) 0.679(2) 0.028(1) 1. 0 0.035(5) 
O1 O2- 2 i 0.624(2) 0.821(2) -0.027(2) 1. 0 0.025(1) 
O2 O2- 2 i 0.365(2) 0.476(2) 0.261(1) 1. 0 0.025(1) 
O3 O2- 2 i 0.488(2) 0.125(2) 0.419(1) 1. 0 0.025(1) 
O4 O2- 2 i 0.762(2) 0.677(1) 0.136(1) 1. 0 0.025(1) 
O5 O2- 2 i 0.014(2) 0.140(2) 0.093(1) 1. 0 0.025(1) 
O6 O2- 2 i 0.172(2) 0.397(2) 0.433(1) 1. 0 0.025(1) 
O7 O2- 2 i 0.246(2) 0.612(2) 0.418(1) 1. 0 0.025(1) 
O8 O2- 2 i 0.565(2) 0.308(2) 0.424(2) 1. 0 0.025(1) 
O9 O2- 2 i 0.882(2) 0.625(2) -0.060(1) 1. 0 0.025(1) 
O10 O2- 2 i 0.936(2) 0.292(2) 0.275(1) 1. 0 0.025(1) 
O11 O2- 2 i 0.181(2) 0.018(2) 0.241(1) 1. 0 0.025(1) 
O12 O2- 2 i 0.220(2) -0.084(2) 0.063(1) 1. 0 0.025(1) 
O13 O2- 2 i 0.037(2) 0.607(2) 0.303(1) 1. 0 0.025(1) 
O14 O2- 2 i 0.775(2) 0.096(2) 0.496(1) 1. 0 0.025(1) 
O15 O2- 2 i 0.584(2) 0.590(2) 0.039(1) 1. 0 0.025(1) 
O16 O2- 2 i 0.284(2) 0.227(2) 0.260(2) 1. 0 0.025(1) 
O17 O2- 2 i -0.087(2) -0.053(2) 0.213(1) 1. 0 0.025(1) 
O18 O2- 2 i 0.471(2) 0.180(2) 0.612(1) 1. 0 0.025(1) 
O19 O2- 2 i 0.626(2) 0.257(2) 0.200(1) 1. 0 0.025(1) 

#End of data_182332-ICSD


