data_413718-ICSD
#?2014 by Fachinformationszentrum Karlsruhe, and the U.S. Secretary of 
#Commerce on behalf of the United States.  All rights reserved.
_database_code_ICSD                413718
_audit_creation_date               2006/10/01
_audit_update_record               2007/08/01
_chemical_name_systematic
;
Tetrarubidium Lithium Trihydrogen Tetrakis(sulfate(VI))
;
_chemical_formula_structural       'Rb4 Li H3 (S O4)4'
_chemical_formula_sum              'H3 Li1 O16 Rb4 S4'
_publ_section_title
;
X-ray and neutron diffraction studies of Rb4 Li H3 (X O4)4 (X = S, 
Se) single crystals
;
loop_
_citation_id
_citation_journal_abbrev
_citation_year
_citation_journal_volume
_citation_page_first
_citation_page_last
_citation_journal_id_ASTM
primary Kristallografiya 2004 49 1066 1072 KRISAJ
2 'Crystallography Reports' 2004 49 969 974 CYSTE3
3 'Golden Book of Phase Transitions, Wroclaw' 2002 1 1 123 GBOPT5
_publ_author_name
;
Troyanov, S.I.;Snigireva, E.M.;Ling, C.-D.
;
_cell_length_a                     7.6316(3)
_cell_length_b                     7.6316(3)
_cell_length_c                     29.500(2)
_cell_angle_alpha                  90.00
_cell_angle_beta                   90.00
_cell_angle_gamma                  90.00
_cell_volume                       1718.12
_cell_formula_units_Z              4
_symmetry_space_group_name_H-M     'P 41'
_symmetry_Int_Tables_number        76
_refine_ls_R_factor_all            .053
loop_
_symmetry_equiv_pos_site_id
_symmetry_equiv_pos_as_xyz
  1	'y, -x, z+.75'
  2	'-y, x, z+.25'
  3	'-x, -y, z+.5'
  4	'x, y, z'
loop_
_atom_type_symbol
_atom_type_oxidation_number
H1+	1
Li1+	1
O2-	-2
Rb1+	1
S6+	6
loop_
_atom_site_label
_atom_site_type_symbol
_atom_site_symmetry_multiplicity
_atom_site_Wyckoff_symbol
_atom_site_fract_x
_atom_site_fract_y
_atom_site_fract_z
_atom_site_occupancy
_atom_site_attached_hydrogens
_atom_site_U_iso_or_equiv
Rb1 Rb1+ 4 a 0.1351(3) 0.1163(3) 0.53908(9) 1 0 0.0328(6) 
Rb2 Rb1+ 4 a 0.4353(3) 0.6148(4) 0.55172(9) 1 0 0.0329(6) 
Rb3 Rb1+ 4 a 0.5250(3) 0.0294(4) 0.66715(9) 1 0 0.0350(7) 
Rb4 Rb1+ 4 a 0.0189(4) 0.7271(3) 0.65751(9) 1 0 0.0338(6) 
S1 S6+ 4 a 0.0376(7) 0.1976(7) 0.6671(2) 1 0 0.0228(11) 
S2 S6+ 4 a 0.5054(7) 0.5358(7) 0.67085(16) 1 0 0.0205(11) 
S3 S6+ 4 a 0.9090(7) 0.6222(7) 0.7902(2) 1 0 0.0225(11) 
S4 S6+ 4 a 1.3745(7) 0.9610(7) 0.7881(2) 1 0 0.0247(12) 
O1 O2- 4 a -0.1083(4) 0.0986(4) 0.68491(13) 1 0 0.0376(8) 
O2 O2- 4 a 0.1645(4) 0.0896(4) 0.64397(12) 1 0 0.0384(8) 
O3 O2- 4 a -0.0115(4) 0.3473(4) 0.63962(14) 1 0 0.0419(9) 
O4 O2- 4 a 0.1265(4) 0.2730(5) 0.71073(11) 1 0 0.0420(10) 
O5 O2- 4 a 0.3941(4) 0.6687(4) 0.64996(11) 1 0 0.0400(8) 
O6 O2- 4 a 0.5692(4) 0.4144(4) 0.63648(12) 1 0 0.0370(8) 
O7 O2- 4 a 0.4139(5) 0.4385(5) 0.70629(9) 1 0 0.0468(10) 
O8 O2- 4 a 0.6571(4) 0.6291(5) 0.69273(11) 1 0 0.0385(9) 
O9 O2- 4 a 1.0097(5) 0.4933(5) 0.81427(15) 1 0 0.0458(9) 
O10 O2- 4 a 0.8417(5) 0.7533(4) 0.82092(15) 1 0 0.0468(10) 
O11 O2- 4 a 0.7568(4) 0.5253(5) 0.76831(11) 1 0 0.0391(9) 
O12 O2- 4 a 1.0080(5) 0.7065(6) 0.75373(9) 1 0 0.0549(12) 
O13 O2- 4 a 1.5225(4) 1.0579(4) 0.77109(11) 1 0 0.0356(8) 
O14 O2- 4 a 1.2456(4) 1.0734(4) 0.80932(10) 1 0 0.0347(7) 
O15 O2- 4 a 1.4223(4) 0.8171(4) 0.81826(13) 1 0 0.0395(8) 
O16 O2- 4 a 1.2914(4) 0.8771(4) 0.74586(11) 1 0 0.0372(9) 
H1 H1+ 4 a 0.2361(7) 0.3411(7) 0.7053(2) 1 0 0.0438(14) 
H2 H1+ 4 a 0.7099(9) 0.5760(10) 0.7322(3) 1 0 0.0568(16) 
H3 H1+ 4 a 1.1855(9) 0.8092(7) 0.7532(2) 1 0 0.0458(13) 
Li1 Li1+ 4 a 0.7809(9) 0.3697(10) 0.6041(4) 1 0 0.0300(16) 

loop_
_atom_site_aniso_label
_atom_site_aniso_type_symbol
_atom_site_aniso_U_11
_atom_site_aniso_U_22
_atom_site_aniso_U_33
_atom_site_aniso_U_12
_atom_site_aniso_U_13
_atom_site_aniso_U_23
Rb1 Rb1+ 0.0401(12) 0.0295(12) 0.0288(12) 0.0017(9) 0.0002(15) 0.0019(14)
Rb2 Rb1+ 0.0366(12) 0.0410(13) 0.0210(10) 0.0032(10) -0.0035(13) 
-0.0102(15)
Rb3 Rb1+ 0.0307(13) 0.0442(13) 0.0302(13) -0.0026(10) -0.0028(15) 
0.0048(16)
Rb4 Rb1+ 0.0443(14) 0.0356(12) 0.0216(11) -0.0057(11) 0.0019(14) 0.0002(14)
S1 S6+ 0.024(2) 0.027(2) 0.018(2) -0.001(2) -0.006(3) -0.001(3)
S2 S6+ 0.021(2) 0.032(3) 0.008(2) -0.007(2) 0.003(3) -0.007(3)
S3 S6+ 0.022(2) 0.027(2) 0.019(2) -0.003(2) 0.005(3) -0.007(3)
S4 S6+ 0.026(2) 0.025(2) 0.023(3) 0.006(2) -0.001(3) 0.001(3)
O1 O2- 0.0270(14) 0.0469(16) 0.0388(17) -0.0127(12) 0.0012(18) -0.001(2)
O2 O2- 0.0377(16) 0.0387(15) 0.0388(18) 0.0021(13) 0.0060(19) 0.000(2)
O3 O2- 0.0418(16) 0.0299(13) 0.054(2) -0.0007(11) -0.021(2) 0.008(2)
O4 O2- 0.0442(18) 0.065(2) 0.0168(13) -0.0222(19) 0.0009(18) 0.000(2)
O5 O2- 0.0433(17) 0.0457(17) 0.0310(17) 0.0138(14) -0.0082(19) -0.0036(19)
O6 O2- 0.0384(15) 0.0375(15) 0.0352(15) 0.0041(13) 0.003(2) -0.0036(19)
O7 O2- 0.0475(18) 0.077(2) 0.0159(12) -0.0327(19) 0.0012(18) 0.000(2)
O8 O2- 0.0367(17) 0.0504(19) 0.0284(15) -0.0188(15) -0.0079(18) 0.0107(19)
O9 O2- 0.0480(17) 0.0430(16) 0.046(2) 0.0060(13) -0.023(2) 0.007(2)
O10 O2- 0.0413(16) 0.0388(16) 0.060(2) -0.0016(12) 0.020(2) -0.013(2)
O11 O2- 0.0370(16) 0.052(2) 0.0288(15) -0.0147(15) -0.0061(18) 0.0087(18)
O12 O2- 0.052(2) 0.095(3) 0.0169(14) -0.041(2) 0.0017(17) 0.000(2)
O13 O2- 0.0317(14) 0.0431(15) 0.0320(16) -0.0116(11) 0.0032(19) 0.003(2)
O14 O2- 0.0384(15) 0.0403(15) 0.0254(13) 0.0048(12) 0.0009(16) -0.0032(18)
O15 O2- 0.0445(16) 0.0307(13) 0.0434(17) -0.0004(12) -0.006(2) 0.005(2)
O16 O2- 0.0394(16) 0.055(2) 0.0176(14) -0.0146(17) -0.0079(17) -0.0098(19)
H1 H1+ 0.042(3) 0.053(3) 0.036(3) -0.010(2) -0.012(4) -0.007(4)
H2 H1+ 0.047(3) 0.062(4) 0.061(3) -0.013(3) 0.005(3) -0.002(4)
H3 H1+ 0.060(3) 0.049(3) 0.028(3) -0.009(3) -0.012(4) 0.002(3)
Li1 Li1+ 0.019(4) 0.033(4) 0.038(4) -0.006(3) -0.009(5) 0.001(5)
#End of data_413718-ICSD


