data_201706-ICSD
#?2014 by Fachinformationszentrum Karlsruhe, and the U.S. Secretary of 
#Commerce on behalf of the United States.  All rights reserved.
_database_code_ICSD                201706
_audit_creation_date               1986/04/14
_audit_update_record               2007/08/01
_chemical_name_systematic          'Tetraaluminium Octasilicon Oxide'
_chemical_formula_structural       'Al4 Si8 O22'
_chemical_formula_sum              'Al4 O22 Si8'
_chemical_name_mineral             'Pyrophyllite 1A, dehydroxylated'
_publ_section_title
;
Thermal reactions of pyrophyllite studied by high-resolution solid-
state 27Al and 29Si nuclear magnetic resonance spectroscopy
;
loop_
_citation_id
_citation_journal_abbrev
_citation_year
_citation_journal_volume
_citation_page_first
_citation_page_last
_citation_journal_id_ASTM
primary 'Journal of the American Ceramic Society' 1985 68 266 272 JACTAW
2 'American Mineralogist' 1972 57 732 750 AMMIAY
_publ_author_name
;
MacKenzie, K.J.D.;Brown, I.W.M.;Meinhold, R.H.;Bowden, M.E.
;
_cell_length_a                     5.2
_cell_length_b                     9.15
_cell_length_c                     9.45
_cell_angle_alpha                  92.
_cell_angle_beta                   98.83
_cell_angle_gamma                  89.03
_cell_volume                       444
_cell_formula_units_Z              1
_symmetry_space_group_name_H-M     'C -1'
_symmetry_Int_Tables_number        2
loop_
_symmetry_equiv_pos_site_id
_symmetry_equiv_pos_as_xyz
  1	'-x, -y, -z'
  2	'x, y, z'
  3	'-x+.5, -y+.5, -z'
  4	'x+.5, y+.5, z'
loop_
_atom_type_symbol
_atom_type_oxidation_number
Al3+	3
O2-	-2
Si4+	4
loop_
_atom_site_label
_atom_site_type_symbol
_atom_site_symmetry_multiplicity
_atom_site_Wyckoff_symbol
_atom_site_fract_x
_atom_site_fract_y
_atom_site_fract_z
_atom_site_occupancy
_atom_site_attached_hydrogens
Al1 Al3+ 4 i 0.552 0.149 0 1. 0 
Si1 Si4+ 4 i 0.725 -.014 0.286 1. 0 
Si2 Si4+ 4 i 0.749 0.312 0.286 1. 0 
O1 O2- 4 i 0.623 -.008 0.115 1. 0 
O2 O2- 4 i 0.728 0.292 0.115 1. 0 
O3 O2- 4 i 0.537 -.122 0.345 1. 0 
O4 O2- 4 i 0.717 0.152 0.345 1. 0 
O5 O2- 4 i 0.022 -.075 0.29 1. 0 
O6 O2- 2 c 0.25 0.25 0 1. 0 

#End of data_201706-ICSD


