data_425082-ICSD
#?2014 by Fachinformationszentrum Karlsruhe, and the U.S. Secretary of 
#Commerce on behalf of the United States.  All rights reserved.
_database_code_ICSD                425082
_audit_creation_date               2013/08/01
_chemical_name_systematic          'Silver Cerium Tetraphosphate'
_chemical_formula_structural       'Ag Ce (P O3)4'
_chemical_formula_sum              'Ag1 Ce1 O12 P4'
_publ_section_title
;
Ag Ce (P O3)4: Synthesis, crystalline structure and ionic 
conductivity
;
loop_
_citation_id
_citation_journal_abbrev
_citation_year
_citation_journal_volume
_citation_journal_issue
_citation_page_first
_citation_page_last
_citation_journal_id_ASTM
primary 'Journal of Physics and Chemistry of Solids' 2013 74 2 348 353 JPCSAW
_publ_author_name                  'Ayed, Brahim;Haddad, Amor'
_cell_length_a                     7.3140(1)
_cell_length_b                     13.2390(1)
_cell_length_c                     12.4010(1)
_cell_angle_alpha                  90.00
_cell_angle_beta                   125.69(2)
_cell_angle_gamma                  90.00
_cell_volume                       975.26
_cell_formula_units_Z              4
_symmetry_space_group_name_H-M     'P 1 21/c 1'
_symmetry_Int_Tables_number        14
_refine_ls_R_factor_all            .0371
loop_
_symmetry_equiv_pos_site_id
_symmetry_equiv_pos_as_xyz
  1	'x, -y+.5, z+.5'
  2	'-x, -y, -z'
  3	'-x, y+.5, -z+.5'
  4	'x, y, z'
loop_
_atom_type_symbol
_atom_type_oxidation_number
Ag1+	1
Ce3+	3
O2-	-2
P5+	5
loop_
_atom_site_label
_atom_site_type_symbol
_atom_site_symmetry_multiplicity
_atom_site_Wyckoff_symbol
_atom_site_fract_x
_atom_site_fract_y
_atom_site_fract_z
_atom_site_occupancy
_atom_site_attached_hydrogens
_atom_site_U_iso_or_equiv
P1 P5+ 4 e 0.4945(9) 0.0981(8) 0.2466(15) 1 0 0.0049(6) 
P2 P5+ 4 e 0.16075(4) 0.3731(11) 0.8061 1 0 0.0054(6) 
P3 P5+ 4 e 0.9300(4) 0.4116(17) 0.1969(2) 1 0 0.0060(16) 
P4 P5+ 4 e 0.3831(4) 0.1137(18) 0.7628(2) 1 0 0.0072(4) 
Ce1 Ce3+ 4 e 0.9632(8) 0.2159(4) 0.9761 1 0 0.0077(11) 
Ag1 Ag1+ 4 e 0.5664(3) 0.2230(3) 0.0674(5) 1 0 0.0235(8) 
O1 O2- 4 e 0.1769(7) 0.2904(6) 0.8933(12) 1 0 0.00121(16) 
O2 O2- 4 e -0.0187(7) 0.3683(6) 0.6615(4) 1 0 0.0106(16) 
O3 O2- 4 e 0.5802(127) -0.0143(6) 0.2941(11) 1 0 0.0128(15) 
O4 O2- 4 e 0.5910(7) 0.1417(6) 0.8951(6) 1 0 0.0105(15) 
O5 O2- 4 e 0.2868(8) 0.1905(6) 0.6546(6) 1 0 0.01223(15) 
O6 O2- 4 e 0.3099(7) 0.1030(6) 0.1002(6) 1 0 0.0116(17) 
O7 O2- 4 e 0.8530(7) 0.5224(6) 0.1335(6) 1 0 0.0095(16) 
O8 O2- 4 e 0.6956(7) 0.1643(6) 0.2965(14) 1 0 0.0145(16) 
O9 O2- 4 e 0.4043(7) 0.1207(6) 0.3341(6) 1 0 0.0010(15) 
O10 O2- 4 e 0.1976(7) 0.4208(6) 0.2860(6) 1 0 0.0012(15) 
O11 O2- 4 e 0.8473(8) 0.3409(6) 0.0840(7) 1 0 0.0125(15) 
O12 O2- 4 e 0.8642(7) 0.3920(6) 0.2881(7) 1 0 0.01426(17) 

loop_
_atom_site_aniso_label
_atom_site_aniso_type_symbol
_atom_site_aniso_U_11
_atom_site_aniso_U_22
_atom_site_aniso_U_33
_atom_site_aniso_U_12
_atom_site_aniso_U_13
_atom_site_aniso_U_23
P1 P5+ 0.0008(7) 0.0083(8) 0.0043(7) 0.0001(3) -0.0003(5) 0.0005(3)
P2 P5+ 0.0012(8) 0.0082(9) 0.0046(9) 0.000 -0.0013(6) 0.000
P3 P5+ 0.0065(5) 0.0081(3) 0.0091(2) -0.0006(16) 0.0045(17) 0.0011(14)
P4 P5+ 0.02(11) 0.013(5) 0.013(3) -0.0047(17) -0.0056(14) -0.002(2)
Ce1 Ce3+ 0.002(2) 0.014(3) 0.005(2) 0.000 0.0003(19) 0.000
Ag1 Ag1+ 0.0244(6) 0.0456(8) 0.0251(5) -0.0040(2) 0.0152(3) 0.0041(2)
O1 O2- 0.0179(4) 0.0089(4) 0.0159(3) 0.001(3) 0.0129(3) -0.002(3)
O2 O2- 0.002(3) 0.007(3) 0.019(4) 0.000(3) 0.001(3) 0.000(3)
O3 O2- 0.009(4) 0.009(3) 0.005(3) 0.003(3) -0.001(3) -0.002(3)
O4 O2- 0.007(3) 0.012(4) 0.002(3) 0.002(3) -0.002(3) 0.001(2)
O5 O2- 0.009(4) 0.010(3) 0.014(4) -0.003(3) 0.004(3) -0.002(3)
O6 O2- 0.004(4) 0.012(4) 0.015(4) -0.003(3) 0.000(3) 0.004(3)
O7 O2- 0.004(4) 0.011(4) 0.007(3) 0.001(3) -0.002(3) 0.000(3)
O8 O2- 0.003(3) 0.008(3) 0.019(4) 0.000(3) 0.001(3) 0.000(3)
O9 O2- 0.0089(4) 0.0119(3) 0.0119(3) 0.001(3) 0.0069(3) 0.000(3)
O10 O2- 0.008(3) 0.0169(4) 0.0099(3) -0.001(3) 0.0049(3) -0.002(2)
O11 O2- 0.006(4) 0.011(3) 0.014(4) -0.003(3) 0.004(3) -0.002(3)
O12 O2- 0.003(4) 0.013(4) 0.023(4) -0.003(3) 0.000(3) 0.004(3)
#End of data_425082-ICSD


