data_202178-ICSD
#?2014 by Fachinformationszentrum Karlsruhe, and the U.S. Secretary of 
#Commerce on behalf of the United States.  All rights reserved.
_database_code_ICSD                202178
_audit_creation_date               1988/12/19
_audit_update_record               1997/05/13
_chemical_name_systematic          'Potassium Gold Sulfide'
_chemical_formula_structural       'K Au S'
_chemical_formula_sum              'Au1 K1 S1'
_publ_section_title
;
Darstellung und Kristallstruktur von K Au S und K Au Se
;
loop_
_citation_id
_citation_journal_abbrev
_citation_year
_citation_journal_volume
_citation_page_first
_citation_page_last
_citation_journal_id_ASTM
primary 'Journal of the Less-Common Metals' 1987 128 65 71 JCOMAH
_publ_author_name                  'Klepp, K.O.;Bronger, W.'
_cell_length_a                     6.304(3)
_cell_length_b                     7.850(4)
_cell_length_c                     6.520(3)
_cell_angle_alpha                  90.
_cell_angle_beta                   90.
_cell_angle_gamma                  90.
_cell_volume                       322.65
_cell_formula_units_Z              4
_symmetry_space_group_name_H-M     'C m c m'
_symmetry_Int_Tables_number        63
_refine_ls_R_factor_all            .045
loop_
_symmetry_equiv_pos_site_id
_symmetry_equiv_pos_as_xyz
  1	'-x, y, -z+.5'
  2	'-x, -y, z+.5'
  3	'-x, y, z'
  4	'-x, -y, -z'
  5	'x, -y, z+.5'
  6	'x, y, -z+.5'
  7	'x, -y, -z'
  8	'x, y, z'
  9	'-x+.5, y+.5, -z+.5'
 10	'-x+.5, -y+.5, z+.5'
 11	'-x+.5, y+.5, z'
 12	'-x+.5, -y+.5, -z'
 13	'x+.5, -y+.5, z+.5'
 14	'x+.5, y+.5, -z+.5'
 15	'x+.5, -y+.5, -z'
 16	'x+.5, y+.5, z'
loop_
_atom_type_symbol
_atom_type_oxidation_number
Au1+	1
K1+	1
S2-	-2
loop_
_atom_site_label
_atom_site_type_symbol
_atom_site_symmetry_multiplicity
_atom_site_Wyckoff_symbol
_atom_site_fract_x
_atom_site_fract_y
_atom_site_fract_z
_atom_site_occupancy
_atom_site_attached_hydrogens
K1 K1+ 4 c 0 0.373(1) 0.25 1. 0 
Au1 Au1+ 4 a 0 0 0 1. 0 
S1 S2- 4 c 0 0.792(2) 0.25 1. 0 

loop_
_atom_site_aniso_label
_atom_site_aniso_type_symbol
_atom_site_aniso_U_11
_atom_site_aniso_U_22
_atom_site_aniso_U_33
_atom_site_aniso_U_12
_atom_site_aniso_U_13
_atom_site_aniso_U_23
K1 K1+ 0.023(5) 0.020(5) 0.030(5) 0 0 0
Au1 Au1+ 0.0161(5) 0.0166(5) 0.0155(6) 0 0 -.003(1)
S1 S2- 0.025(6) 0.020(5) 0.016(5) 0 0 0
#End of data_202178-ICSD


