data_156822-ICSD
#?2014 by Fachinformationszentrum Karlsruhe, and the U.S. Secretary of 
#Commerce on behalf of the United States.  All rights reserved.
_database_code_ICSD                156822
_audit_creation_date               2008/02/01
_chemical_name_systematic
;
Magnesium Aluminium Phosphate(V) Oxide - Beta''
;
_chemical_formula_structural       'Mg Al (P O4) O'
_chemical_formula_sum              'Al1 Mg1 O5 P1'
_publ_section_title
;
Polymorphism and thermochemistry of Mg Al P O4 O, a product of 
lazulite breakdown at high temperature
;
loop_
_citation_id
_citation_journal_abbrev
_citation_year
_citation_journal_volume
_citation_page_first
_citation_page_last
_citation_journal_id_ASTM
primary 'European Journal of Mineralogy' 2007 19 159 172 EJMIER
_publ_author_name
;
Schmid-Beurmann, P.;Brunet, F.;Kahlenberg, V.;Dachs, E.
;
_cell_length_a                     7.1169(9)
_cell_length_b                     10.370(1)
_cell_length_c                     5.4498(7)
_cell_angle_alpha                  90.
_cell_angle_beta                   98.34(2)
_cell_angle_gamma                  90.
_cell_volume                       397.95
_cell_formula_units_Z              4
_symmetry_space_group_name_H-M     'P 1 21/c 1'
_symmetry_Int_Tables_number        14
_refine_ls_R_factor_all            .0274
loop_
_symmetry_equiv_pos_site_id
_symmetry_equiv_pos_as_xyz
  1	'x, -y+.5, z+.5'
  2	'-x, -y, -z'
  3	'-x, y+.5, -z+.5'
  4	'x, y, z'
loop_
_atom_type_symbol
_atom_type_oxidation_number
Al3+	3
Mg2+	2
O2-	-2
P5+	5
loop_
_atom_site_label
_atom_site_type_symbol
_atom_site_symmetry_multiplicity
_atom_site_Wyckoff_symbol
_atom_site_fract_x
_atom_site_fract_y
_atom_site_fract_z
_atom_site_occupancy
_atom_site_attached_hydrogens
_atom_site_U_iso_or_equiv
Mg1 Mg2+ 4 e 0.0153(1) 0.1420(1) 0.1165(2) 1. 0 0.0116(3) 
Al1 Al3+ 4 e 0.3594(1) 0.3257(1) 0.0596(1) 1. 0 0.0101(2) 
P1 P5+ 4 e 0.7807(1) 0.0982(1) 0.5687(1) 1. 0 0.0096(2) 
O1 O2- 4 e 0.2681(2) 0.2206(2) 0.2591(3) 1. 0 0.0120(4) 
O2 O2- 4 e 0.6077(2) 0.1759(2) 0.6201(3) 1. 0 0.0139(4) 
O3 O2- 4 e 0.2843(2) 0.4852(2) 0.1067(3) 1. 0 0.0140(4) 
O4 O2- 4 e 0.9137(2) 0.1849(2) 0.4413(3) 1. 0 0.0120(4) 
O5 O2- 4 e 0.1117(2) -0.0455(2) 0.1865(3) 1. 0 0.0126(4) 

loop_
_atom_site_aniso_label
_atom_site_aniso_type_symbol
_atom_site_aniso_U_11
_atom_site_aniso_U_22
_atom_site_aniso_U_33
_atom_site_aniso_U_12
_atom_site_aniso_U_13
_atom_site_aniso_U_23
Mg1 Mg2+ 0.0127(4) 0.0110(4) 0.0106(5) 0.0000(1) 0.0005(3) -0.0003(3)
Al1 Al3+ 0.0106(4) 0.0093(4) 0.0102(4) -0.0003(2) 0.0013(3) 0.0004(2)
P1 P5+ 0.0099(3) 0.0086(3) 0.0100(4) -0.0007(2) 0.0008(2) 0.0004(2)
O1 O2- 0.0118(7) 0.0133(8) 0.0108(9) -0.0026(5) 0.0007(6) 0.0023(6)
O2 O2- 0.0099(8) 0.0161(8) 0.0157(10) 0.0011(6) 0.0017(6) -0.0011(6)
O3 O2- 0.0185(8) 0.0112(8) 0.0114(9) 0.0016(6) -0.0002(6) 0.0000(6)
O4 O2- 0.0129(7) 0.0121(8) 0.0114(9) -0.0020(6) 0.0037(6) 0.0000(6)
O5 O2- 0.0153(8) 0.0111(7) 0.0108(9) 0.0008(6) 0.0005(6) 0.0007(6)
#End of data_156822-ICSD


