data_40663-ICSD
#?2014 by Fachinformationszentrum Karlsruhe, and the U.S. Secretary of 
#Commerce on behalf of the United States.  All rights reserved.
_database_code_ICSD                40663
_audit_creation_date               1999/11/30
_chemical_name_systematic          'Magnesium Silicate - Hp'
_chemical_formula_structural       'Mg (Si O3)'
_chemical_formula_sum              'Mg1 O3 Si1'
_publ_section_title
;
Synthesis and crystal-chemical characterization of Mg Si O3 
perovskite
;
loop_
_citation_id
_citation_journal_abbrev
_citation_year
_citation_journal_volume
_citation_page_first
_citation_page_last
_citation_journal_id_ASTM
primary 'Earth and Planetary Science Letters' 1978 38 443 450 EPSLA2
2 'Acta Crystallographica, Section B: Structural Science'
 1991 47 561 580 ASBSDK
_publ_author_name                  'Ito, E.;Matsui, Y.'
_cell_length_a                     4.7754(3)
_cell_length_b                     4.9292(4)
_cell_length_c                     6.8969(5)
_cell_angle_alpha                  90.
_cell_angle_beta                   90.
_cell_angle_gamma                  90.
_cell_volume                       162.35
_cell_formula_units_Z              4
_symmetry_space_group_name_H-M     'P b n m'
_symmetry_Int_Tables_number        62
loop_
_symmetry_equiv_pos_site_id
_symmetry_equiv_pos_as_xyz
  1	'-x+.5, y+.5, z'
  2	'x, y, -z+.5'
  3	'x+.5, -y+.5, z+.5'
  4	'-x, -y, -z'
  5	'x+.5, -y+.5, -z'
  6	'-x, -y, z+.5'
  7	'-x+.5, y+.5, -z+.5'
  8	'x, y, z'
loop_
_atom_type_symbol
_atom_type_oxidation_number
Mg2+	2
O2-	-2
Si4+	4
loop_
_atom_site_label
_atom_site_type_symbol
_atom_site_symmetry_multiplicity
_atom_site_Wyckoff_symbol
_atom_site_fract_x
_atom_site_fract_y
_atom_site_fract_z
_atom_site_occupancy
_atom_site_attached_hydrogens
Mg1 Mg2+ 4 c 0.521(6) 0.561(5) 0.25 1. 0 
Si1 Si4+ 4 b 0.5 0 0.5 1. 0 
O1 O2- 4 c 0.096(8) 0.468(12) 0.25 1. 0 
O2 O2- 8 d 0.201(8) 0.205(8) 0.558(4) 1. 0 

#End of data_40663-ICSD


