data_59937-ICSD
#?2014 by Fachinformationszentrum Karlsruhe, and the U.S. Secretary of 
#Commerce on behalf of the United States.  All rights reserved.
_database_code_ICSD                59937
_audit_creation_date               2005/10/01
_chemical_name_systematic          'Calcium Zinc Silicate'
_chemical_formula_structural       'Ca Zn Si2 O6'
_chemical_formula_sum              'Ca1 O6 Si2 Zn1'
_publ_section_title
;
A comparison of the clinopyroxene compunds Ca Zn Si2 O6 and Ca Zn Ge2 
O6
;
loop_
_citation_id
_citation_journal_abbrev
_citation_year
_citation_journal_volume
_citation_page_first
_citation_page_last
_citation_journal_id_ASTM
primary 'Acta Crystallographica, Section C: Crystal Structure Communications'
 2005 61 i20 i22 ACSCEE
_publ_author_name                  'Redhammer, G.J.;Roth, G.'
_cell_length_a                     9.7955(8)
_cell_length_b                     8.9781(8)
_cell_length_c                     5.251(6)
_cell_angle_alpha                  90
_cell_angle_beta                   106.033(7)
_cell_angle_gamma                  90
_cell_volume                       443.84
_cell_formula_units_Z              4
_symmetry_space_group_name_H-M     'C 1 2/c 1'
_symmetry_Int_Tables_number        15
_refine_ls_R_factor_all            .021
loop_
_symmetry_equiv_pos_site_id
_symmetry_equiv_pos_as_xyz
  1	'x, -y, z+.5'
  2	'-x, -y, -z'
  3	'-x, y, -z+.5'
  4	'x, y, z'
  5	'x+.5, -y+.5, z+.5'
  6	'-x+.5, -y+.5, -z'
  7	'-x+.5, y+.5, -z+.5'
  8	'x+.5, y+.5, z'
loop_
_atom_type_symbol
_atom_type_oxidation_number
Ca2+	2
O2-	-2
Si4+	4
Zn2+	2
loop_
_atom_site_label
_atom_site_type_symbol
_atom_site_symmetry_multiplicity
_atom_site_Wyckoff_symbol
_atom_site_fract_x
_atom_site_fract_y
_atom_site_fract_z
_atom_site_occupancy
_atom_site_attached_hydrogens
_atom_site_U_iso_or_equiv
Ca1 Ca2+ 4 e 0 0.29913(8) 0.25 1 0 0.00825(18) 
Zn1 Zn2+ 4 e 0.5 0.40553(4) 0.25 1 0 0.00613(14) 
Si1 Si4+ 8 f 0.28648(7) 0.09259(7) 0.22949(14) 1 0 0.00389(17) 
O1 O2- 8 f 0.1166(2) 0.08882(19) 0.1442(4) 1 0 0.0057(4) 
O2 O2- 8 f 0.3603(2) 0.2480(2) 0.3220(3) 1 0 0.0080(4) 
O3 O2- 8 f 0.35015(19) 0.0188(2) -0.0063(3) 1 0 0.0062(4) 

loop_
_atom_site_aniso_label
_atom_site_aniso_type_symbol
_atom_site_aniso_U_11
_atom_site_aniso_U_22
_atom_site_aniso_U_33
_atom_site_aniso_U_12
_atom_site_aniso_U_13
_atom_site_aniso_U_23
Ca1 Ca2+ 0.0084(4) 0.0102(4) 0.0047(3) 0 -0.0006(3) 0
Zn1 Zn2+ 0.0059(2) 0.0076(2) 0.0046(2) 0 0.00094(15) 0
Si1 Si4+ 0.0034(3) 0.0054(3) 0.0032(3) -0.0002(3) 0.0014(2) -0.0006(2)
O1 O2- 0.0038(9) 0.0087(8) 0.0047(8) 0.0002(7) 0.0014(6) 0.0004(6)
O2 O2- 0.0091(10) 0.0076(9) 0.0078(9) -0.0027(7) 0.0031(7) 0.0001(6)
O3 O2- 0.0044(9) 0.0092(9) 0.0050(8) -0.0009(7) 0.0015(7) -0.0015(6)
#End of data_59937-ICSD


