data_90118-ICSD
#?2014 by Fachinformationszentrum Karlsruhe, and the U.S. Secretary of 
#Commerce on behalf of the United States.  All rights reserved.
_database_code_ICSD                90118
_audit_creation_date               2002/04/01
_chemical_name_systematic
;
Dipotassium Tetraselenomangano(II)stannate
;
_chemical_formula_structural       'K2 (Mn Sn Se4)'
_chemical_formula_sum              'K2 Mn1 Se4 Sn1'
_publ_section_title
;
From 1D chain to 3D network: syntheses, structures, and 1D properties 
of K2 Mn Sn2 Se6, K2 Mn Sn Se4, and K2 Ag2 Sn Se4
;
loop_
_citation_id
_citation_journal_abbrev
_citation_year
_citation_journal_volume
_citation_page_first
_citation_page_last
_citation_journal_id_ASTM
primary 'Chemistry of Materials' 2000 12 2385 2391 CMATEX
_publ_author_name
;
Chen, X.;Huang, X.-Y.;Fu, A.-H.;Li, J.;Zhang, L.-D.;Guo, H.-Y.
;
_cell_length_a                     10.574(1)
_cell_length_b                     10.574(1)
_cell_length_c                     8.301(2)
_cell_angle_alpha                  90.
_cell_angle_beta                   90.
_cell_angle_gamma                  90.
_cell_volume                       928.13
_cell_formula_units_Z              4
_symmetry_space_group_name_H-M     'P -4 n 2'
_symmetry_Int_Tables_number        118
_refine_ls_R_factor_all            .034
loop_
_symmetry_equiv_pos_site_id
_symmetry_equiv_pos_as_xyz
  1	'-y+.5, -x+.5, -z+.5'
  2	'y, -x, -z'
  3	'x+.5, -y+.5, z+.5'
  4	'-x, -y, z'
  5	'y+.5, x+.5, -z+.5'
  6	'-y, x, -z'
  7	'-x+.5, y+.5, z+.5'
  8	'x, y, z'
loop_
_atom_type_symbol
_atom_type_oxidation_number
K1+	1
Mn2+	2
Se2-	-2
Sn4+	4
loop_
_atom_site_label
_atom_site_type_symbol
_atom_site_symmetry_multiplicity
_atom_site_Wyckoff_symbol
_atom_site_fract_x
_atom_site_fract_y
_atom_site_fract_z
_atom_site_occupancy
_atom_site_attached_hydrogens
_atom_site_U_iso_or_equiv
Sn1 Sn4+ 4 f 0.2780(1) 0.2220(1) 0.25 1. 0 0.016(1) 
Mn1 Mn2+ 2 d 0.5 0 0.25 1. 0 0.022(1) 
Mn2 Mn2+ 2 b 0 0 0.5 1. 0 0.017(1) 
Se1 Se2- 8 i 0.3026(1) 0.0305(1) 0.0709(1) 1. 0 0.020(1) 
Se2 Se2- 8 i 0.0675(1) 0.2144(1) 0.3908(2) 1. 0 0.023(1) 
K1 K1+ 4 g 0.2466(3) 0.7466(3) 0.25 1. 0 0.033(1) 
K2 K1+ 2 c 0 0.5 0.25 1. 0 0.023(1) 
K3 K1+ 2 a 0 0 0 1. 0 0.049(2) 

#End of data_90118-ICSD


