data_280882-ICSD
#?2014 by Fachinformationszentrum Karlsruhe, and the U.S. Secretary of 
#Commerce on behalf of the United States.  All rights reserved.
_database_code_ICSD                280882
_audit_creation_date               2003/04/01
_audit_update_record               2005/10/01
_chemical_name_systematic          'Potassium Pentamolybdate(V)'
_chemical_formula_structural       'K (Mo5 O13)'
_chemical_formula_sum              'K1 Mo5 O13'
_publ_section_title                'K Mo5 O13 and K Nb1.76 Sb3.24 O13'
loop_
_citation_id
_citation_journal_abbrev
_citation_year
_citation_journal_volume
_citation_page_first
_citation_page_last
_citation_journal_id_ASTM
primary 'Acta Crystallographica, Section C: Crystal Structure Communications'
 2002 58 i106 i108 ACSCEE
_publ_author_name                  'Mongi Ftini, M.;Krifa, M.;Amor, H.'
_cell_length_a                     6.6027(10)
_cell_length_b                     8.9552(10)
_cell_length_c                     16.844(2)
_cell_angle_alpha                  90.
_cell_angle_beta                   90.
_cell_angle_gamma                  90.
_cell_volume                       995.96
_cell_formula_units_Z              4
_symmetry_space_group_name_H-M     'C m c m'
_symmetry_Int_Tables_number        63
_refine_ls_R_factor_all            .043
loop_
_symmetry_equiv_pos_site_id
_symmetry_equiv_pos_as_xyz
  1	'-x, y, -z+.5'
  2	'-x, -y, z+.5'
  3	'-x, y, z'
  4	'-x, -y, -z'
  5	'x, -y, z+.5'
  6	'x, y, -z+.5'
  7	'x, -y, -z'
  8	'x, y, z'
  9	'-x+.5, y+.5, -z+.5'
 10	'-x+.5, -y+.5, z+.5'
 11	'-x+.5, y+.5, z'
 12	'-x+.5, -y+.5, -z'
 13	'x+.5, -y+.5, z+.5'
 14	'x+.5, y+.5, -z+.5'
 15	'x+.5, -y+.5, -z'
 16	'x+.5, y+.5, z'
loop_
_atom_type_symbol
_atom_type_oxidation_number
K1+	1
Mo5+	5
O2-	-2
loop_
_atom_site_label
_atom_site_type_symbol
_atom_site_symmetry_multiplicity
_atom_site_Wyckoff_symbol
_atom_site_fract_x
_atom_site_fract_y
_atom_site_fract_z
_atom_site_occupancy
_atom_site_attached_hydrogens
_atom_site_U_iso_or_equiv
Mo1 Mo5+ 4 a 0 0 0.5 1. 0 0.0048(2) 
Mo2 Mo5+ 8 f 0 0.23165(7) 0.36166(4) 1. 0 0.0048(2) 
Mo3 Mo5+ 8 f 0 0.38575(7) 0.57726(4) 1. 0 0.0049(2) 
K1 K1+ 4 c 0 0.1278(4) 0.75 1. 0 0.0309(8) 
O1 O2- 4 c 0 0.1878(13) 0.25 1. 0 0.023(2) 
O2 O2- 16 h 0.2035(9) 0.2732(6) 0.6322(3) 1. 0 0.0223(11) 
O3 O2- 8 e -.3110(12) 0 0.5 1. 0 0.0195(14) 
O4 O2- 8 f 0 0.2256(8) 0.4907(5) 1. 0 0.0202(15) 
O5 O2- 8 f 0 0.5535(8) 0.6499(5) 1. 0 0.0213(15) 
O6 O2- 8 f 0 0.0147(8) 0.3869(4) 1. 0 0.0205(15) 

loop_
_atom_site_aniso_label
_atom_site_aniso_type_symbol
_atom_site_aniso_U_11
_atom_site_aniso_U_22
_atom_site_aniso_U_33
_atom_site_aniso_U_12
_atom_site_aniso_U_13
_atom_site_aniso_U_23
Mo1 Mo5+ 0.0062(4) 0.0046(4) 0.0035(4) 0 0 0.0007(3)
Mo2 Mo5+ 0.0064(3) 0.0041(3) 0.0038(3) 0 0 0.0002(2)
Mo3 Mo5+ 0.0064(4) 0.0042(3) 0.0042(3) 0 0 0.0003(2)
K1 K1+ 0.047(2) 0.0259(17) 0.0192(16) 0 0 0
O1 O2- 0.030(6) 0.028(6) 0.012(4) 0 0 0
O2 O2- 0.025(3) 0.022(2) 0.020(2) 0.001(2) -0.004(2) 0.0027(19)
O3 O2- 0.023(3) 0.020(3) 0.015(3) 0 0 0.003(3)
O4 O2- 0.026(4) 0.017(3) 0.018(4) 0 0 0.001(3)
O5 O2- 0.030(4) 0.014(3) 0.020(3) 0 0 0.001(3)
O6 O2- 0.032(4) 0.016(3) 0.013(3) 0 0 0.002(3)
#End of data_280882-ICSD


