data_82636-ICSD
#?2014 by Fachinformationszentrum Karlsruhe, and the U.S. Secretary of 
#Commerce on behalf of the United States.  All rights reserved.
_database_code_ICSD                82636
_audit_creation_date               1997/11/10
_audit_update_record               2007/04/01
_chemical_name_systematic
;
Trisilver Triselenoarsenate(III) - Beta
;
_chemical_formula_structural       'Ag3 (As Se3)'
_chemical_formula_sum              'Ag3 As1 Se3'
_publ_section_title
;
Isolation of beta-Ag3 As Se3, (Me3 N H) (Ag3 As2 Se5), K5 Ag2 As3 
Se9, and K Ag3 As2 S5 : novel solid state silver thio- and 
selenoarsenates from solvento-thermal synthesis
;
loop_
_citation_id
_citation_journal_abbrev
_citation_year
_citation_journal_volume
_citation_page_first
_citation_page_last
_citation_journal_id_ASTM
primary 'Journal of Solid State Chemistry' 1996 127 186 201 JSSCBI
2 'Golden Book of Phase Transitions, Wroclaw' 2002 1 1 123 GBOPT5
_publ_author_name                  'Kanatzidis, M.G.;Chou Junhong'
_cell_length_a                     8.111(1)
_cell_length_b                     11.344(2)
_cell_length_c                     20.728(3)
_cell_angle_alpha                  90.
_cell_angle_beta                   90.
_cell_angle_gamma                  90.
_cell_volume                       1907.21
_cell_formula_units_Z              12
_symmetry_space_group_name_H-M     'P n m a'
_symmetry_Int_Tables_number        62
_refine_ls_R_factor_all            .067
loop_
_symmetry_equiv_pos_site_id
_symmetry_equiv_pos_as_xyz
  1	'x+.5, y, -z+.5'
  2	'x, -y+.5, z'
  3	'-x+.5, y+.5, z+.5'
  4	'-x, -y, -z'
  5	'-x+.5, -y, z+.5'
  6	'-x, y+.5, -z'
  7	'x+.5, -y+.5, -z+.5'
  8	'x, y, z'
loop_
_atom_type_symbol
_atom_type_oxidation_number
Ag1+	1
As3+	3
Se2-	-2
loop_
_atom_site_label
_atom_site_type_symbol
_atom_site_symmetry_multiplicity
_atom_site_Wyckoff_symbol
_atom_site_fract_x
_atom_site_fract_y
_atom_site_fract_z
_atom_site_occupancy
_atom_site_attached_hydrogens
_atom_site_B_iso_or_equiv
Ag1 Ag1+ 8 d 0.6435(6) -.0180(4) 0.6779(2) 1. 0 1.5(2) 
Ag2 Ag1+ 8 d 0.3314(5) 0.1101(4) 0.7155(2) 1. 0 1.6(2) 
Ag3 Ag1+ 8 d 0.8779(6) -.0348(4) 0.5601(2) 1. 0 1.4(2) 
Ag4 Ag1+ 8 d 0.7139(6) 0.0714(4) 0.4424(2) 1. 0 1.9(2) 
Ag5 Ag1+ 4 c 0.7766(9) 0.75 0.6312(4) 1. 0 1.3(3) 
Se1 Se2- 4 c 0.613(1) 0.25 0.7120(4) 1. 0 0.7(4) 
Se2 Se2- 4 c 0.988(1) 0.75 0.5318(4) 1. 0 1.1(4) 
Se3 Se2- 8 d 0.1200(7) 0.0889(6) 0.6187(3) 1. 0 1.0(3) 
Se4 Se2- 8 d 0.4164(7) -.0962(5) 0.7686(3) 1. 0 0.8(3) 
Se5 Se2- 4 c 0.454(1) 0.75 0.6095(4) 1. 0 0.9(4) 
Se6 Se2- 8 d 0.6009(7) 0.0837(5) 0.5629(3) 1. 0 1.1(3) 
As1 As3+ 4 c 0.748(1) 0.25 0.6078(4) 1. 0 0.6(4) 
As2 As3+ 4 c 0.220(1) 0.25 0.5539(5) 1. 0 0.7(4) 
As3 As3+ 4 c 0.287(1) 0.75 0.7082(6) 1. 0 1.3(4) 

#End of data_82636-ICSD


