data_88496-ICSD
#?2014 by Fachinformationszentrum Karlsruhe, and the U.S. Secretary of 
#Commerce on behalf of the United States.  All rights reserved.
_database_code_ICSD                88496
_audit_creation_date               2001/07/16
_chemical_name_systematic          'Dilithium Lanthanum Ditantalate'
_chemical_formula_structural       'Li2 La (Ta2 O7)'
_chemical_formula_sum              'La1 Li2 O7 Ta2'
_publ_section_title
;
Synthesis and structure determination of reduced tantalates, Li2 La 
Ta2 O7, Li2 Ca2 Ta3 O10 and Na2 Ca2 Ta3 O10, with a layered 
perovskite structure
;
loop_
_citation_id
_citation_journal_abbrev
_citation_year
_citation_journal_volume
_citation_page_first
_citation_page_last
_citation_journal_id_ASTM
primary 'Journal of Materials Chemistry' 1998 9 799 803 JMACEP
_publ_author_name
;
Toda, K.;Takahashi, M.;Teranishi, T.;Ye, Z.-G.;Sato, M.;Hinatsu, Y.
;
_cell_length_a                     3.9250(4)
_cell_length_b                     3.9250(4)
_cell_length_c                     19.0890(30)
_cell_angle_alpha                  90.
_cell_angle_beta                   90.
_cell_angle_gamma                  90.
_cell_volume                       294.08
_cell_formula_units_Z              2
_symmetry_space_group_name_H-M     'I 4/m m m'
_symmetry_Int_Tables_number        139
_refine_ls_R_factor_all            .012
loop_
_symmetry_equiv_pos_site_id
_symmetry_equiv_pos_as_xyz
  1	'y, x, -z'
  2	'-y, -x, -z'
  3	'-y, x, -z'
  4	'y, -x, -z'
  5	'-x, y, -z'
  6	'x, -y, -z'
  7	'x, y, -z'
  8	'-x, -y, -z'
  9	'-y, -x, z'
 10	'y, x, z'
 11	'y, -x, z'
 12	'-y, x, z'
 13	'x, -y, z'
 14	'-x, y, z'
 15	'-x, -y, z'
 16	'x, y, z'
 17	'y+.5, x+.5, -z+.5'
 18	'-y+.5, -x+.5, -z+.5'
 19	'-y+.5, x+.5, -z+.5'
 20	'y+.5, -x+.5, -z+.5'
 21	'-x+.5, y+.5, -z+.5'
 22	'x+.5, -y+.5, -z+.5'
 23	'x+.5, y+.5, -z+.5'
 24	'-x+.5, -y+.5, -z+.5'
 25	'-y+.5, -x+.5, z+.5'
 26	'y+.5, x+.5, z+.5'
 27	'y+.5, -x+.5, z+.5'
 28	'-y+.5, x+.5, z+.5'
 29	'x+.5, -y+.5, z+.5'
 30	'-x+.5, y+.5, z+.5'
 31	'-x+.5, -y+.5, z+.5'
 32	'x+.5, y+.5, z+.5'
loop_
_atom_type_symbol
_atom_type_oxidation_number
La3+	3
Li1+	1
O2-	-2
Ta4.5+	4.5
loop_
_atom_site_label
_atom_site_type_symbol
_atom_site_symmetry_multiplicity
_atom_site_Wyckoff_symbol
_atom_site_fract_x
_atom_site_fract_y
_atom_site_fract_z
_atom_site_occupancy
_atom_site_attached_hydrogens
_atom_site_B_iso_or_equiv
Li1 Li1+ 4 d 0 0.5 0.25 1. 0 5.(4) 
La1 La3+ 2 a 0 0 0 1. 0 0.8(1) 
Ta1 Ta4.5+ 4 e 0 0 0.3872(2) 1. 0 0.6(1) 
O1 O2- 8 g 0 0.5 0.098(2) 1. 0 1.1(4) 
O2 O2- 4 e 0 0 0.288(2) 1. 0 1.1(4) 
O3 O2- 2 b 0 0 0.5 1. 0 1.1(4) 

#End of data_88496-ICSD


