data_174057-ICSD
#?2014 by Fachinformationszentrum Karlsruhe, and the U.S. Secretary of 
#Commerce on behalf of the United States.  All rights reserved.
_database_code_ICSD                174057
_audit_creation_date               2010/02/01
_chemical_name_systematic          'Lithium Rubidium Sulfate(VI)'
_chemical_formula_structural       'Li Rb (S O4)'
_chemical_formula_sum              'Li1 O4 Rb1 S1'
_publ_section_title
;
A structural study of the successive transitions in Li Rb S O4
;
loop_
_citation_id
_citation_journal_abbrev
_citation_year
_citation_journal_volume
_citation_journal_issue
_citation_page_first
_citation_page_last
_citation_journal_id_ASTM
primary 'Journal of the Physical Society of Japan' 1987 56 9 3189 3195 JUPSAU
_publ_author_name                  'Kunishige, A.;Mashiyama, H.'
_cell_length_a                     5.305(1)
_cell_length_b                     9.144(4)
_cell_length_c                     17.413(2)
_cell_angle_alpha                  89.99(2)
_cell_angle_beta                   90.
_cell_angle_gamma                  90.
_cell_volume                       844.69
_cell_formula_units_Z              8
_symmetry_space_group_name_H-M     'P 21/c 1 1'
_symmetry_Int_Tables_number        14
_refine_ls_R_factor_all            .055
loop_
_symmetry_equiv_pos_site_id
_symmetry_equiv_pos_as_xyz
  1	'-x+.5, y, z+.5'
  2	'-x, -y, -z'
  3	'x+.5, -y, -z+.5'
  4	'x, y, z'
loop_
_atom_type_symbol
_atom_type_oxidation_number
Li1+	1
O2-	-2
Rb1+	1
S6+	6
loop_
_atom_site_label
_atom_site_type_symbol
_atom_site_symmetry_multiplicity
_atom_site_Wyckoff_symbol
_atom_site_fract_x
_atom_site_fract_y
_atom_site_fract_z
_atom_site_occupancy
_atom_site_attached_hydrogens
_atom_site_B_iso_or_equiv
Li1 Li1+ 4 e 0.2419(50) 0.4196(24) 0.1629(12) 1. 0 2.87(42) 
Li2 Li1+ 4 e 0.2434(61) 0.0866(33) 0.4106(14) 1. 0 4.39(59) 
Rb1 Rb1+ 4 e 0.7524(4) 0.2161(1) 0.2515(1) 1. 0 3.09(2) 
Rb2 Rb1+ 4 e 0.7408(3) 0.2850(1) 0.5007(1) 1. 0 3.21(2) 
S1 S6+ 4 e 0.2474(8) 0.0833(3) 0.1031(2) 1. 0 1.81(5) 
S2 S6+ 4 e 0.2450(8) 0.4162(3) 0.3528(2) 1. 0 1.88(5) 
O1 O2- 4 e 0.2499(28) 0.0871(18) 0.0211(5) 1. 0 6.08(38) 
O2 O2- 4 e 0.2478(38) 0.4066(18) 0.2719(7) 1. 0 6.61(41) 
O3 O2- 4 e 0.1610(24) 0.2208(12) 0.1308(8) 1. 0 4.93(32) 
O4 O2- 4 e 0.1625(26) 0.2813(13) 0.3874(9) 1. 0 5.68(34) 
O5 O2- 4 e 0.4880(20) 0.0457(13) 0.1335(7) 1. 0 3.93(26) 
O6 O2- 4 e 0.4998(20) 0.4471(12) 0.3806(6) 1. 0 3.64(25) 
O7 O2- 4 e 0.0718(21) -0.0277(13) 0.1267(7) 1. 0 3.98(27) 
O8 O2- 4 e 0.0743(26) 0.5302(14) 0.3754(9) 1. 0 6.10(34) 

#End of data_174057-ICSD


