data_8061-ICSD
#?2014 by Fachinformationszentrum Karlsruhe, and the U.S. Secretary of 
#Commerce on behalf of the United States.  All rights reserved.
_database_code_ICSD                8061
_audit_creation_date               1980/01/01
_audit_update_record               2012/02/01
_chemical_name_systematic
;
Calcium Chloride Tetrahydrate - Alpha
;
_chemical_formula_structural       'Ca Cl2 (H2 O)4'
_chemical_formula_sum              'H8 Ca1 Cl2 O4'
_publ_section_title
;
Liaisons hydrogene et coordination du calcium dans les cristaux de Ca 
Cl2 (H2 O)4 alpha
;
loop_
_citation_id
_citation_journal_abbrev
_citation_year
_citation_journal_volume
_citation_page_first
_citation_page_last
_citation_journal_id_ASTM
primary 'Acta Crystallographica B (24,1968-38,1982)' 1979 35 585 588 ACBCAR
_publ_author_name                  'Leclaire, A.;Borel, M.M.'
_cell_length_a                     6.5932(6)
_cell_length_b                     6.3673(8)
_cell_length_c                     8.5606(15)
_cell_angle_alpha                  97.83(1)
_cell_angle_beta                   93.50(1)
_cell_angle_gamma                  110.58(1)
_cell_volume                       331
_cell_formula_units_Z              2
_symmetry_space_group_name_H-M     'P -1'
_symmetry_Int_Tables_number        2
_refine_ls_R_factor_all            .033
loop_
_symmetry_equiv_pos_site_id
_symmetry_equiv_pos_as_xyz
  1	'-x, -y, -z'
  2	'x, y, z'
loop_
_atom_type_symbol
_atom_type_oxidation_number
Ca2+	2
Cl1-	-1
H1+	1
O2-	-2
loop_
_atom_site_label
_atom_site_type_symbol
_atom_site_symmetry_multiplicity
_atom_site_Wyckoff_symbol
_atom_site_fract_x
_atom_site_fract_y
_atom_site_fract_z
_atom_site_occupancy
_atom_site_attached_hydrogens
Ca1 Ca2+ 2 i 0.11886(3) -.01387(3) 0.26140(2) 1. 0 
Cl1 Cl1- 2 i 0.29090(4) -.27763(4) 0.05027(3) 1. 0 
Cl2 Cl1- 2 i -.24963(4) -.23938(4) 0.41330(3) 1. 0 
O1 O2- 2 i -.18298(14) -.18677(15) 0.04402(12) 1. 0 
O2 O2- 2 i -.01529(15) 0.28903(14) 0.27183(11) 1. 0 
O3 O2- 2 i 0.47923(14) 0.24134(16) 0.26680(11) 1. 0 
O4 O2- 2 i 0.24816(15) -.25291(15) 0.41486(10) 1. 0 
H1 H1+ 2 i -.3047(43) -.1928(44) 0.0754(30) 1. 0 
H2 H1+ 2 i -.2071(41) -.3242(44) 0.0171(29) 1. 0 
H3 H1+ 2 i 0.0677(47) 0.4132(50) 0.3157(33) 1. 0 
H4 H1+ 2 i -.0842(47) 0.3082(48) 0.1940(33) 1. 0 
H5 H1+ 2 i 0.5429(45) 0.3751(48) 0.3055(33) 1. 0 
H6 H1+ 2 i 0.5449(41) 0.3751(48) 0.1934(31) 1. 0 
H7 H1+ 2 i 0.3803(44) -.2372(44) 0.4052(30) 1. 0 
H8 H1+ 2 i 0.2391(55) -.2334(57) 0.5101(43) 1. 0 

#End of data_8061-ICSD


