data_36517-ICSD
#?2014 by Fachinformationszentrum Karlsruhe, and the U.S. Secretary of 
#Commerce on behalf of the United States.  All rights reserved.
_database_code_ICSD                36517
_audit_creation_date               1992/08/20
_chemical_name_systematic          'Sodium Hexachloroantimonate'
_chemical_formula_structural       'Na Sb Cl6'
_chemical_formula_sum              'Cl6 Na1 Sb1'
_publ_section_title
;
Zur kristallchemischen Einordnung von NaSbCl6, NaNbCl6 und NaTaCl6
;
loop_
_citation_id
_citation_journal_abbrev
_citation_year
_citation_journal_volume
_citation_page_first
_citation_page_last
_citation_journal_id_ASTM
primary 'Zeitschrift fuer Kristallographie (1979-2010)' 1992 198 1 16 ZEKRDZ
_publ_author_name                  'Henke, H.'
_cell_length_a                     6.393(2)
_cell_length_b                     6.393(2)
_cell_length_c                     10.717(3)
_cell_angle_alpha                  90.
_cell_angle_beta                   90.
_cell_angle_gamma                  90.
_cell_volume                       438.01
_cell_formula_units_Z              2
_symmetry_space_group_name_H-M     'P 42/m'
_symmetry_Int_Tables_number        84
_refine_ls_R_factor_all            .017
loop_
_symmetry_equiv_pos_site_id
_symmetry_equiv_pos_as_xyz
  1	'-y, x, -z+.5'
  2	'y, -x, -z+.5'
  3	'x, y, -z'
  4	'-x, -y, -z'
  5	'y, -x, z+.5'
  6	'-y, x, z+.5'
  7	'-x, -y, z'
  8	'x, y, z'
loop_
_atom_type_symbol
_atom_type_oxidation_number
Cl1-	-1
Na1+	1
Sb5+	5
loop_
_atom_site_label
_atom_site_type_symbol
_atom_site_symmetry_multiplicity
_atom_site_Wyckoff_symbol
_atom_site_fract_x
_atom_site_fract_y
_atom_site_fract_z
_atom_site_occupancy
_atom_site_attached_hydrogens
Sb1 Sb5+ 2 c 0 0.5 0 1. 0 
Cl1 Cl1- 4 j -.2129(2) 0.1959(2) 0 1. 0 
Cl2 Cl1- 8 k 0.2159(2) 0.3517(1) 0.1557(1) 1. 0 
Na1 Na1+ 2 e 0 0 0.25 1. 0 

loop_
_atom_site_aniso_label
_atom_site_aniso_type_symbol
_atom_site_aniso_U_11
_atom_site_aniso_U_22
_atom_site_aniso_U_33
_atom_site_aniso_U_12
_atom_site_aniso_U_13
_atom_site_aniso_U_23
Sb1 Sb5+ 0.0351(2) 0.0250(2) 0.0241(2) 0.0017(1) 0 0
Cl1 Cl1- 0.0451(6) 0.0325(5) 0.0492(6) -.0073(4) 0 0
Cl2 Cl1- 0.0639(5) 0.0456(4) 0.0560(5) -.0042(4) -.0291(5) 0.0138(4)
Na1 Na1+ 0.0524(20) 0.0524(20) 0.0749(25) 0 0 0
#End of data_36517-ICSD


