data_419201-ICSD
#?2014 by Fachinformationszentrum Karlsruhe, and the U.S. Secretary of 
#Commerce on behalf of the United States.  All rights reserved.
_database_code_ICSD                419201
_audit_creation_date               2009/02/01
_chemical_name_systematic          'Silver Copper Vanadate(V)'
_chemical_formula_structural       'Ag Cu (V O4)'
_chemical_formula_sum              'Ag1 Cu1 O4 V1'
_publ_section_title
;
Synthesis and crystal structure of Ag Cu V O4
;
loop_
_citation_id
_citation_journal_abbrev
_citation_year
_citation_journal_volume
_citation_journal_issue
_citation_page_first
_citation_page_last
_citation_journal_id_ASTM
primary 'Zeitschrift fuer Anorganische und Allgemeine Chemie (1950) (DE)'
 2008 634 10 1669 1672 ZAACAB
_publ_author_name                  'Moeller, A.;Jainski, J.'
_cell_length_a                     9.2550(14)
_cell_length_b                     6.7782(10)
_cell_length_c                     5.4012(10)
_cell_angle_alpha                  90.00
_cell_angle_beta                   90.00
_cell_angle_gamma                  90.00
_cell_volume                       338.83
_cell_formula_units_Z              4
_symmetry_space_group_name_H-M     'P n m a'
_symmetry_Int_Tables_number        62
_refine_ls_R_factor_all            .0296
loop_
_symmetry_equiv_pos_site_id
_symmetry_equiv_pos_as_xyz
  1	'x+.5, y, -z+.5'
  2	'x, -y+.5, z'
  3	'-x+.5, y+.5, z+.5'
  4	'-x, -y, -z'
  5	'-x+.5, -y, z+.5'
  6	'-x, y+.5, -z'
  7	'x+.5, -y+.5, -z+.5'
  8	'x, y, z'
loop_
_atom_type_symbol
_atom_type_oxidation_number
Ag1+	1
Cu2+	2
O2-	-2
V5+	5
loop_
_atom_site_label
_atom_site_type_symbol
_atom_site_symmetry_multiplicity
_atom_site_Wyckoff_symbol
_atom_site_fract_x
_atom_site_fract_y
_atom_site_fract_z
_atom_site_occupancy
_atom_site_attached_hydrogens
_atom_site_U_iso_or_equiv
Ag1 Ag1+ 4 c 0.13803(6) 0.2500 0.51485(9) 1 0 0.0134(2) 
Cu1 Cu2+ 4 a 0.5000 0.0000 0.5000 1 0 0.0076(3) 
V1 V5+ 4 c 0.30980(12) 0.2500 0.0576(2) 1 0 0.0066(3) 
O1 O2- 4 c 0.1142(5) 0.2500 0.0728(9) 1 0 0.0105(10) 
O2 O2- 4 c 0.1269(5) 0.7500 0.2654(9) 1 0 0.0133(11) 
O3 O2- 8 d 0.3741(4) 0.4502(6) 0.2165(6) 1 0 0.0116(8) 

loop_
_atom_site_aniso_label
_atom_site_aniso_type_symbol
_atom_site_aniso_U_11
_atom_site_aniso_U_22
_atom_site_aniso_U_33
_atom_site_aniso_U_12
_atom_site_aniso_U_13
_atom_site_aniso_U_23
Ag1 Ag1+ 0.0159(4) 0.0144(4) 0.0101(3) 0.000 0.00067(19) 0.000
Cu1 Cu2+ 0.0056(4) 0.0091(6) 0.0082(4) -0.0031(3) -0.0036(3) 0.0035(3)
V1 V5+ 0.0041(5) 0.0089(7) 0.0070(5) 0.000 0.0000(4) 0.000
O1 O2- 0.007(2) 0.012(3) 0.013(2) 0.000 -0.0036(19) 0.000
O2 O2- 0.006(2) 0.021(3) 0.013(2) 0.000 0.0005(18) 0.000
O3 O2- 0.0113(18) 0.009(2) 0.0149(16) 0.0008(15) -0.0065(13) 0.0000(14)
#End of data_419201-ICSD


