data_201215-ICSD
#?2014 by Fachinformationszentrum Karlsruhe, and the U.S. Secretary of 
#Commerce on behalf of the United States.  All rights reserved.
_database_code_ICSD                201215
_audit_creation_date               1981/12/31
_audit_update_record               1998/06/26
_chemical_name_systematic
;
Cesium Aluminium Sulfate Dodecahydrate
;
_chemical_formula_structural       'Cs Al (S O4)2 (H2 O)12'
_chemical_formula_sum              'H24 Al1 Cs1 O20 S2'
_chemical_name_mineral             Caesiumalum-(Al)
_publ_section_title
;
Structural studies on the cesium alums Cs M(III) (S O4)2 (H2 O)12
;
loop_
_citation_id
_citation_journal_abbrev
_citation_year
_citation_journal_volume
_citation_page_first
_citation_page_last
_citation_journal_id_ASTM
primary
;
Journal of the Chemical Society. Dalton Transactions, Inorganic 
Chemistry (1972-)
;
 1981 1981 2105 2111 JCDTBI
_publ_author_name
;
Beattie, J.K.;Best, S.P.;Skelton, B.W.;White, A.H.
;
_cell_length_a                     12.357(6)
_cell_length_b                     12.357(6)
_cell_length_c                     12.357(6)
_cell_angle_alpha                  90.
_cell_angle_beta                   90.
_cell_angle_gamma                  90.
_cell_volume                       1886.86
_cell_formula_units_Z              4
_symmetry_space_group_name_H-M     'P a -3'
_symmetry_Int_Tables_number        205
_refine_ls_R_factor_all            .043
loop_
_symmetry_equiv_pos_site_id
_symmetry_equiv_pos_as_xyz
  1	'-z+.5, x+.5, y'
  2	'z+.5, x, -y+.5'
  3	'z, -x+.5, y+.5'
  4	'-z, -x, -y'
  5	'y, -z+.5, x+.5'
  6	'-y+.5, z+.5, x'
  7	'y+.5, z, -x+.5'
  8	'-y, -z, -x'
  9	'x+.5, y, -z+.5'
 10	'x, -y+.5, z+.5'
 11	'-x+.5, y+.5, z'
 12	'-x, -y, -z'
 13	'z+.5, -x+.5, -y'
 14	'-z+.5, -x, y+.5'
 15	'-z, x+.5, -y+.5'
 16	'z, x, y'
 17	'-y, z+.5, -x+.5'
 18	'y+.5, -z+.5, -x'
 19	'-y+.5, -z, x+.5'
 20	'y, z, x'
 21	'-x+.5, -y, z+.5'
 22	'-x, y+.5, -z+.5'
 23	'x+.5, -y+.5, -z'
 24	'x, y, z'
loop_
_atom_type_symbol
_atom_type_oxidation_number
Al3+	3
Cs1+	1
H1+	1
O2-	-2
S6+	6
loop_
_atom_site_label
_atom_site_type_symbol
_atom_site_symmetry_multiplicity
_atom_site_Wyckoff_symbol
_atom_site_fract_x
_atom_site_fract_y
_atom_site_fract_z
_atom_site_occupancy
_atom_site_attached_hydrogens
_atom_site_U_iso_or_equiv
Cs1 Cs1+ 4 b 0.5 0.5 0.5 1. 0 0 
Al1 Al3+ 4 a 0 0 0 1. 0 0 
S1 S6+ 8 c 0.32841(9) 0.32841(9) 0.32841(9) 1. 0 0 
O1 O2- 8 c 0.2593(3) 0.2593(3) 0.2593(3) 1. 0 0 
O2 O2- 24 d 0.2790(3) 0.3403(3) 0.4362(3) 1. 0 0 
O3 O2- 24 d 0.0503(4) 0.2152(3) 0.3426(4) 1. 0 0 
O4 O2- 24 d 0.1518(3) -.0022(3) -.0002(3) 1. 0 0 
H1 H1+ 24 d 0.010(6) 0.232(6) 0.277(7) 1. 0 0.048 
H2 H1+ 24 d 0.109(6) 0.225(6) 0.323(6) 1. 0 0.048 
H3 H1+ 24 d 0.198(6) -.051(6) 0.017(5) 1. 0 0.038 
H4 H1+ 24 d 0.187(6) 0.045(6) -.018(5) 1. 0 0.038 

loop_
_atom_site_aniso_label
_atom_site_aniso_type_symbol
_atom_site_aniso_U_11
_atom_site_aniso_U_22
_atom_site_aniso_U_33
_atom_site_aniso_U_12
_atom_site_aniso_U_13
_atom_site_aniso_U_23
Cs1 Cs1+ 0.0310(3) 0.0310(3) 0.0310(3) -.0035(2) -.0035(3) -.0035(2)
Al1 Al3+ 0.0175(5) 0.0175(5) 0.0175(5) 0.0033(9) 0.0033(9) 0.0033(9)
S1 S6+ 0.0183(4) 0.0183(4) 0.0183(4) 0.0026(4) 0.0026(4) 0.0026(4)
O1 O2- 0.0362(2) 0.0362(2) 0.0362(2) -.0066(2) -.0066(2) -.0066(2)
O2 O2- 0.039(2) 0.034(2) 0.020(2) 0.005(2) 0.013(2) 0.002(2)
O3 O2- 0.030(2) 0.039(2) 0.028(2) -.001(2) 0.001(2) -.004(2)
O4 O2- 0.016(1) 0.025(1) 0.034(2) 0.004(2) 0.002(2) 0.007(2)
#End of data_201215-ICSD


