data_414639-ICSD
#?2014 by Fachinformationszentrum Karlsruhe, and the U.S. Secretary of 
#Commerce on behalf of the United States.  All rights reserved.
_database_code_ICSD                414639
_audit_creation_date               2005/10/01
_chemical_name_systematic
;
Barium Potassium Tetrasulfidophosphate
;
_chemical_formula_structural       'Ba K P S4'
_chemical_formula_sum              'Ba1 K1 P1 S4'
_publ_section_title
;
Neue Chalcogenophosphate: KBaPS4, KBaPSe4 und Ba3PO4PSe4
;
loop_
_citation_id
_citation_journal_abbrev
_citation_year
_citation_journal_volume
_citation_page_first
_citation_page_last
_citation_journal_id_ASTM
primary 'Zeitschrift fuer Naturforschung, B: Chemical Sciences'
 2005 60 431 436 ZNBSEN
_publ_author_name                  'Joergens, S.;Mewis, A.'
_cell_length_a                     11.587(2)
_cell_length_b                     6.7000(10)
_cell_length_c                     10.118(2)
_cell_angle_alpha                  90.
_cell_angle_beta                   90.
_cell_angle_gamma                  90.
_cell_volume                       785.49
_cell_formula_units_Z              4
_symmetry_space_group_name_H-M     'P n m a'
_symmetry_Int_Tables_number        62
_refine_ls_R_factor_all            .032
loop_
_symmetry_equiv_pos_site_id
_symmetry_equiv_pos_as_xyz
  1	'x+.5, y, -z+.5'
  2	'x, -y+.5, z'
  3	'-x+.5, y+.5, z+.5'
  4	'-x, -y, -z'
  5	'-x+.5, -y, z+.5'
  6	'-x, y+.5, -z'
  7	'x+.5, -y+.5, -z+.5'
  8	'x, y, z'
loop_
_atom_type_symbol
_atom_type_oxidation_number
Ba2+	2
K1+	1
P5+	5
S2-	-2
loop_
_atom_site_label
_atom_site_type_symbol
_atom_site_symmetry_multiplicity
_atom_site_Wyckoff_symbol
_atom_site_fract_x
_atom_site_fract_y
_atom_site_fract_z
_atom_site_occupancy
_atom_site_attached_hydrogens
_atom_site_U_iso_or_equiv
Ba1 Ba2+ 4 c 0.14784(2) 0.2500 0.89087(3) 1 0 0.02043(13) 
K1 K1+ 4 c 0.0916(2) 0.2500 0.3383(2) 1 0 0.0655(6) 
P1 P5+ 4 c 0.81409(11) 0.2500 0.89784(11) 1 0 0.0199(2) 
S1 S2- 4 c 0.41504(11) 0.2500 0.77002(13) 1 0 0.0347(3) 
S2 S2- 8 d 0.28801(9) 0.99703(16) 0.10871(10) 1 0 0.0365(3) 
S3 S2- 4 c 0.91165(10) 0.2500 0.06857(11) 1 0 0.0230(2) 

loop_
_atom_site_aniso_label
_atom_site_aniso_type_symbol
_atom_site_aniso_U_11
_atom_site_aniso_U_22
_atom_site_aniso_U_33
_atom_site_aniso_U_12
_atom_site_aniso_U_13
_atom_site_aniso_U_23
Ba1 Ba2+ 0.01954(17) 0.02302(19) 0.01871(17) 0.000 0.00024(9) 0.000
K1 K1+ 0.0946(15) 0.0452(10) 0.0567(10) 0.000 -0.0349(10) 0.000
P1 P5+ 0.0224(5) 0.0185(6) 0.0188(5) 0.000 -0.0029(4) 0.000
S1 S2- 0.0246(6) 0.0609(10) 0.0185(5) 0.000 0.0015(4) 0.000
S2 S2- 0.0443(5) 0.0251(5) 0.0400(5) -0.0122(4) -0.0184(4) 0.0098(4)
S3 S2- 0.0263(5) 0.0264(6) 0.0163(5) 0.000 -0.0036(4) 0.000
#End of data_414639-ICSD


