data_34665-ICSD
#?2014 by Fachinformationszentrum Karlsruhe, and the U.S. Secretary of 
#Commerce on behalf of the United States.  All rights reserved.
_database_code_ICSD                34665
_audit_creation_date               1986/08/12
_audit_update_record               2010/02/01
_chemical_name_systematic
;
Octasodium Tecto-diberyllodialumooctasilicate Dichloride
;
_chemical_formula_structural       'Na8 (Be2 Al2 Si8 O24) Cl2'
_chemical_formula_sum              'Al2 Be2 Cl2 Na8 O24 Si8'
_chemical_name_mineral             Tugtupite
_publ_section_title
;
The crystal structure of tugtupite - a new mineral, Na8 Al2 Be2 Si8 
O24 (Cl, S)2
;
loop_
_citation_id
_citation_journal_abbrev
_citation_year
_citation_journal_volume
_citation_page_first
_citation_page_last
_citation_journal_id_ASTM
primary 'Acta Crystallographica (1,1948-23,1967)' 1966 20 812 816 ACCRA9
_publ_author_name                  'Danot, M.'
_cell_length_a                     8.583(4)
_cell_length_b                     8.583(4)
_cell_length_c                     8.817(4)
_cell_angle_alpha                  90.
_cell_angle_beta                   90.
_cell_angle_gamma                  90.
_cell_volume                       649.53
_cell_formula_units_Z              1
_symmetry_space_group_name_H-M     'I -4'
_symmetry_Int_Tables_number        82
_refine_ls_R_factor_all            .089
loop_
_symmetry_equiv_pos_site_id
_symmetry_equiv_pos_as_xyz
  1	'-y, x, -z'
  2	'y, -x, -z'
  3	'-x, -y, z'
  4	'x, y, z'
  5	'-y+.5, x+.5, -z+.5'
  6	'y+.5, -x+.5, -z+.5'
  7	'-x+.5, -y+.5, z+.5'
  8	'x+.5, y+.5, z+.5'
loop_
_atom_type_symbol
_atom_type_oxidation_number
Al3+	3
Be2+	2
Cl1-	-1
Na1+	1
O2-	-2
Si4+	4
loop_
_atom_site_label
_atom_site_type_symbol
_atom_site_symmetry_multiplicity
_atom_site_Wyckoff_symbol
_atom_site_fract_x
_atom_site_fract_y
_atom_site_fract_z
_atom_site_occupancy
_atom_site_attached_hydrogens
_atom_site_B_iso_or_equiv
O1 O2- 8 g 0.1471(8) 0.1332(8) 0.4431(13) 1. 0 0.63 
O2 O2- 8 g 0.3467(9) 0.0362(9) 0.6512(15) 1. 0 0.86 
O3 O2- 8 g 0.4261(8) 0.1506(8) 0.1347(14) 1. 0 0.79 
Na1 Na1+ 8 g 0.1575(5) 0.1970(5) 0.1815(8) 1. 0 1.12 
Si1 Si4+ 8 g 0.0134(3) 0.2535(3) 0.4956(5) 1. 0 0.22 
Be1 Be2+ 2 c 0 0.5 0.25 1. 0 0.66 
Al1 Al3+ 2 d 0 0.5 0.75 1. 0 0.26 
Cl1 Cl1- 2 a 0 0 0 1. 0 1.5 

#End of data_34665-ICSD


