data_59935-ICSD
#?2014 by Fachinformationszentrum Karlsruhe, and the U.S. Secretary of 
#Commerce on behalf of the United States.  All rights reserved.
_database_code_ICSD                59935
_audit_creation_date               2005/10/01
_audit_update_record               2011/02/01
_chemical_name_systematic          'Potassium Chlorate(III)'
_chemical_formula_structural       'K Cl O2'
_chemical_formula_sum              'Cl1 K1 O2'
_publ_section_title
;
Two alkali metal chlorites, Li Cl O2 and K Cl O2
;
loop_
_citation_id
_citation_journal_abbrev
_citation_year
_citation_journal_volume
_citation_page_first
_citation_page_last
_citation_journal_id_ASTM
primary 'Acta Crystallographica, Section C: Crystal Structure Communications'
 2005 61 i17 i19 ACSCEE
_publ_author_name                  'Smolentsev, A.I.;Naumov, D.Yu.'
_cell_length_a                     6.1446(9)
_cell_length_b                     6.3798(12)
_cell_length_c                     7.3755(19)
_cell_angle_alpha                  90.00
_cell_angle_beta                   90.00
_cell_angle_gamma                  90.00
_cell_volume                       289.13
_cell_formula_units_Z              4
_symmetry_space_group_name_H-M     'C m c m'
_symmetry_Int_Tables_number        63
_refine_ls_R_factor_all            .0341
loop_
_symmetry_equiv_pos_site_id
_symmetry_equiv_pos_as_xyz
  1	'-x, y, -z+.5'
  2	'-x, -y, z+.5'
  3	'-x, y, z'
  4	'-x, -y, -z'
  5	'x, -y, z+.5'
  6	'x, y, -z+.5'
  7	'x, -y, -z'
  8	'x, y, z'
  9	'-x+.5, y+.5, -z+.5'
 10	'-x+.5, -y+.5, z+.5'
 11	'-x+.5, y+.5, z'
 12	'-x+.5, -y+.5, -z'
 13	'x+.5, -y+.5, z+.5'
 14	'x+.5, y+.5, -z+.5'
 15	'x+.5, -y+.5, -z'
 16	'x+.5, y+.5, z'
loop_
_atom_type_symbol
_atom_type_oxidation_number
Cl3+	3
K1+	1
O2-	-2
loop_
_atom_site_label
_atom_site_type_symbol
_atom_site_symmetry_multiplicity
_atom_site_Wyckoff_symbol
_atom_site_fract_x
_atom_site_fract_y
_atom_site_fract_z
_atom_site_occupancy
_atom_site_attached_hydrogens
_atom_site_U_iso_or_equiv
K1 K1+ 4 a 0.0000 0.0000 0.0000 1 0 0.0329(4) 
Cl1 Cl3+ 4 c 0.5000 -0.03139(16) 0.2500 1 0 0.0261(4) 
O1 O2- 8 g 0.2937(4) -0.1753(4) 0.2500 1 0 0.0401(8) 

loop_
_atom_site_aniso_label
_atom_site_aniso_type_symbol
_atom_site_aniso_U_11
_atom_site_aniso_U_22
_atom_site_aniso_U_33
_atom_site_aniso_U_12
_atom_site_aniso_U_13
_atom_site_aniso_U_23
K1 K1+ 0.0328(6) 0.0358(6) 0.0303(6) 0.000 0.000 -0.0003(4)
Cl1 Cl3+ 0.0226(6) 0.0205(6) 0.0352(7) 0.000 0.000 0.000
O1 O2- 0.0263(11) 0.0290(12) 0.0651(17) -0.0063(10) 0.000 0.000
#End of data_59935-ICSD


