data_100456-ICSD
#?2014 by Fachinformationszentrum Karlsruhe, and the U.S. Secretary of 
#Commerce on behalf of the United States.  All rights reserved.
_database_code_ICSD                100456
_audit_creation_date               1980/01/01
_audit_update_record               2007/08/01
_chemical_name_systematic          'Dialuminium Silicate Oxide'
_chemical_formula_structural       'Al2 (Si O4) O'
_chemical_formula_sum              'Al2 O5 Si1'
_chemical_name_mineral             Kyanite
_publ_section_title
;
Thermal expansion and high temperature crystal chemistry of the Al2 
Si O5 polymorphs
;
loop_
_citation_id
_citation_journal_abbrev
_citation_year
_citation_journal_volume
_citation_page_first
_citation_page_last
_citation_journal_id_ASTM
primary 'American Mineralogist' 1979 64 573 586 AMMIAY
2
;
Zeitschrift fuer Kristallographie, Kristallgeometrie, Kristallphysik, 
Kristallchemie (-144,1977)
;
 1963 118 337 360 ZEKGAX
3
;
Zeitschrift fuer Kristallographie, Kristallgeometrie, Kristallphysik, 
Kristallchemie (-144,1977)
;
 1929 71 117 130 ZEKGAX
_publ_author_name                  'Winter, J.K.;Ghose, S.'
_cell_length_a                     7.1423(8)
_cell_length_b                     7.8724(10)
_cell_length_c                     5.5968(6)
_cell_angle_alpha                  89.94(1)
_cell_angle_beta                   101.18(1)
_cell_angle_gamma                  105.99(1)
_cell_volume                       296.32
_cell_formula_units_Z              4
_symmetry_space_group_name_H-M     'P -1'
_symmetry_Int_Tables_number        2
_refine_ls_R_factor_all            .031
loop_
_symmetry_equiv_pos_site_id
_symmetry_equiv_pos_as_xyz
  1	'-x, -y, -z'
  2	'x, y, z'
loop_
_atom_type_symbol
_atom_type_oxidation_number
Al3+	3
O2-	-2
Si4+	4
loop_
_atom_site_label
_atom_site_type_symbol
_atom_site_symmetry_multiplicity
_atom_site_Wyckoff_symbol
_atom_site_fract_x
_atom_site_fract_y
_atom_site_fract_z
_atom_site_occupancy
_atom_site_attached_hydrogens
Al1 Al3+ 2 i 0.3259(1) 0.7041(1) 0.4584(1) 1. 0 
Al2 Al3+ 2 i 0.2976(1) 0.6990(1) 0.9505(1) 1. 0 
Al3 Al3+ 2 i 0.1000(1) 0.3859(1) 0.6403(1) 1. 0 
Al4 Al3+ 2 i 0.1127(1) 0.9181(1) 0.1655(1) 1. 0 
Si1 Si4+ 2 i 0.2961(1) 0.0651(1) 0.7068(1) 1. 0 
Si2 Si4+ 2 i 0.2909(1) 0.3315(1) 0.1892(1) 1. 0 
O1 O2- 2 i 0.1100(2) 0.1466(2) 0.1292(3) 1. 0 
O2 O2- 2 i 0.1237(2) 0.6862(2) 0.1819(3) 1. 0 
O3 O2- 2 i 0.2745(2) 0.4546(2) 0.9557(3) 1. 0 
O4 O2- 2 i 0.2828(2) 0.9353(2) 0.9345(3) 1. 0 
O5 O2- 2 i 0.1090(2) 0.1523(3) 0.6673(3) 1. 0 
O6 O2- 2 i 0.1227(2) 0.6300(2) 0.6388(3) 1. 0 
O7 O2- 2 i 0.2819(3) 0.4443(2) 0.4281(3) 1. 0 
O8 O2- 2 i 0.2915(3) 0.9479(2) 0.4665(3) 1. 0 
O9 O2- 2 i 0.5004(2) 0.2755(3) 0.2445(3) 1. 0 
O10 O2- 2 i 0.5014(2) 0.2305(2) 0.7551(3) 1. 0 

#End of data_100456-ICSD


