data_71756-ICSD
#?2014 by Fachinformationszentrum Karlsruhe, and the U.S. Secretary of 
#Commerce on behalf of the United States.  All rights reserved.
_database_code_ICSD                71756
_audit_creation_date               1993/08/22
_chemical_name_systematic
;
Thallium Aluminium Sulfide (3/13/21)
;
_chemical_formula_structural       'Tl3 Al13 S21'
_chemical_formula_sum              'Al13 S21 Tl3'
_publ_section_title
;
Preparation and crystal structure of Tl3Al13S21, a novel ternary 
sulfide structure type
;
loop_
_citation_id
_citation_journal_abbrev
_citation_year
_citation_journal_volume
_citation_page_first
_citation_page_last
_citation_journal_id_ASTM
primary 'Acta Chemica Scandinavica (43,1989-)' 1991 45 833 839 ACHSE7
_publ_author_name                  'Krebs, B.;Greiwing, H.'
_cell_length_a                     25.242(5)
_cell_length_b                     14.900(3)
_cell_length_c                     9.259(1)
_cell_angle_alpha                  90.
_cell_angle_beta                   103.81(1)
_cell_angle_gamma                  90.
_cell_volume                       3381.7
_cell_formula_units_Z              4
_symmetry_space_group_name_H-M     'C 1 m 1'
_symmetry_Int_Tables_number        8
_refine_ls_R_factor_all            .056
loop_
_symmetry_equiv_pos_site_id
_symmetry_equiv_pos_as_xyz
  1	'x, -y, z'
  2	'x, y, z'
  3	'x+.5, -y+.5, z'
  4	'x+.5, y+.5, z'
loop_
_atom_type_symbol
_atom_type_oxidation_number
Al3+	3
S2-	-2
Tl1+	1
loop_
_atom_site_label
_atom_site_type_symbol
_atom_site_symmetry_multiplicity
_atom_site_Wyckoff_symbol
_atom_site_fract_x
_atom_site_fract_y
_atom_site_fract_z
_atom_site_occupancy
_atom_site_attached_hydrogens
Tl1 Tl1+ 2 a 0.11343 0 0.0358 1. 0 
Tl2 Tl1+ 2 a 0.18200(13) 0 0.6229(3) 1. 0 
Tl3 Tl1+ 2 a 0.57864(11) 0 0.3752(3) 1. 0 
Tl4 Tl1+ 2 a 0.4499(1) 0 0.7159(3) 1. 0 
Tl5 Tl1+ 2 a 0.8870(1) 0 0.9662(3) 1. 0 
Tl6 Tl1+ 2 a 0.81822(12) 0 0.3975(3) 1. 0 
S1 S2- 2 a 0.0791(4) 0 0.3598(10) 1. 0 
S2 S2- 4 b 0.6969(3) 0.1172(6) 0.3779(7) 1. 0 
S3 S2- 4 b 0.9527(3) 0.1320(6) 0.3743(7) 1. 0 
S4 S2- 4 b 0.2013(3) 0.1226(6) 0.3526(8) 1. 0 
S5 S2- 4 b 0.4570(3) 0.1145(6) 0.3843(7) 1. 0 
S6 S2- 2 a 0.6347(4) 0 0.0385(11) 1. 0 
S7 S2- 4 b 0.5116(3) 0.1179(5) 0.0291(8) 1. 0 
S8 S2- 4 b 0.0795(3) 0.2498(5) 0.3729(7) 1. 0 
S9 S2- 4 b 0.1920(3) 0.2473(5) 0.7091(7) 1. 0 
S10 S2- 2 a 0.6908(4) 0 0.7045(10) 1. 0 
S11 S2- 4 b 0.0059(3) 0.1221(5) 0.0413(7) 1. 0 
S12 S2- 4 b 0.2595(3) 0.1312(6) 0.0317(7) 1. 0 
S13 S2- 4 b 0.6366(3) 0.2476(5) 0.0396(8) 1. 0 
S14 S2- 2 a 0.9388(4) 0 0.687(1) 1. 0 
S15 S2- 4 b 0.8166(3) 0.1203(5) 0.6920(8) 1. 0 
S16 S2- 2 a 0.3273(4) 0 0.3676(10) 1. 0 
S17 S2- 4 b 0.3222(3) 0.1207(5) 0.7040(7) 1. 0 
S18 S2- 4 b 0.9424(3) 0.2461(5) 0.7093(7) 1. 0 
S19 S2- 4 b 0.5665(3) 0.1215(5) 0.6938(8) 1. 0 
S20 S2- 4 b 0.3887(3) 0.2478(6) 0.0457(8) 1. 0 
S21 S2- 4 b 0.3308(3) 0.2489(6) 0.3731(7) 1. 0 
S22 S2- 2 a 0.3844(4) 0 0.0341(10) 1. 0 
S23 S2- 4 b 0.7659(3) 0.1186(6) 0.0429(8) 1. 0 
S24 S2- 4 b 0.0708(3) 0.1216(5) 0.7072(8) 1. 0 
Al1 Al3+ 4 b 0.5843(3) 0.1241(6) 0.9382(8) 1. 0 
Al2 Al3+ 4 b 0.7267(3) 0.1272(6) 0.6202(8) 1. 0 
Al3 Al3+ 4 b 0.5976(3) 0.2491(7) 0.6289(8) 1. 0 
Al4 Al3+ 4 b 0.6598(3) 0.2471(7) 0.2970(8) 1. 0 
Al5 Al3+ 4 b 0.0302(3) 0.1238(6) 0.2868(9) 1. 0 
Al6 Al3+ 2 a 0.7142(4) 0 0.9588(11) 1. 0 
Al7 Al3+ 4 b 0.7152(3) 0.2350(6) 0.9621(9) 1. 0 
Al8 Al3+ 4 b 0.8489(3) 0.2478(6) 0.6315(8) 1. 0 
Al9 Al3+ 2 a 0.4069(4) 0 0.2862(12) 1. 0 
Al10 Al3+ 4 b 0.2787(3) 0.1270(6) 0.2854(8) 1. 0 
Al11 Al3+ 4 b 0.9807(3) 0.1204(6) 0.6320(8) 1. 0 
Al12 Al3+ 4 b 0.3372(3) 0.1293(6) 0.9457(8) 1. 0 
Al13 Al3+ 4 b 0.4694(3) 0.2469(6) 0.9658(8) 1. 0 
Al14 Al3+ 4 b 0.4110(3) 0.2349(6) 0.3004(8) 1. 0 

loop_
_atom_site_aniso_label
_atom_site_aniso_type_symbol
_atom_site_aniso_U_11
_atom_site_aniso_U_22
_atom_site_aniso_U_33
_atom_site_aniso_U_12
_atom_site_aniso_U_13
_atom_site_aniso_U_23
Tl1 Tl1+ 0.0465(11) 0.068(2) 0.0593(12) 0 0.0245(10) 0
Tl2 Tl1+ 0.085(2) 0.060(2) 0.0318(9) 0 -.0022(10) 0
Tl3 Tl1+ 0.0495(11) 0.063(2) 0.0687(12) 0 0.0131(11) 0
Tl4 Tl1+ 0.0456(11) 0.071(2) 0.0427(10) 0 0.0012(9) 0
Tl5 Tl1+ 0.0588(12) 0.058(2) 0.0358(10) 0 0.0076(9) 0
Tl6 Tl1+ 0.0650(13) 0.062(2) 0.0567(11) 0 0.0282(11) 0
S1 S2- 0.026(5) 0.027(7) 0.024(4) 0 0.001(4) 0
S2 S2- 0.035(4) 0.031(5) 0.021(3) 0.005(4) 0.002(3) 0.004(3)
S3 S2- 0.023(3) 0.035(5) 0.023(3) 0.007(3) 0.002(3) 0.000(3)
S4 S2- 0.020(3) 0.032(5) 0.036(4) 0.001(3) 0.007(3) 0.011(3)
S5 S2- 0.020(3) 0.040(5) 0.023(3) -.005(3) -.003(3) -.004(3)
S6 S2- 0.022(4) 0.027(7) 0.022(4) 0 0.003(4) 0
S7 S2- 0.019(3) 0.029(4) 0.030(4) 0.004(4) 0.004(3) 0.007(3)
S8 S2- 0.018(3) 0.038(5) 0.021(3) -.001(3) 0.000(3) -.003(3)
S9 S2- 0.023(3) 0.020(4) 0.019(3) 0.005(3) 0.002(3) 0.000(3)
S10 S2- 0.030(5) 0.035(7) 0.014(4) 0 0.004(4) 0
S11 S2- 0.031(4) 0.028(4) 0.016(3) 0.004(3) 0.002(3) 0.000(3)
S12 S2- 0.016(3) 0.032(5) 0.023(3) 0.000(3) 0.004(3) 0.007(3)
S13 S2- 0.022(3) 0.021(4) 0.024(3) 0.003(3) -.001(3) -.004(3)
S14 S2- 0.028(6) 0.018(7) 0.031(5) 0 0.008(5) 0
S15 S2- 0.020(3) 0.029(5) 0.031(4) -.006(4) 0.003(3) 0.005(3)
S16 S2- 0.017(4) 0.045(8) 0.020(4) 0 0.001(4) 0
S17 S2- 0.027(3) 0.026(4) 0.021(3) -.002(3) 0.003(3) -.001(3)
S18 S2- 0.023(3) 0.029(5) 0.019(3) -.002(3) 0.004(3) 0.002(3)
S19 S2- 0.032(4) 0.017(4) 0.025(3) -.002(3) 0.001(3) 0.004(3)
S20 S2- 0.018(3) 0.034(5) 0.023(3) 0.000(3) 0.001(3) -.003(3)
S21 S2- 0.021(3) 0.041(5) 0.018(3) -.003(3) 0.004(3) -.001(3)
S22 S2- 0.019(4) 0.020(6) 0.019(4) 0 0.001(4) 0
S23 S2- 0.025(4) 0.031(5) 0.027(3) -.005(3) -.003(3) -.001(3)
S24 S2- 0.022(3) 0.022(4) 0.028(3) 0.000(3) 0.007(3) 0.002(3)
Al1 Al3+ 0.020(3) 0.023(5) 0.025(3) 0.000(3) 0.001(3) 0.001(3)
Al2 Al3+ 0.022(3) 0.025(5) 0.023(3) -.003(4) -.003(3) 0.005(3)
Al3 Al3+ 0.021(4) 0.040(6) 0.019(4) 0.006(4) 0.003(3) 0.004(4)
Al4 Al3+ 0.020(4) 0.038(6) 0.022(4) 0.000(4) 0.002(3) -.007(4)
Al5 Al3+ 0.019(3) 0.027(5) 0.030(3) -.001(4) 0.004(3) -.005(4)
Al6 Al3+ 0.026(5) 0.019(7) 0.028(5) 0 0.004(4) 0
Al7 Al3+ 0.026(4) 0.032(6) 0.021(4) -.003(4) 0.001(3) -.005(4)
Al8 Al3+ 0.019(3) 0.030(5) 0.022(3) 0.001(4) 0.003(3) -.002(3)
Al9 Al3+ 0.022(5) 0.021(7) 0.036(6) 0 0.0105(5) 0
Al10 Al3+ 0.021(3) 0.033(6) 0.023(3) -.002(4) 0.003(3) 0.005(4)
Al11 Al3+ 0.022(3) 0.026(5) 0.026(3) 0.002(4) 0.003(3) 0.000(3)
Al12 Al3+ 0.021(3) 0.027(5) 0.028(4) -.001(4) 0.004(3) 0.002(3)
Al13 Al3+ 0.020(4) 0.023(5) 0.023(4) 0.004(3) 0.003(3) 0.000(3)
Al14 Al3+ 0.015(3) 0.024(5) 0.022(4) -.006(3) -.002(3) -.003(3)
#End of data_71756-ICSD


