data_24183-ICSD
#?2014 by Fachinformationszentrum Karlsruhe, and the U.S. Secretary of 
#Commerce on behalf of the United States.  All rights reserved.
_database_code_ICSD                24183
_audit_creation_date               1980/01/01
_audit_update_record               2006/04/01
_chemical_name_systematic          'Dipotassium Sulfate(VI) - Beta'
_chemical_formula_structural       'K2 (S O4)'
_chemical_formula_sum              'K2 O4 S1'
_publ_section_title
;
Structure cristalline de la forme 'basse temperature' du sulfate de 
potassium K2 S O4-beta
;
loop_
_citation_id
_citation_journal_abbrev
_citation_year
_citation_journal_volume
_citation_page_first
_citation_page_last
_citation_journal_id_ASTM
primary 'Bulletin de la Societe Chimique de France (Vol=Year)'
 1968 1968 105 112 BSCFAS
2 'Golden Book of Phase Transitions, Wroclaw' 2002 1 1 123 GBOPT5
_publ_author_name                  'Gaultier, M.;Pannetier, G.'
_cell_length_a                     7.485(1)
_cell_length_b                     10.067(2)
_cell_length_c                     5.726(1)
_cell_angle_alpha                  90.
_cell_angle_beta                   90.
_cell_angle_gamma                  90.
_cell_volume                       431.46
_cell_formula_units_Z              4
_symmetry_space_group_name_H-M     'P n a m'
_symmetry_Int_Tables_number        62
_refine_ls_R_factor_all            .065
loop_
_symmetry_equiv_pos_site_id
_symmetry_equiv_pos_as_xyz
  1	'x+.5, -y+.5, z'
  2	'x, y, -z+.5'
  3	'-x+.5, y+.5, z+.5'
  4	'-x, -y, -z'
  5	'-x+.5, y+.5, -z'
  6	'-x, -y, z+.5'
  7	'x+.5, -y+.5, -z+.5'
  8	'x, y, z'
loop_
_atom_type_symbol
_atom_type_oxidation_number
K1+	1
O2-	-2
S6+	6
loop_
_atom_site_label
_atom_site_type_symbol
_atom_site_symmetry_multiplicity
_atom_site_Wyckoff_symbol
_atom_site_fract_x
_atom_site_fract_y
_atom_site_fract_z
_atom_site_occupancy
_atom_site_attached_hydrogens
K1 K1+ 4 c 0.17547(59) 0.08834(41) 0.25 1. 0 
K2 K1+ 4 c -.00941(50) 0.70522(38) 0.25 1. 0 
S1 S6+ 4 c 0.23147(57) 0.42075(38) 0.25 1. 0 
O1 O2- 4 c 0.0405(23) 0.4157(16) 0.25 1. 0 
O2 O2- 4 c 0.2899(24) 0.5576(14) 0.25 1. 0 
O3 O2- 8 d 0.2996(15) 0.3529(11) 0.04258(88) 1. 0 

#End of data_24183-ICSD


