data_659172-ICSD
#?2014 by Fachinformationszentrum Karlsruhe, and the U.S. Secretary of 
#Commerce on behalf of the United States.  All rights reserved.
_database_code_ICSD                659172
_audit_creation_date               2012/08/01
_chemical_name_systematic
;
Barium Lanthanum Silver Selenide (1/1/1/3)
;
_chemical_formula_structural       'Ba La Ag Se3'
_chemical_formula_sum              'Ag1 Ba1 La1 Se3'
_publ_section_title
;
New quaternary chalcogenides Ba Ln M Q3 (Ln = rare earth or Sc; M = 
Cu, Ag; Q= S, Se): II. Structure and property variation vs rare-earth 
element
;
loop_
_citation_id
_citation_journal_abbrev
_citation_year
_citation_journal_volume
_citation_journal_issue
_citation_page_first
_citation_page_last
_citation_journal_id_ASTM
primary 'Journal of Solid State Chemistry' 1994 110 2 337 344 JSSCBI
_publ_author_name                  'Ping Wu;Christuk, A.E.;Ibers, J.A.'
_cell_length_a                     4.40(1)
_cell_length_b                     14.34(2)
_cell_length_c                     11.16(2)
_cell_angle_alpha                  90.0
_cell_angle_beta                   90.0
_cell_angle_gamma                  90.0
_cell_volume                       704.15
_cell_formula_units_Z              4
_symmetry_space_group_name_H-M     'C m c m'
_symmetry_Int_Tables_number        63
loop_
_symmetry_equiv_pos_site_id
_symmetry_equiv_pos_as_xyz
  1	'-x, y, -z+.5'
  2	'-x, -y, z+.5'
  3	'-x, y, z'
  4	'-x, -y, -z'
  5	'x, -y, z+.5'
  6	'x, y, -z+.5'
  7	'x, -y, -z'
  8	'x, y, z'
  9	'-x+.5, y+.5, -z+.5'
 10	'-x+.5, -y+.5, z+.5'
 11	'-x+.5, y+.5, z'
 12	'-x+.5, -y+.5, -z'
 13	'x+.5, -y+.5, z+.5'
 14	'x+.5, y+.5, -z+.5'
 15	'x+.5, -y+.5, -z'
 16	'x+.5, y+.5, z'
loop_
_atom_type_symbol
_atom_type_oxidation_number
Ag1+	1
Ba2+	2
La3+	3
Se2-	-2
loop_
_atom_site_label
_atom_site_type_symbol
_atom_site_symmetry_multiplicity
_atom_site_Wyckoff_symbol
_atom_site_fract_x
_atom_site_fract_y
_atom_site_fract_z
_atom_site_occupancy
_atom_site_attached_hydrogens
Ba1 Ba2+ 4 c 0 0.747 0.25 1. 0 
Ag1 Ag1+ 4 c 0 0.465 0.25 1. 0 
La1 La3+ 4 a 0 0 0 1. 0 
Se1 Se2- 8 f 0 0.375 0.051 1. 0 
Se2 Se2- 4 c 0 0.067 0.25 1. 0 

#End of data_659172-ICSD


