data_20609-ICSD
#?2014 by Fachinformationszentrum Karlsruhe, and the U.S. Secretary of 
#Commerce on behalf of the United States.  All rights reserved.
_database_code_ICSD                20609
_audit_creation_date               1983/12/31
_audit_update_record               2010/02/01
_chemical_name_systematic          'Dicalcium Divanadate'
_chemical_formula_structural       'Ca2 (V2 O7)'
_chemical_formula_sum              'Ca2 O7 V2'
_publ_section_title
;
The crystal structure of calcium pyrovanadate
;
loop_
_citation_id
_citation_journal_abbrev
_citation_year
_citation_journal_volume
_citation_page_first
_citation_page_last
_citation_journal_id_ASTM
primary 'Doklady Akademii Nauk SSSR' 1983 270 886 887 DANKAS
_publ_author_name
;
Trunov, V.K.;Velikodnyi, Yu.A.;Murasheva, E.V.;Zhuravlev, V.D.
;
_cell_length_a                     6.667(2)
_cell_length_b                     6.921(1)
_cell_length_c                     7.018(3)
_cell_angle_alpha                  86.38(2)
_cell_angle_beta                   63.84(3)
_cell_angle_gamma                  83.64(2)
_cell_volume                       288.83
_cell_formula_units_Z              2
_symmetry_space_group_name_H-M     'P -1'
_symmetry_Int_Tables_number        2
_refine_ls_R_factor_all            .031
loop_
_symmetry_equiv_pos_site_id
_symmetry_equiv_pos_as_xyz
  1	'-x, -y, -z'
  2	'x, y, z'
loop_
_atom_type_symbol
_atom_type_oxidation_number
Ca2+	2
O2-	-2
V5+	5
loop_
_atom_site_label
_atom_site_type_symbol
_atom_site_symmetry_multiplicity
_atom_site_Wyckoff_symbol
_atom_site_fract_x
_atom_site_fract_y
_atom_site_fract_z
_atom_site_occupancy
_atom_site_attached_hydrogens
V1 V5+ 2 i 0.80403(7) 0.33495(7) 0.23202(7) 1. 0 
V2 V5+ 2 i 0.27546(7) 0.05424(7) 0.15457(7) 1. 0 
Ca1 Ca2+ 2 i 0.2563(1) 0.1585(1) 0.6745(1) 1. 0 
Ca2 Ca2+ 2 i 0.7297(1) 0.4375(1) 0.7349(1) 1. 0 
O1 O2- 2 i 0.0459(3) 0.1984(3) 0.0625(3) 1. 0 
O2 O2- 2 i 0.4651(3) 0.1013(3) -.1306(3) 1. 0 
O3 O2- 2 i 0.8693(3) 0.5090(3) 0.3577(3) 1. 0 
O4 O2- 2 i 0.1016(3) -.1246(3) 0.2678(4) 1. 0 
O5 O2- 2 i 0.6585(3) 0.4459(3) 0.1018(3) 1. 0 
O6 O2- 2 i 0.6396(3) 0.1849(4) 0.4243(3) 1. 0 
O7 O2- 2 i 0.2501(3) 0.2180(3) 0.3275(3) 1. 0 

#End of data_20609-ICSD


