data_68382-ICSD
#?2014 by Fachinformationszentrum Karlsruhe, and the U.S. Secretary of 
#Commerce on behalf of the United States.  All rights reserved.
_database_code_ICSD                68382
_audit_creation_date               1991/07/10
_audit_update_record               2012/08/01
_chemical_name_systematic          'Zinc Germanate'
_chemical_formula_structural       'Zn2 (Ge O4)'
_chemical_formula_sum              'Ge1 O4 Zn2'
_publ_section_title
;
Refinement of crystal structure of Zn2GeO4
;
loop_
_citation_id
_citation_journal_abbrev
_citation_year
_citation_journal_volume
_citation_page_first
_citation_page_last
_citation_journal_id_ASTM
primary
;
Research Laboratory on Engineering Materials, Tokyo Institute of 
Technology: Report
;
 1987 12 7 12 RRLTDF
_publ_author_name
;
Oribe, A.;Tanaka, K.;Morikawa, H.;Marumo, F.
;
_cell_length_a                     14.284(1)
_cell_length_b                     14.284(1)
_cell_length_c                     9.547(1)
_cell_angle_alpha                  90.
_cell_angle_beta                   90.
_cell_angle_gamma                  120.
_cell_volume                       1686.93
_cell_formula_units_Z              18
_symmetry_space_group_name_H-M     'R -3 H'
_symmetry_Int_Tables_number        148
_refine_ls_R_factor_all            .0407
loop_
_symmetry_equiv_pos_site_id
_symmetry_equiv_pos_as_xyz
  1	'x-y, x, -z'
  2	'y, -x+y, -z'
  3	'-x, -y, -z'
  4	'-x+y, -x, z'
  5	'-y, x-y, z'
  6	'x, y, z'
  7	'x-y+.6666, x+.3333, -z+.3333'
  8	'x-y+.3333, x+.6666, -z+.6666'
  9	'y+.6666, -x+y+.3333, -z+.3333'
 10	'y+.3333, -x+y+.6666, -z+.6666'
 11	'-x+.6666, -y+.3333, -z+.3333'
 12	'-x+.3333, -y+.6666, -z+.6666'
 13	'-x+y+.6666, -x+.3333, z+.3333'
 14	'-x+y+.3333, -x+.6666, z+.6666'
 15	'-y+.6666, x-y+.3333, z+.3333'
 16	'-y+.3333, x-y+.6666, z+.6666'
 17	'x+.6666, y+.3333, z+.3333'
 18	'x+.3333, y+.6666, z+.6666'
loop_
_atom_type_symbol
_atom_type_oxidation_number
Ge4+	4
O2-	-2
Zn2+	2
loop_
_atom_site_label
_atom_site_type_symbol
_atom_site_symmetry_multiplicity
_atom_site_Wyckoff_symbol
_atom_site_fract_x
_atom_site_fract_y
_atom_site_fract_z
_atom_site_occupancy
_atom_site_attached_hydrogens
_atom_site_B_iso_or_equiv
Ge1 Ge4+ 18 f 0.21447(8) 0.19452(8) 0.25016(11) 1. 0 0 
Zn1 Zn2+ 18 f 0.21647(10) 0.19118(11) 0.58283(14) 1. 0 0 
Zn2 Zn2+ 18 f 0.2110(1) 0.18925(10) 0.91558(13) 1. 0 0 
O1 O2- 18 f 0.20704(46) 0.12669(45) 0.09723(63) 1. 0 0.65(10) 
O2 O2- 18 f 0.20929(51) 0.12210(49) 0.4025(7) 1. 0 0.76(11) 
O3 O2- 18 f 0.21841(50) 0.11327(49) 0.74877(70) 1. 0 0.79(11) 
O4 O2- 18 f 0.32747(60) 0.32433(51) 0.25061(45) 1. 0 0.73(8) 

loop_
_atom_site_aniso_label
_atom_site_aniso_type_symbol
_atom_site_aniso_U_11
_atom_site_aniso_U_22
_atom_site_aniso_U_33
_atom_site_aniso_U_12
_atom_site_aniso_U_13
_atom_site_aniso_U_23
Ge1 Ge4+ 0.0047(4) 0.0054(3) 0.0024(3) 0.0026(3) 0.0000(3) 0.0004(3)
Zn1 Zn2+ 0.0095(4) 0.0086(5) 0.0073(5) 0.0052(4) 0.0011(4) 0.0004(3)
Zn2 Zn2+ 0.0110(4) 0.0080(5) 0.0045(5) 0.0044(3) -.0013(4) -.0010(3)
#End of data_68382-ICSD


