data_86066-ICSD
#?2014 by Fachinformationszentrum Karlsruhe, and the U.S. Secretary of 
#Commerce on behalf of the United States.  All rights reserved.
_database_code_ICSD                86066
_audit_creation_date               1999/11/30
_audit_update_record               2012/02/01
_chemical_name_systematic
;
Tetracalcium Barium Bis(dinitrocuprate(I))
;
_chemical_formula_structural       'Ca4 Ba (Cu N2)2'
_chemical_formula_sum              'Ba1 Ca4 Cu2 N4'
_publ_section_title
;
Breaking up chains: the nitridocuprates(I) Ba (Cu N), Ba16 ((Cu 
N)8)(Cu2 N3) (Cu3 N4) and Ca4 Ba (Cu N2)2
;
loop_
_citation_id
_citation_journal_abbrev
_citation_year
_citation_journal_volume
_citation_page_first
_citation_page_last
_citation_journal_id_ASTM
primary 'Journal of Alloys and Compounds' 1998 279 153 160 JALCEU
_publ_author_name                  'Niewa, R.;DiSalvo, F.J.'
_cell_length_a                     8.2366(4)
_cell_length_b                     8.2366(4)
_cell_length_c                     12.5731(6)
_cell_angle_alpha                  90.
_cell_angle_beta                   90.
_cell_angle_gamma                  90.
_cell_volume                       852.98
_cell_formula_units_Z              4
_symmetry_space_group_name_H-M     'P 4/n c c Z'
_symmetry_Int_Tables_number        130
_refine_ls_R_factor_all            .025
loop_
_symmetry_equiv_pos_site_id
_symmetry_equiv_pos_as_xyz
  1	'y+.5, x+.5, -z+.5'
  2	'-y, x+.5, -z'
  3	'y+.5, -x, -z'
  4	'-y, -x, -z+.5'
  5	'x+.5, y+.5, -z'
  6	'-x, y+.5, -z+.5'
  7	'x+.5, -y, -z+.5'
  8	'-x, -y, -z'
  9	'-y+.5, -x+.5, z+.5'
 10	'y, -x+.5, z'
 11	'-y+.5, x, z'
 12	'y, x, z+.5'
 13	'-x+.5, -y+.5, z'
 14	'x, -y+.5, z+.5'
 15	'-x+.5, y, z+.5'
 16	'x, y, z'
loop_
_atom_type_symbol
_atom_type_oxidation_number
Ba2+	2
Ca2+	2
Cu1+	1
N3-	-3
loop_
_atom_site_label
_atom_site_type_symbol
_atom_site_symmetry_multiplicity
_atom_site_Wyckoff_symbol
_atom_site_fract_x
_atom_site_fract_y
_atom_site_fract_z
_atom_site_occupancy
_atom_site_attached_hydrogens
Ba1 Ba2+ 4 c 0.25 0.25 0.15455(5) 1. 0 
Ca1 Ca2+ 16 g 0.0829(1) 0.6310(2) 0.08758(8) 1. 0 
Cu1 Cu1+ 8 f 0.40360(8) 0.59640(8) 0.25 1. 0 
N1 N3- 16 g 0.5695(6) 0.1242(6) 0.1039(4) 1. 0 

loop_
_atom_site_aniso_label
_atom_site_aniso_type_symbol
_atom_site_aniso_U_11
_atom_site_aniso_U_22
_atom_site_aniso_U_33
_atom_site_aniso_U_12
_atom_site_aniso_U_13
_atom_site_aniso_U_23
Ba1 Ba2+ 0.0075(4) 0.0075(4) 0.0183(6) 0 0 0
Ca1 Ca2+ 0.0060(7) 0.0052(7) 0.0062(7) -.0011(5) -.0002(4) 0.0001(4)
Cu1 Cu1+ 0.0076(5) 0.0076(5) 0.0040(6) -.0004(4) -.0001(3) -.0001(3)
N1 N3- 0.004(2) 0.009(3) 0.006(2) -.001(2) -.002(2) -.001(2)
#End of data_86066-ICSD


