data_67828-ICSD
#?2014 by Fachinformationszentrum Karlsruhe, and the U.S. Secretary of 
#Commerce on behalf of the United States.  All rights reserved.
_database_code_ICSD                67828
_audit_creation_date               1995/01/10
_chemical_name_systematic
;
Potassium Ruthenium(II) Sulfate Hexahydrate
;
_chemical_formula_structural       'K2 Ru (S O4)2 (H2 O)6'
_chemical_formula_sum              'H12 K2 O14 Ru1 S2'
_publ_section_title
;
Analysis of atomic displacement parameters and molecular motion in 
crystals. Part 2. X-ray crystal structure of K2Ru(SO4)2 * H2O at 160 
K and 295 K
;
loop_
_citation_id
_citation_journal_abbrev
_citation_year
_citation_journal_volume
_citation_journal_issue
_citation_page_first
_citation_page_last
_citation_journal_id_ASTM
primary 'Structural Chemistry' 1993 4 1 23 31 STCHES
_publ_author_name                  'Buergi, H.B.;Raselli, A.'
_cell_length_a                     6.1402(7)
_cell_length_b                     12.274(2)
_cell_length_c                     8.957(1)
_cell_angle_alpha                  90.
_cell_angle_beta                   105.25(1)
_cell_angle_gamma                  90.
_cell_volume                       651.27
_cell_formula_units_Z              2
_symmetry_space_group_name_H-M     'P 1 21/c 1'
_symmetry_Int_Tables_number        14
_refine_ls_R_factor_all            .019
loop_
_symmetry_equiv_pos_site_id
_symmetry_equiv_pos_as_xyz
  1	'x, -y+.5, z+.5'
  2	'-x, -y, -z'
  3	'-x, y+.5, -z+.5'
  4	'x, y, z'
loop_
_atom_type_symbol
_atom_type_oxidation_number
H1+	1
K1+	1
O2-	-2
Ru2+	2
S6+	6
loop_
_atom_site_label
_atom_site_type_symbol
_atom_site_symmetry_multiplicity
_atom_site_Wyckoff_symbol
_atom_site_fract_x
_atom_site_fract_y
_atom_site_fract_z
_atom_site_occupancy
_atom_site_attached_hydrogens
_atom_site_U_iso_or_equiv
Ru1 Ru2+ 2 a 0 0 0 1. 0 0 
O1 O2- 4 e -.1677(2) 0.1133(1) -.1721(1) 1. 0 0 
O2 O2- 4 e 0.0395(2) -.1163(1) -.1676(1) 1. 0 0 
O3 O2- 4 e 0.3154(2) 0.0689(1) 0.0056(2) 1. 0 0 
S1 S6+ 4 e 0.27077(6) 0.36627(3) 0.08522(4) 1. 0 0 
O4 O2- 4 e 0.0502(3) 0.3270(1) 0.1018(2) 1. 0 0 
O5 O2- 4 e 0.3790(3) 0.4380(1) 0.2156(2) 1. 0 0 
O6 O2- 4 e 0.4235(2) 0.2729(1) 0.0855(3) 1. 0 0 
O7 O2- 4 e 0.2420(4) 0.4280(2) -.0590(2) 1. 0 0 
K1 K1+ 4 e 0.34816(8) 0.65338(4) 0.13993(6) 1. 0 0 
H1 H1+ 4 e -.2979 0.0858 -.2229 1. 0 0.0385 
H2 H1+ 4 e -.0859 0.119 -.2348 1. 0 0.0385 
H3 H1+ 4 e 0.0239 -.1806 -.1328 1. 0 0.0385 
H4 H1+ 4 e -.0355 -.1028 -.2568 1. 0 0.0385 
H5 H1+ 4 e 0.3186 0.1324 0.0167 1. 0 0.0385 
H6 H1+ 4 e 0.3564 0.058 -.0806 1. 0 0.0385 

loop_
_atom_site_aniso_label
_atom_site_aniso_type_symbol
_atom_site_aniso_U_11
_atom_site_aniso_U_22
_atom_site_aniso_U_33
_atom_site_aniso_U_12
_atom_site_aniso_U_13
_atom_site_aniso_U_23
Ru1 Ru2+ 0.0130(1) 0.0127(1) 0.0112(1) 0.00010(4) 0.00306(4) 0.00074(4)
O1 O2- 0.0190(4) 0.0227(5) 0.0185(4) 0.0014(3) 0.0021(3) 0.0053(3)
O2 O2- 0.0234(5) 0.0193(4) 0.0179(4) 0.0004(3) 0.0058(4) -.0022(3)
O3 O2- 0.0188(4) 0.0192(4) 0.0269(5) -.0014(3) 0.0083(4) -.0001(4)
S1 S6+ 0.0171(2) 0.0176(2) 0.0149(1) -.0019(1) 0.0039(1) -.0022(1)
O4 O2- 0.0187(5) 0.0249(5) 0.0366(7) -.0039(4) 0.0102(5) -.0036(5)
O5 O2- 0.0266(5) 0.0262(5) 0.0196(5) -.0059(4) 0.0060(4) -.0085(4)
O6 O2- 0.0235(5) 0.0239(6) 0.0477(9) 0.0015(4) 0.0095(6) -.0113(6)
O7 O2- 0.0423(9) 0.047(1) 0.0187(5) -.0109(48) 0.0009(5) 0.0096(6)
K1 K1+ 0.0286(2) 0.0305(2) 0.0318(2) -.0002(1) 0.0123(1) 0.0019(1)
#End of data_67828-ICSD


