data_426905-ICSD
#?2014 by Fachinformationszentrum Karlsruhe, and the U.S. Secretary of 
#Commerce on behalf of the United States.  All rights reserved.
_database_code_ICSD                426905
_audit_creation_date               2014/08/01
_chemical_name_systematic
;
Tetrapotassium Hexathiodiphosphate(IV)
;
_chemical_formula_structural       'K4 P2 S6'
_chemical_formula_sum              'K4 P2 S6'
_publ_section_title
;
Synthesis and structural characterization of the alkali 
thiophosphates Na2 P2 S6, Na4 P2 S6, K4 P2 S6, and Rb4 P2 S6
;
loop_
_citation_id
_citation_journal_abbrev
_citation_year
_citation_journal_volume
_citation_journal_issue
_citation_page_first
_citation_page_last
_citation_journal_id_ASTM
primary 'Zeitschrift fuer Anorganische und Allgemeine Chemie (1950) (DE)'
 2014 640 5 689 692 ZAACAB
_publ_author_name
;
Kuhn, Alexander;Eger, Roland;Nuss, Juergen;Lotsch, Bettina V.
;
_cell_length_a                     13.243(3)
_cell_length_b                     11.946(2)
_cell_length_c                     8.3955(17)
_cell_angle_alpha                  90.00
_cell_angle_beta                   91.44(3)
_cell_angle_gamma                  90.00
_cell_volume                       1327.75
_cell_formula_units_Z              4
_symmetry_space_group_name_H-M     'P 1 21/c 1'
_symmetry_Int_Tables_number        14
_refine_ls_R_factor_all            .0285
loop_
_symmetry_equiv_pos_site_id
_symmetry_equiv_pos_as_xyz
  1	'x, -y+.5, z+.5'
  2	'-x, -y, -z'
  3	'-x, y+.5, -z+.5'
  4	'x, y, z'
loop_
_atom_type_symbol
_atom_type_oxidation_number
K1+	1
P4+	4
S2-	-2
loop_
_atom_site_label
_atom_site_type_symbol
_atom_site_symmetry_multiplicity
_atom_site_Wyckoff_symbol
_atom_site_fract_x
_atom_site_fract_y
_atom_site_fract_z
_atom_site_occupancy
_atom_site_attached_hydrogens
_atom_site_U_iso_or_equiv
P1 P4+ 4 e 0.42948(3) 0.49509(3) 0.07180(5) 1 0 0.01544(8) 
P2 P4+ 4 e 0.07084(3) 0.03075(3) 0.06265(5) 1 0 0.01432(8) 
S1 S2- 4 e 0.09489(3) 0.31203(3) 0.48057(5) 1 0 0.02198(9) 
S2 S2- 4 e 0.04473(3) 0.02986(4) 0.29898(5) 1 0 0.02253(9) 
S3 S2- 4 e 0.18266(3) 0.57567(3) 0.50127(5) 1 0 0.02233(9) 
S4 S2- 4 e 0.67494(3) 0.40548(3) 0.03897(5) 1 0 0.02259(9) 
S5 S2- 4 e 0.53590(4) 0.04537(4) 0.20518(5) 1 0 0.02903(10) 
S6 S2- 4 e 0.39051(4) 0.33097(3) 0.06123(6) 1 0 0.02482(9) 
K1 K1+ 4 e 0.08900(4) 0.73550(4) 0.77615(6) 1 0 0.03840(11) 
K2 K1+ 4 e 0.17670(4) 0.43124(4) 0.16029(5) 1 0 0.03404(10) 
K3 K1+ 4 e 0.56555(4) 0.30360(3) 0.36105(5) 1 0 0.03279(10) 
K4 K1+ 4 e 0.29740(4) 0.11368(4) 0.21367(6) 1 0 0.04002(12) 

loop_
_atom_site_aniso_label
_atom_site_aniso_type_symbol
_atom_site_aniso_U_11
_atom_site_aniso_U_22
_atom_site_aniso_U_33
_atom_site_aniso_U_12
_atom_site_aniso_U_13
_atom_site_aniso_U_23
P1 P4+ 0.01525(19) 0.01361(16) 0.01745(17) -0.00098(14) -0.00014(14) 
0.00097(13)
P2 P4+ 0.01428(19) 0.01357(16) 0.01506(16) -0.00177(14) -0.00088(13) 
-0.00091(13)
S1 S2- 0.0264(2) 0.01468(16) 0.02485(19) 0.00506(15) 0.00057(16) 
-0.00128(14)
S2 S2- 0.0264(2) 0.02654(19) 0.01459(16) -0.00220(17) -0.00105(15) 
-0.00157(14)
S3 S2- 0.0177(2) 0.02182(18) 0.0274(2) -0.00326(15) -0.00048(15) 
0.00454(15)
S4 S2- 0.0190(2) 0.01897(17) 0.0295(2) 0.00241(15) -0.00432(16) 0.00273(15)
S5 S2- 0.0384(3) 0.0312(2) 0.01737(18) -0.0060(2) -0.00146(17) 0.00467(16)
S6 S2- 0.0225(2) 0.01440(17) 0.0376(2) -0.00348(15) 0.00244(17) 0.00344(16)
K1 K1+ 0.0444(3) 0.0298(2) 0.0409(2) -0.00077(19) -0.0019(2) -0.01662(18)
K2 K1+ 0.0303(2) 0.0349(2) 0.0377(2) 0.00383(18) 0.01484(17) 0.00062(17)
K3 K1+ 0.0404(3) 0.02610(18) 0.0319(2) 0.00276(17) 0.00074(18) 0.00834(15)
K4 K1+ 0.0370(3) 0.0315(2) 0.0503(3) -0.01322(19) -0.0232(2) 0.01633(18)
#End of data_426905-ICSD


