data_39159-ICSD
#?2014 by Fachinformationszentrum Karlsruhe, and the U.S. Secretary of 
#Commerce on behalf of the United States.  All rights reserved.
_database_code_ICSD                39159
_audit_creation_date               1986/12/03
_audit_update_record               2007/08/01
_chemical_name_systematic          'Distrontium Zinc Digermanate'
_chemical_formula_structural       'Sr2 Zn (Ge2 O7)'
_chemical_formula_sum              'Ge2 O7 Sr2 Zn1'
_chemical_name_mineral             'Strontium-melilite, germanian'
_publ_section_title
;
The crystal structure of Sr2 Zn Ge2 O7
;
loop_
_citation_id
_citation_journal_abbrev
_citation_year
_citation_journal_volume
_citation_page_first
_citation_page_last
_citation_journal_id_ASTM
primary 'Kobutsugaku Zasshi (= Journal of the Mineralogical Society of Japan)'
 1982 15 331 341 KOBZAI
_publ_author_name
;
Ochi, Y.;Tanaka, K.;Morikawa, H.;Marumo, F.
;
_cell_length_a                     8.169(1)
_cell_length_b                     8.169(1)
_cell_length_c                     5.337(1)
_cell_angle_alpha                  90.
_cell_angle_beta                   90.
_cell_angle_gamma                  90.
_cell_volume                       356.15
_cell_formula_units_Z              2
_symmetry_space_group_name_H-M     'P -4 21 m'
_symmetry_Int_Tables_number        113
_refine_ls_R_factor_all            .023
loop_
_symmetry_equiv_pos_site_id
_symmetry_equiv_pos_as_xyz
  1	'-y+.5, -x+.5, z'
  2	'y, -x, -z'
  3	'y+.5, x+.5, z'
  4	'-y, x, -z'
  5	'x+.5, -y+.5, -z'
  6	'-x, -y, z'
  7	'-x+.5, y+.5, -z'
  8	'x, y, z'
loop_
_atom_type_symbol
_atom_type_oxidation_number
Ge4+	4
O2-	-2
Sr2+	2
Zn2+	2
loop_
_atom_site_label
_atom_site_type_symbol
_atom_site_symmetry_multiplicity
_atom_site_Wyckoff_symbol
_atom_site_fract_x
_atom_site_fract_y
_atom_site_fract_z
_atom_site_occupancy
_atom_site_attached_hydrogens
Sr1 Sr2+ 4 e 0.33482(5) 0.16518(5) 0.50656(12) 1. 0 
Zn1 Zn2+ 2 a 0 0 0 1. 0 
Ge1 Ge4+ 4 e 0.14245(6) 0.35755(6) -.04745(11) 1. 0 
O1 O2- 2 c 0.5 0 0.1765(13) 1. 0 
O2 O2- 4 e 0.13891(44) 0.36109(44) 0.27401(73) 1. 0 
O3 O2- 8 f 0.08236(49) 0.18014(44) -.20486(60) 1. 0 

loop_
_atom_site_aniso_label
_atom_site_aniso_type_symbol
_atom_site_aniso_U_11
_atom_site_aniso_U_22
_atom_site_aniso_U_33
_atom_site_aniso_U_12
_atom_site_aniso_U_13
_atom_site_aniso_U_23
Sr1 Sr2+ 0.0117(1) 0.0117(1) 0.0091(2) 0.0040(2) 0.0005(1) -.0005(1)
Zn1 Zn2+ 0.0077(2) 0.0077(2) 0.0101(3) 0 0 0
Ge1 Ge4+ 0.0071(1) 0.0071(1) 0.0059(2) 0.0003(2) 0.0001(1) -.0001(1)
O1 O2- 0.0167(18) 0.0167(18) 0.0089(22) -.0079(25) 0 0
O2 O2- 0.0153(11) 0.0153(11) 0.0059(13) 0.0049(17) -.0004(9) 0.0004(9)
O3 O2- 0.0240(17) 0.0094(11) 0.0099(11) -.0062(11) 0.0031(11) -.0019(10)
#End of data_39159-ICSD


