data_26407-ICSD
#?2014 by Fachinformationszentrum Karlsruhe, and the U.S. Secretary of 
#Commerce on behalf of the United States.  All rights reserved.
_database_code_ICSD                26407
_audit_creation_date               1981/12/31
_audit_update_record               2007/08/01
_chemical_name_systematic
;
Docosacalcium Octakis(silicate) Tetraoxide Disulfide
;
_chemical_formula_structural       'Ca22 (Si O4)8 O4 S2'
_chemical_formula_sum              'Ca22 O36 S2 Si8'
_chemical_name_mineral             Jasmundite
_publ_section_title
;
The structure of jasmundite, Ca22 (Si O4)8 O4 S2
;
loop_
_citation_id
_citation_journal_abbrev
_citation_year
_citation_journal_volume
_citation_page_first
_citation_page_last
_citation_journal_id_ASTM
primary 'Acta Crystallographica B (24,1968-38,1982)' 1981 37 803 806 ACBCAR
_publ_author_name                  'Dent Glasser, L.S.;Lee, C.-K.'
_cell_length_a                     10.461(1)
_cell_length_b                     10.461(1)
_cell_length_c                     8.813(1)
_cell_angle_alpha                  90.
_cell_angle_beta                   90.
_cell_angle_gamma                  90.
_cell_volume                       964.43
_cell_formula_units_Z              1
_symmetry_space_group_name_H-M     'I -4 m 2'
_symmetry_Int_Tables_number        119
_refine_ls_R_factor_all            .07
loop_
_symmetry_equiv_pos_site_id
_symmetry_equiv_pos_as_xyz
  1	'y, x, -z'
  2	'-y, -x, -z'
  3	'y, -x, -z'
  4	'-y, x, -z'
  5	'x, -y, z'
  6	'-x, y, z'
  7	'-x, -y, z'
  8	'x, y, z'
  9	'y+.5, x+.5, -z+.5'
 10	'-y+.5, -x+.5, -z+.5'
 11	'y+.5, -x+.5, -z+.5'
 12	'-y+.5, x+.5, -z+.5'
 13	'x+.5, -y+.5, z+.5'
 14	'-x+.5, y+.5, z+.5'
 15	'-x+.5, -y+.5, z+.5'
 16	'x+.5, y+.5, z+.5'
loop_
_atom_type_symbol
_atom_type_oxidation_number
Ca2+	2
O2-	-2
S2-	-2
Si4+	4
loop_
_atom_site_label
_atom_site_type_symbol
_atom_site_symmetry_multiplicity
_atom_site_Wyckoff_symbol
_atom_site_fract_x
_atom_site_fract_y
_atom_site_fract_z
_atom_site_occupancy
_atom_site_attached_hydrogens
_atom_site_B_iso_or_equiv
Ca1 Ca2+ 8 i 0.2437(2) 0 0.1960(2) 1. 0 1.13(2) 
Ca2 Ca2+ 8 i 0.2583(2) 0 0.7911(2) 1. 0 1.14(3) 
Ca3 Ca2+ 4 f 0.5 0 0.0032(4) 1. 0 0.79(2) 
Ca4 Ca2+ 2 b 0.5 0.5 0 1. 0 0.55(3) 
Si1 Si4+ 8 g 0.2116(2) 0.2116(2) 0.5 1. 0 0.46(2) 
O1 O2- 16 j 0.1446(5) 0.1457(5) 0.3523(3) 1. 0 0.78(5) 
O2 O2- 16 j 0.3648(3) 0.1795(3) 0.5062(7) 1. 0 0.68(5) 
O3 O2- 2 c 0 0.5 0.25 1. 0 2.4(4) 
O4 O2- 2 d 0 0.5 0.75 1. 0 0.7(2) 
S1 S2- 2 a 0 0 0 1. 0 1.36(5) 

#End of data_26407-ICSD


