data_261970-ICSD
#?2014 by Fachinformationszentrum Karlsruhe, and the U.S. Secretary of 
#Commerce on behalf of the United States.  All rights reserved.
_database_code_ICSD                261970
_audit_creation_date               2012/02/01
_chemical_name_systematic
;
Decacalcium Hexaboro Hexadecagermanate
;
_chemical_formula_structural       'Ca10 B6 Ge16 O51'
_chemical_formula_sum              'B6 Ca10 Ge16 O51'
_publ_section_title
;
Ca10 Ge16 B6 O51 and Cd12 Ge17 B8 O58: two types of new 3D frameworks 
based on B O4 tetrahedra and 1D [Ge4 O12]n chains
;
loop_
_citation_id
_citation_journal_abbrev
_citation_year
_citation_journal_volume
_citation_journal_issue
_citation_page_first
_citation_page_last
_citation_journal_id_ASTM
primary 'Inorganic Chemistry' 2011 50 18 8861 8868 INOCAJ
_publ_author_name
;
Xu Xiang;Hu Chunli;Kong Fan;Zhang Jianhan;Mao Jianggao
;
_cell_length_a                     15.119(8)
_cell_length_b                     26.338(13)
_cell_length_c                     4.714(2)
_cell_angle_alpha                  90.00
_cell_angle_beta                   90.00
_cell_angle_gamma                  90.00
_cell_volume                       1877.13
_cell_formula_units_Z              2
_symmetry_space_group_name_H-M     'P b a 2'
_symmetry_Int_Tables_number        32
_refine_ls_R_factor_all            .0329
loop_
_symmetry_equiv_pos_site_id
_symmetry_equiv_pos_as_xyz
  1	'x+.5, -y+.5, z'
  2	'-x+.5, y+.5, z'
  3	'-x, -y, z'
  4	'x, y, z'
loop_
_atom_type_symbol
_atom_type_oxidation_number
B3+	3
Ca2+	2
Ge4+	4
O2-	-2
loop_
_atom_site_label
_atom_site_type_symbol
_atom_site_symmetry_multiplicity
_atom_site_Wyckoff_symbol
_atom_site_fract_x
_atom_site_fract_y
_atom_site_fract_z
_atom_site_occupancy
_atom_site_attached_hydrogens
_atom_site_U_iso_or_equiv
Ca1 Ca2+ 4 c 0.36202(7) 0.14568(4) -0.4920(5) 1 0 0.0074(2) 
Ca2 Ca2+ 4 c 0.75409(7) 0.07532(4) -0.4647(5) 1 0 0.0068(2) 
Ca3 Ca2+ 4 c 0.88389(7) 0.20435(4) -0.4813(5) 1 0 0.0077(2) 
Ca4 Ca2+ 4 c 0.64675(7) 0.27655(4) -0.4789(5) 1 0 0.0071(2) 
Ca5 Ca2+ 4 c 0.00713(8) 0.09858(4) -0.4908(5) 1 0 0.0082(2) 
Ge1 Ge4+ 4 c 0.54115(4) 0.07767(2) 0.0262(3) 1 0 0.00581(12) 
Ge2 Ge4+ 4 c 0.58068(4) 0.153880(19) -0.4728(3) 1 0 0.00527(12) 
Ge3 Ge4+ 4 c 0.71471(4) 0.17676(2) 0.0304(3) 1 0 0.00593(12) 
Ge4 Ge4+ 4 c 0.21541(4) 0.049299(19) -0.4740(2) 1 0 0.00552(12) 
Ge5 Ge4+ 4 c 0.49125(4) 0.215469(19) 0.0199(2) 1 0 0.00553(12) 
Ge6 Ge4+ 4 c 0.35298(4) 0.025183(19) -0.9770(3) 1 0 0.00578(12) 
Ge7 Ge4+ 4 c 0.18848(4) 0.129314(19) -0.9746(2) 1 0 0.00568(12) 
Ge8 Ge4+ 4 c 0.89256(4) 0.005818(19) 0.0202(3) 1 0 0.00565(12) 
B1 B3+ 4 c 0.2993(4) 0.2227(2) 0.048(2) 1 0 0.0043(7) 
B2 B3+ 4 c 0.5198(4) 0.3215(2) -0.0101(18) 1 0 0.0043(7) 
B3 B3+ 4 c 0.8751(4) 0.1192(2) -0.001(2) 1 0 0.0043(7) 
O1 O2- 4 c 0.4824(3) 0.16770(17) -0.2379(11) 1 0 0.0113(10) 
O2 O2- 4 c 0.6763(3) 0.13607(16) 0.2951(11) 1 0 0.0093(10) 
O3 O2- 4 c 0.6466(3) 0.19843(16) -0.2401(10) 1 0 0.0076(10) 
O4 O2- 4 c 0.6071(3) 0.02999(17) 0.1897(10) 1 0 0.0095(10) 
O5 O2- 4 c 0.8156(3) 0.00583(16) 0.2953(11) 1 0 0.0096(10) 
O6 O2- 4 c 0.2549(3) 0.10282(16) -1.2415(10) 1 0 0.0089(10) 
O7 O2- 4 c 0.5675(3) 0.21093(17) 0.2915(10) 1 0 0.0090(10) 
O8 O2- 4 c 0.5064(3) 0.27151(16) -0.1697(10) 1 0 0.0072(10) 
O9 O2- 4 c 0.7601(3) 0.23010(17) 0.2026(10) 1 0 0.0073(10) 
O10 O2- 2 a 1.0000 0.0000 0.1820(15) 1 0 0.0127(15) 
O11 O2- 4 c 0.6112(3) 0.09934(17) -0.2447(10) 1 0 0.0089(10) 
O12 O2- 4 c 0.5018(3) 0.11778(17) 0.2964(10) 1 0 0.0078(10) 
O13 O2- 4 c 0.3123(3) 0.06512(16) -0.7083(11) 1 0 0.0099(10) 
O14 O2- 4 c 0.2792(3) 0.00459(16) -1.2421(10) 1 0 0.0088(10) 
O15 O2- 4 c 0.8839(3) 0.06486(16) -0.1509(11) 1 0 0.0097(10) 
O16 O2- 4 c 0.1448(3) 0.09090(18) -0.7063(10) 1 0 0.0100(10) 
O17 O2- 4 c 0.2478(3) 0.17788(16) -0.7986(10) 1 0 0.0078(10) 
O18 O2- 4 c 0.3886(3) 0.21825(17) 0.2006(10) 1 0 0.0109(10) 
O19 O2- 4 c 0.4430(3) 0.05609(17) -1.1371(11) 1 0 0.0109(10) 
O20 O2- 4 c 0.1031(3) 0.15803(17) -1.1635(11) 1 0 0.0098(10) 
O21 O2- 4 c 0.7968(3) 0.14242(17) -0.1529(11) 1 0 0.0095(10) 
O22 O2- 4 c 0.8882(3) -0.04126(17) -0.2450(11) 1 0 0.0108(10) 
O23 O2- 4 c 0.2991(3) 0.22241(16) -0.2353(11) 1 0 0.0091(10) 
O24 O2- 4 c 0.5253(3) 0.31882(17) 0.2810(10) 1 0 0.0089(10) 
O25 O2- 4 c 0.4501(3) 0.35404(17) -0.1321(10) 1 0 0.0086(10) 
O26 O2- 4 c 0.8709(3) 0.11778(17) 0.2919(10) 1 0 0.0102(10) 

loop_
_atom_site_aniso_label
_atom_site_aniso_type_symbol
_atom_site_aniso_U_11
_atom_site_aniso_U_22
_atom_site_aniso_U_33
_atom_site_aniso_U_12
_atom_site_aniso_U_13
_atom_site_aniso_U_23
Ca1 Ca2+ 0.0071(5) 0.0066(5) 0.0087(6) -0.0003(4) 0.0008(9) -0.0011(9)
Ca2 Ca2+ 0.0077(5) 0.0052(5) 0.0076(6) 0.0005(4) 0.0011(9) 0.0013(9)
Ca3 Ca2+ 0.0083(5) 0.0064(5) 0.0084(6) -0.0002(4) 0.0008(11) 0.0008(10)
Ca4 Ca2+ 0.0072(5) 0.0049(4) 0.0091(6) -0.0001(4) 0.0011(10) -0.0007(10)
Ca5 Ca2+ 0.0073(5) 0.0075(5) 0.0099(6) 0.0010(4) 0.0011(9) -0.0013(9)
Ge1 Ge4+ 0.0054(3) 0.0049(2) 0.0072(3) 0.0001(2) 0.0003(5) -0.0002(5)
Ge2 Ge4+ 0.0055(3) 0.0047(2) 0.0056(3) 0.00018(19) 0.0004(5) 0.0003(5)
Ge3 Ge4+ 0.0058(3) 0.0048(2) 0.0071(3) 0.0002(2) -0.0001(5) 0.0002(5)
Ge4 Ge4+ 0.0055(3) 0.0043(2) 0.0067(3) -0.0004(2) 0.0000(5) -0.0002(5)
Ge5 Ge4+ 0.0059(3) 0.0041(2) 0.0066(3) -0.00026(19) -0.0008(5) -0.0002(5)
Ge6 Ge4+ 0.0058(3) 0.0045(2) 0.0071(3) -0.0002(2) -0.0014(5) 0.0005(5)
Ge7 Ge4+ 0.0059(3) 0.0045(2) 0.0066(3) -0.0001(2) -0.0001(5) 0.0000(5)
Ge8 Ge4+ 0.0052(3) 0.0045(2) 0.0072(3) -0.0004(2) 0.0003(5) 0.0004(5)
O1 O2- 0.009(2) 0.009(2) 0.016(3) -0.0005(19) 0.004(2) 0.003(2)
O2 O2- 0.010(2) 0.006(2) 0.012(3) 0.0028(18) 0.002(2) 0.000(2)
O3 O2- 0.008(2) 0.006(2) 0.009(3) 0.0005(18) -0.0006(19) 0.0011(19)
O4 O2- 0.008(2) 0.008(2) 0.012(3) 0.0002(19) 0.001(2) 0.002(2)
O5 O2- 0.014(2) 0.004(2) 0.011(3) 0.0052(19) 0.001(2) -0.0004(19)
O6 O2- 0.014(3) 0.008(2) 0.005(2) -0.0003(19) -0.002(2) -0.0024(19)
O7 O2- 0.010(2) 0.009(2) 0.007(3) -0.0033(19) -0.003(2) -0.003(2)
O8 O2- 0.010(2) 0.003(2) 0.009(2) -0.0020(18) 0.002(2) -0.0003(19)
O9 O2- 0.006(2) 0.007(2) 0.009(2) 0.0000(18) 0.0013(19) -0.0028(19)
O10 O2- 0.016(4) 0.016(4) 0.006(4) 0.002(3) 0.000 0.000
O11 O2- 0.004(2) 0.008(2) 0.015(3) 0.0014(18) 0.002(2) 0.002(2)
O12 O2- 0.010(2) 0.007(2) 0.007(2) 0.0017(18) 0.000(2) -0.0016(18)
O13 O2- 0.011(2) 0.004(2) 0.014(3) -0.0007(19) 0.003(2) -0.001(2)
O14 O2- 0.006(2) 0.008(2) 0.012(3) 0.0004(18) -0.004(2) 0.003(2)
O15 O2- 0.011(2) 0.005(2) 0.013(3) 0.0009(19) 0.003(2) 0.003(2)
O16 O2- 0.010(2) 0.011(2) 0.009(3) 0.0013(19) 0.004(2) 0.000(2)
O17 O2- 0.009(2) 0.007(2) 0.008(2) -0.0005(18) -0.0012(19) -0.0005(19)
O18 O2- 0.011(3) 0.009(2) 0.013(3) 0.002(2) -0.001(2) -0.002(2)
O19 O2- 0.008(2) 0.010(2) 0.015(3) -0.0015(19) -0.002(2) -0.001(2)
O20 O2- 0.011(2) 0.007(2) 0.012(3) 0.0019(19) -0.003(2) -0.003(2)
O21 O2- 0.008(2) 0.008(2) 0.012(3) -0.0011(19) 0.003(2) 0.000(2)
O22 O2- 0.010(2) 0.007(2) 0.015(3) 0.001(2) 0.000(2) 0.004(2)
O23 O2- 0.007(2) 0.007(2) 0.013(3) 0.0022(19) -0.004(2) -0.003(2)
O24 O2- 0.010(2) 0.005(2) 0.011(3) -0.0012(18) -0.001(2) 0.0036(19)
O25 O2- 0.011(2) 0.010(2) 0.005(2) 0.002(2) 0.000(2) -0.0006(19)
O26 O2- 0.011(2) 0.008(2) 0.011(3) 0.0012(19) -0.002(2) 0.003(2)
#End of data_261970-ICSD


