data_51238-ICSD
#?2014 by Fachinformationszentrum Karlsruhe, and the U.S. Secretary of 
#Commerce on behalf of the United States.  All rights reserved.
_database_code_ICSD                51238
_audit_creation_date               2002/04/01
_chemical_name_systematic          'Calcium Chloride'
_chemical_formula_structural       'Ca Cl2'
_chemical_formula_sum              'Ca1 Cl2'
_publ_section_title
;
Determination of structure candidates of simple crystalline A B2 
systems
;
loop_
_citation_id
_citation_journal_abbrev
_citation_year
_citation_journal_volume
_citation_page_first
_citation_page_last
_citation_journal_id_ASTM
primary 'Journal of Solid State Chemistry' 1998 136 233 246 JSSCBI
_publ_author_name
;
Wevers, M.A.C.;Schoen, J.C.;Jansen, M.
;
_cell_length_a                     4.524
_cell_length_b                     6.9
_cell_length_c                     5.172
_cell_angle_alpha                  90.
_cell_angle_beta                   90.
_cell_angle_gamma                  90.
_cell_volume                       161.45
_cell_formula_units_Z              2
_symmetry_space_group_name_H-M     'P m n 21'
_symmetry_Int_Tables_number        31
loop_
_symmetry_equiv_pos_site_id
_symmetry_equiv_pos_as_xyz
  1	'x+.5, -y, z+.5'
  2	'-x+.5, -y, z+.5'
  3	'-x, y, z'
  4	'x, y, z'
loop_
_atom_type_symbol
_atom_type_oxidation_number
Ca2+	2
Cl1-	-1
loop_
_atom_site_label
_atom_site_type_symbol
_atom_site_symmetry_multiplicity
_atom_site_Wyckoff_symbol
_atom_site_fract_x
_atom_site_fract_y
_atom_site_fract_z
_atom_site_occupancy
_atom_site_attached_hydrogens
Ca1 Ca2+ 2 a 0.5 0.572 0.65 1. 0 
Cl1 Cl1- 2 a 0 0.766 0.832 1. 0 
Cl2 Cl1- 2 a 0 0.937 0.336 1. 0 

#End of data_51238-ICSD


