data_97288-ICSD
#?2014 by Fachinformationszentrum Karlsruhe, and the U.S. Secretary of 
#Commerce on behalf of the United States.  All rights reserved.
_database_code_ICSD                97288
_audit_creation_date               2004/10/01
_chemical_name_systematic
;
Potassium Iron Sulfide Chloride (6/24/26/1)
;
_chemical_formula_structural       'K6 Fe24 S26 Cl'
_chemical_formula_sum              'Cl1 Fe24 K6 S26'
_chemical_name_mineral             Chlorbartonite
_publ_section_title
;
Chlorbartonite, K6 Fe24 S26 (Cl,S), a new mineral species from a 
hydrothermal vein in the Khibina massif, Kola peninsula, Russia: 
description and crystal structure
;
loop_
_citation_id
_citation_journal_abbrev
_citation_year
_citation_journal_volume
_citation_page_first
_citation_page_last
_citation_journal_id_ASTM
primary 'Canadian Mineralogist' 2003 41 503 511 CAMIA6
_publ_author_name
;
Yakovenchuk, V.N.;Pakhomovskii, Ya.A.;Men'shikov, Yu.P.;Ivanyuk, 
G.Yu.;Krivovichev, S.V.;Burns, P.C.
;
_cell_length_a                     10.3810(8)
_cell_length_b                     10.3810(8)
_cell_length_c                     20.614(2)
_cell_angle_alpha                  90
_cell_angle_beta                   90
_cell_angle_gamma                  90
_cell_volume                       2221.47
_cell_formula_units_Z              2
_symmetry_space_group_name_H-M     'I 4/m m m'
_symmetry_Int_Tables_number        139
_refine_ls_R_factor_all            .02
loop_
_symmetry_equiv_pos_site_id
_symmetry_equiv_pos_as_xyz
  1	'y, x, -z'
  2	'-y, -x, -z'
  3	'-y, x, -z'
  4	'y, -x, -z'
  5	'-x, y, -z'
  6	'x, -y, -z'
  7	'x, y, -z'
  8	'-x, -y, -z'
  9	'-y, -x, z'
 10	'y, x, z'
 11	'y, -x, z'
 12	'-y, x, z'
 13	'x, -y, z'
 14	'-x, y, z'
 15	'-x, -y, z'
 16	'x, y, z'
 17	'y+.5, x+.5, -z+.5'
 18	'-y+.5, -x+.5, -z+.5'
 19	'-y+.5, x+.5, -z+.5'
 20	'y+.5, -x+.5, -z+.5'
 21	'-x+.5, y+.5, -z+.5'
 22	'x+.5, -y+.5, -z+.5'
 23	'x+.5, y+.5, -z+.5'
 24	'-x+.5, -y+.5, -z+.5'
 25	'-y+.5, -x+.5, z+.5'
 26	'y+.5, x+.5, z+.5'
 27	'y+.5, -x+.5, z+.5'
 28	'-y+.5, x+.5, z+.5'
 29	'x+.5, -y+.5, z+.5'
 30	'-x+.5, y+.5, z+.5'
 31	'-x+.5, -y+.5, z+.5'
 32	'x+.5, y+.5, z+.5'
loop_
_atom_type_symbol
_atom_type_oxidation_number
Cl1-	-1
Fe1.958+	1.958
K1+	1
S2-	-2
loop_
_atom_site_label
_atom_site_type_symbol
_atom_site_symmetry_multiplicity
_atom_site_Wyckoff_symbol
_atom_site_fract_x
_atom_site_fract_y
_atom_site_fract_z
_atom_site_occupancy
_atom_site_attached_hydrogens
_atom_site_U_iso_or_equiv
K1 K1+ 8 i 0.29581(16) 0 0 1. 0 0.0233(4) 
K2 K1+ 4 e 0 0 0.15318(11) 1. 0 0.0235(6) 
Fe1 Fe1.958+ 32 o 0.13076(5) 0.36801(5) 0.18394(2) 1. 0 0.0159(2) 
Fe2 Fe1.958+ 16 m 0.36856(5) 0.36856(5) 0.06625(3) 1. 0 0.0161(2) 
S1 S2- 16 m 0.22763(9) 0.22763(9) 0.11387(6) 1. 0 0.0160(3) 
S2 S2- 16 n 0 0.24716(12) 0.25142(6) 1. 0 0.0158(3) 
S3 S2- 8 j 0.24677(17) 0.5 0 1. 0 0.0157(4) 
S4 S2- 8 g 0 0.5 0.12252(8) 1. 0 0.0158(4) 
S5 S2- 4 e 0 0 0.37261(12) 1. 0 0.0161(6) 
Cl1 Cl1- 2 a 0 0 0 1. 0 0.0217(9) 

loop_
_atom_site_aniso_label
_atom_site_aniso_type_symbol
_atom_site_aniso_U_11
_atom_site_aniso_U_22
_atom_site_aniso_U_33
_atom_site_aniso_U_12
_atom_site_aniso_U_13
_atom_site_aniso_U_23
K1 K1+ 0.021(1) 0.026(10) 0.023(1) 0. 0. 0.
K2 K1+ 0.0241(9) 0.0241(9) 0.022(1) 0. 0. 0.
Fe1 Fe1.958+ 0.0174(4) 0.0161(4) 0.0143(3) 0.0000(2) -.0004(2) -.0005(2)
Fe2 Fe1.958+ 0.0160(3) 0.0160(3) 0.0164(4) -.0001(3) -.0001(2) -.0001(2)
S1 S2- 0.0162(4) 0.0162(4) 0.0154(6) 0.0009(5) 0.0011(4) 0.0011(4)
S2 S2- 0.0166(8) 0.0164(8) 0.0146(7) 0. 0. -.0006(5)
S3 S2- 0.016(1) 0.017(1) 0.014(1) 0. 0. 0.
S4 S2- 0.016(1) 0.016(1) 0.015(1) 0. 0. 0.
S5 S2- 0.0170(9) 0.0170(9) 0.014(1) 0. 0. 0.
Cl1 Cl1- 0.021(1) 0.021(1) 0.024(2) 0. 0. 0.
#End of data_97288-ICSD


