data_202055-ICSD
#?2014 by Fachinformationszentrum Karlsruhe, and the U.S. Secretary of 
#Commerce on behalf of the United States.  All rights reserved.
_database_code_ICSD                202055
_audit_creation_date               1988/12/19
_audit_update_record               2012/02/01
_chemical_name_systematic          'Silver(I,III) Oxide - Tetragonal'
_chemical_formula_structural       'Ag O'
_chemical_formula_sum              'Ag1 O1'
_publ_section_title
;
Structure and magnetic properties of tetragonal Silver(I,III) oxide 
Ag O
;
loop_
_citation_id
_citation_journal_abbrev
_citation_year
_citation_journal_volume
_citation_page_first
_citation_page_last
_citation_journal_id_ASTM
primary 'Journal of Solid State Chemistry' 1986 65 225 230 JSSCBI
2 'Journal of Solid State Chemistry' 1987 68 380 380 JSSCBI
_publ_author_name
;
Yvon, K.;Bezinge, A.;Tissot, P.;Fischer, P.
;
_cell_length_a                     6.833(3)
_cell_length_b                     6.833(3)
_cell_length_c                     9.122(4)
_cell_angle_alpha                  90.
_cell_angle_beta                   90.
_cell_angle_gamma                  90.
_cell_volume                       425.91
_cell_formula_units_Z              16
_symmetry_space_group_name_H-M     'I 41/a Z'
_symmetry_Int_Tables_number        88
_refine_ls_R_factor_all            .066
loop_
_symmetry_equiv_pos_site_id
_symmetry_equiv_pos_as_xyz
  1	'-y+.75, x+.75, -z+.75'
  2	'y+.25, -x+.75, -z+.75'
  3	'x, y+.5, -z'
  4	'-x, -y, -z'
  5	'y+.25, -x+.25, z+.25'
  6	'-y+.75, x+.25, z+.25'
  7	'-x, -y+.5, z'
  8	'x, y, z'
  9	'-y+.25, x+.25, -z+.25'
 10	'y+.75, -x+.25, -z+.25'
 11	'x+.5, y, -z+.5'
 12	'-x+.5, -y+.5, -z+.5'
 13	'y+.75, -x+.75, z+.75'
 14	'-y+.25, x+.75, z+.75'
 15	'-x+.5, -y, z+.5'
 16	'x+.5, y+.5, z+.5'
loop_
_atom_type_symbol
_atom_type_oxidation_number
Ag1+	1
Ag3+	3
O2-	-2
loop_
_atom_site_label
_atom_site_type_symbol
_atom_site_symmetry_multiplicity
_atom_site_Wyckoff_symbol
_atom_site_fract_x
_atom_site_fract_y
_atom_site_fract_z
_atom_site_occupancy
_atom_site_attached_hydrogens
_atom_site_U_iso_or_equiv
Ag1 Ag3+ 8 c 0 0 0 1. 0 0.0168(8) 
Ag2 Ag1+ 8 d 0 0 0.5 1. 0 0.0058(6) 
O1 O2- 16 f 0.0798(3) 0.0130(5) 0.2128(3) 1. 0 0.0066(4) 

#End of data_202055-ICSD


