data_165312-ICSD
#?2014 by Fachinformationszentrum Karlsruhe, and the U.S. Secretary of 
#Commerce on behalf of the United States.  All rights reserved.
_database_code_ICSD                165312
_audit_creation_date               2010/02/01
_chemical_name_systematic
;
Tetrapotassium Palladium Bis(tetrathiophosphate(V))
;
_chemical_formula_structural       'K4 Pd (P S4)2'
_chemical_formula_sum              'K4 P2 Pd1 S8'
_publ_section_title
;
Palladium chemistry in molten alkali metal polychalcophosphate 
fluxes. Synthesis and characterisation of K4 Pd (P S4)2, Cs4 Pd (P 
Se4)2, Cs10 Pd (P Se4)4, K Pd P S4, K2 Pd P2 S6, and Cs2 Pd P2 Se6
;
loop_
_citation_id
_citation_journal_abbrev
_citation_year
_citation_journal_volume
_citation_journal_issue
_citation_page_first
_citation_page_last
_citation_journal_id_ASTM
primary 'Inorganic Chemistry' 1997 36 25 5859 5968 INOCAJ
_publ_author_name
;
Chondroudis, K.;Kanatzidis, M.G.;Sayettat, J.;Jobic, S.;Brec, R.
;
_cell_length_a                     6.380(1)
_cell_length_b                     6.897(1)
_cell_length_c                     8.999(2)
_cell_angle_alpha                  87.777(8)
_cell_angle_beta                   81.581(8)
_cell_angle_gamma                  84.429(9)
_cell_volume                       389.74
_cell_formula_units_Z              1
_symmetry_space_group_name_H-M     'P -1'
_symmetry_Int_Tables_number        2
_refine_ls_R_factor_all            .039
loop_
_symmetry_equiv_pos_site_id
_symmetry_equiv_pos_as_xyz
  1	'-x, -y, -z'
  2	'x, y, z'
loop_
_atom_type_symbol
_atom_type_oxidation_number
K1+	1
P5+	5
Pd2+	2
S2-	-2
loop_
_atom_site_label
_atom_site_type_symbol
_atom_site_symmetry_multiplicity
_atom_site_Wyckoff_symbol
_atom_site_fract_x
_atom_site_fract_y
_atom_site_fract_z
_atom_site_occupancy
_atom_site_attached_hydrogens
_atom_site_B_iso_or_equiv
Pd1 Pd2+ 1 a 0 0 0 1. 0 1.43(2) 
S1 S2- 2 i 0.2235(3) 0.5249(2) -0.1850(2) 1. 0 2.23(4) 
S2 S2- 2 i -0.3268(2) -0.0405(2) 0.1496(2) 1. 0 1.96(3) 
S3 S2- 2 i -0.1353(2) 0.1953(2) -0.1884(2) 1. 0 1.78(3) 
S4 S2- 2 i 0.2410(3) 0.2541(2) -0.4878(2) 1. 0 2.39(4) 
P1 P5+ 2 i 0.1725(2) 0.2672(2) -0.2628(2) 1. 0 1.48(3) 
K1 K1+ 2 i 0.2926(2) 0.3343(2) 0.1409(2) 1. 0 2.69(3) 
K2 K1+ 2 i 0.2553(2) 0.7788(2) -0.4775(2) 1. 0 3.00(4) 

loop_
_atom_site_aniso_label
_atom_site_aniso_type_symbol
_atom_site_aniso_U_11
_atom_site_aniso_U_22
_atom_site_aniso_U_33
_atom_site_aniso_U_12
_atom_site_aniso_U_13
_atom_site_aniso_U_23
Pd1 Pd2+ 0.0199(3) 0.0163(3) 0.0183(3) -0.0041(2) -0.0018(2) 0.0039(2)
S1 S2- 0.0337(8) 0.0216(7) 0.0316(8) -0.0087(6) -0.0098(6) 0.0025(6)
S2 S2- 0.0209(7) 0.0232(6) 0.0284(8) 0.0015(5) -0.0018(6) 0.0074(5)
S3 S2- 0.0197(6) 0.0261(7) 0.0224(7) -0.0053(5) -0.0037(5) 0.0067(5)
S4 S2- 0.0294(8) 0.0425(9) 0.0182(7) -0.0056(6) 0.0002(6) 0.0030(6)
P1 P5+ 0.1929(7) 0.0201(6) 0.0170(7) -0.0044(5) -0.0031(5) 0.0035(5)
K1 K1+ 0.0374(8) 0.0351(7) 0.0299(7) 0.0018(6) -0.0089(6) -0.0011(6)
K2 K1+ 0.0348(8) 0.0441(8) 0.0388(8) -0.0115(6) -0.0148(6) 0.0114(6)
#End of data_165312-ICSD


