data_93592-ICSD
#?2014 by Fachinformationszentrum Karlsruhe, and the U.S. Secretary of 
#Commerce on behalf of the United States.  All rights reserved.
_database_code_ICSD                93592
_audit_creation_date               2003/04/01
_audit_update_record               2007/08/01
_chemical_name_systematic
;
Disilver Trimanganese Bis(diphosphate(V))
;
_chemical_formula_structural       'Ag2 Mn3 (P2 O7)2'
_chemical_formula_sum              'Ag2 Mn3 O14 P4'
_publ_section_title
;
Identification of a new family of diphosphate compounds, A(I)2 B(II)3 
(P2 O7)2: structures of Ag2 Co3 (P2 O7)2, Ag2 Mn3 (P2 O7)2, and Na2 
Cd3 (P2 O7)2
;
loop_
_citation_id
_citation_journal_abbrev
_citation_year
_citation_journal_volume
_citation_journal_issue
_citation_page_first
_citation_page_last
_citation_journal_id_ASTM
primary 'Journal of Chemical Crystallography' 2000 30 11 705 716 JCCYEV
_publ_author_name
;
Bennazha, J.;Erragh, F.;Boukhari, A.;Holt, E.M.
;
_cell_length_a                     5.432(7)
_cell_length_b                     6.619(6)
_cell_length_c                     16.51(3)
_cell_angle_alpha                  80.78(8)
_cell_angle_beta                   82.43(9)
_cell_angle_gamma                  72.82(7)
_cell_volume                       557.55
_cell_formula_units_Z              2
_symmetry_space_group_name_H-M     'P -1'
_symmetry_Int_Tables_number        2
_refine_ls_R_factor_all            .068
loop_
_symmetry_equiv_pos_site_id
_symmetry_equiv_pos_as_xyz
  1	'-x, -y, -z'
  2	'x, y, z'
loop_
_atom_type_symbol
_atom_type_oxidation_number
Ag1+	1
Mn2+	2
O2-	-2
P5+	5
loop_
_atom_site_label
_atom_site_type_symbol
_atom_site_symmetry_multiplicity
_atom_site_Wyckoff_symbol
_atom_site_fract_x
_atom_site_fract_y
_atom_site_fract_z
_atom_site_occupancy
_atom_site_attached_hydrogens
_atom_site_U_iso_or_equiv
Ag1 Ag1+ 2 i 0.8971(3) 0.7457(2) 0.02092(9) 1. 0 0.0268(5) 
Ag2 Ag1+ 2 i 0.4026(3) 0.7339(2) 0.13118(10) 1. 0 0.0286(5) 
Mn1 Mn2+ 2 i 0.2525(5) -.0302(4) 0.3373(2) 1. 0 0.0138(6) 
Mn2 Mn2+ 2 i 0.8316(5) 0.7104(4) 0.4242(2) 1. 0 0.0156(6) 
Mn3 Mn2+ 2 i 0.9735(5) 0.3760(4) 0.1951(2) 1. 0 0.0152(6) 
P1 P5+ 2 i 0.5730(8) 0.2449(7) 0.0845(3) 1. 0 0.0170(10) 
O1 O2- 2 i 0.731(2) 0.390(2) 0.0980(8) 1. 0 0.025(3) 
O2 O2- 2 i 0.680(3) 0.134(2) 0.0101(8) 1. 0 0.032(3) 
O3 O2- 2 i 0.276(2) 0.351(2) 0.0887(7) 1. 0 0.021(3) 
O4 O2- 2 i 0.595(2) 0.063(2) 0.1636(7) 1. 0 0.020(3) 
P2 P5+ 2 i 0.8222(8) 0.9088(7) 0.2194(3) 1. 0 0.0126(10) 
O5 O2- 2 i 0.950(2) 0.710(2) 0.1740(7) 1. 0 0.019(3) 
O6 O2- 2 i 0.023(2) 0.033(2) 0.2252(7) 1. 0 0.019(3) 
O7 O2- 2 i 0.668(2) 0.863(2) 0.3002(7) 1. 0 0.017(3) 
P3 P5+ 2 i 0.7164(8) 0.2168(7) 0.4608(3) 1. 0 0.0129(10) 
O8 O2- 2 i 0.857(2) 0.380(2) 0.4646(7) 1. 0 0.018(3) 
O9 O2- 2 i 0.886(2) 0.028(2) 0.4212(7) 1. 0 0.017(2) 
O10 O2- 2 i 0.583(2) 0.157(2) 0.5439(6) 1. 0 0.015(3) 
O11 O2- 2 i 0.462(2) 0.318(9) 0.4111(8) 1. 0 0.022(3) 
P4 P5+ 2 i 0.3722(8) 0.4400(6) 0.3224(3) 1. 0 0.0114(9) 
O12 O2- 2 i 0.604(2) 0.465(2) 0.2618(7) 1. 0 0.023(3) 
O13 O2- 2 i 0.225(3) 0.303(2) 0.2963(8) 1. 0 0.030 
O14 O2- 2 i 0.187(2) 0.654(2) 0.3417(7) 1. 0 0.016(3) 

loop_
_atom_site_aniso_label
_atom_site_aniso_type_symbol
_atom_site_aniso_U_11
_atom_site_aniso_U_22
_atom_site_aniso_U_33
_atom_site_aniso_U_12
_atom_site_aniso_U_13
_atom_site_aniso_U_23
Ag1 Ag1+ 0.0289(8) 0.0321(9) 0.0211(8) -0.0097(7) -0.0019(6) -0.0063(6)
Ag2 Ag1+ 0.0235(8) 0.0306(9) 0.0301(9) -0.0059(7) -0.0020(6) -0.0034(7)
Mn1 Mn2+ 0.0166(13) 0.0134(13) 0.0120(13) -0.0059(11) -0.0016(10) 
0.0003(10)
Mn2 Mn2+ 0.0151(13) 0.0096(13) 0.0213(15) -0.0027(10) -0.0004(11) 
-0.0019(11)
Mn3 Mn2+ 0.0164(13) 0.0114(14) 0.0187(15) -0.0046(11) -0.0030(11) 
-0.0016(11)
P1 P5+ 0.015(2) 0.017(2) 0.016(2) -0.001(2) -0.001(2) -0.001(2)
O1 O2- 0.032(7) 0.025(7) 0.027(7) -0.021(6) -0.007(6) 0.000(6)
O2 O2- 0.047(9) 0.022(7) 0.021(7) 0.001(6) -0.011(6) 0.005(6)
O3 O2- 0.019(6) 0.011(6) 0.017 0.008(5) 0.005(2) 0.012(5)
O4 O2- 0.014(6) 0.017(6) 0.025(7) 0.003(5) -0.006(5) 0.002(5)
P2 P5+ 0.011(2) 0.013(2) 0.013(2) -0.002(2) -0.004(2) 0.001(2)
O5 O2- 0.011(6) 0.023(7) 0.019(7) -0.004(5) 0.003(5) 0.000(5)
O6 O2- 0.020(6) 0.015(6) 0.019(7) -0.003(5) -0.007(5) 0.002(5)
O7 O2- 0.015(6) 0.020(6) 0.012(6) -0.002(5) 0.002(5) 0.000(5)
P3 P5+ 0.012(2) 0.010(2) 0.015(2) 0.001(2) -0.004(2) -0.002(2)
O8 O2- 0.015(6) 0.017(6) 0.022(7) -0.009(5) 0.004(5) -0.002(5)
O9 O2- 0.018 0.013(6) 0.016 -0.007(5) 0.010 0.002
O10 O2- 0.021(6) 0.011(6) 0.009(6) -0.007(5) 0.003(5) 0.003(5)
O11 O2- 0.014(6) 0.029(7) 0.023(7) -0.001(5) -0.010(5) -0.007(5)
P4 P5+ 0.016(2) 0.006(2) 0.013(2) -0.004(2) -0.002(2) -0.002(2)
O12 O2- 0.030(7) 0.022(7) 0.018(7) -0.007(6) 0.015(6) -0.017(5)
O13 O2- 0.037 0.010 0.028(2) 0.007 0.008 0.005
O14 O2- 0.015(6) 0.014(6) 0.017(6) -0.004(5) -0.001(5) 0.002(5)
#End of data_93592-ICSD


