data_420854-ICSD
#?2014 by Fachinformationszentrum Karlsruhe, and the U.S. Secretary of 
#Commerce on behalf of the United States.  All rights reserved.
_database_code_ICSD                420854
_audit_creation_date               2010/08/01
_chemical_name_systematic
;
Disilver Dioxovanadium Tris(iodate(V))
;
_chemical_formula_structural       'Ag2 (V O2) (I O3)3'
_chemical_formula_sum              'Ag2 I3 O11 V1'
_publ_section_title
;
Syntheses and crystal structures of four new silver(I) iodates with 
d(0)-transition cations
;
loop_
_citation_id
_citation_journal_abbrev
_citation_year
_citation_journal_volume
_citation_page_first
_citation_page_last
_citation_journal_id_ASTM
primary 'Dalton Transactions' 2010 39 1473 1479 DTARAF
_publ_author_name
;
Sun Chuan Fu;Hu Chunli;Kong Fang;Yang Bingping;Mao Jiang Gao
;
_cell_length_a                     35.245(4)
_cell_length_b                     7.7757(9)
_cell_length_c                     7.1720(7)
_cell_angle_alpha                  90.00
_cell_angle_beta                   90.00
_cell_angle_gamma                  90.00
_cell_volume                       1965.52
_cell_formula_units_Z              8
_symmetry_space_group_name_H-M     'P b c a'
_symmetry_Int_Tables_number        61
_refine_ls_R_factor_all            .0328
loop_
_symmetry_equiv_pos_site_id
_symmetry_equiv_pos_as_xyz
  1	'x+.5, y, -z+.5'
  2	'x, -y+.5, z+.5'
  3	'-x+.5, y+.5, z'
  4	'-x, -y, -z'
  5	'-x+.5, -y, z+.5'
  6	'-x, y+.5, -z+.5'
  7	'x+.5, -y+.5, -z'
  8	'x, y, z'
loop_
_atom_type_symbol
_atom_type_oxidation_number
Ag1+	1
I5+	5
O2-	-2
V5+	5
loop_
_atom_site_label
_atom_site_type_symbol
_atom_site_symmetry_multiplicity
_atom_site_Wyckoff_symbol
_atom_site_fract_x
_atom_site_fract_y
_atom_site_fract_z
_atom_site_occupancy
_atom_site_attached_hydrogens
_atom_site_U_iso_or_equiv
Ag1 Ag1+ 8 c 0.261520(19) 0.71710(9) 0.05360(10) 1 0 0.03176(18) 
Ag2 Ag1+ 8 c 0.08343(2) 0.72492(9) 0.55294(9) 1 0 0.03278(18) 
V1 V5+ 8 c 0.08046(3) 0.22222(14) 0.45151(16) 1 0 0.0118(2) 
I1 I5+ 8 c 0.148390(13) 0.46679(5) 0.31287(6) 1 0 0.01288(13) 
I2 I5+ 8 c 0.184714(13) 0.55307(6) -0.17771(7) 1 0 0.01512(13) 
I3 I5+ 8 c 0.007622(13) 0.51652(5) 0.74825(6) 1 0 0.01161(13) 
O1 O2- 8 c 0.11959(14) 0.3801(6) 0.5179(7) 1 0 0.0181(11) 
O2 O2- 8 c 0.12126(16) 0.6649(6) 0.2980(7) 1 0 0.0232(12) 
O3 O2- 8 c 0.18668(15) 0.5388(7) 0.4542(7) 1 0 0.0209(12) 
O4 O2- 8 c 0.18692(16) 0.5827(7) 0.0747(7) 1 0 0.0240(12) 
O5 O2- 8 c 0.23359(14) 0.6053(7) -0.2207(8) 1 0 0.0225(12) 
O6 O2- 8 c 0.18960(15) 0.3229(7) -0.1813(8) 1 0 0.0231(12) 
O7 O2- 8 c 0.03124(15) 0.7225(6) 0.7789(8) 1 0 0.0207(11) 
O8 O2- 8 c 0.03010(15) 0.4022(7) 0.9455(6) 1 0 0.0188(11) 
O9 O2- 8 c 0.03692(15) 0.4447(6) 0.5561(7) 1 0 0.0180(11) 
O10 O2- 8 c 0.10553(15) 0.0530(6) 0.4165(7) 1 0 0.0198(11) 
O11 O2- 8 c 0.07378(14) 0.1925(6) 0.7348(7) 1 0 0.0140(10) 

loop_
_atom_site_aniso_label
_atom_site_aniso_type_symbol
_atom_site_aniso_U_11
_atom_site_aniso_U_22
_atom_site_aniso_U_33
_atom_site_aniso_U_12
_atom_site_aniso_U_13
_atom_site_aniso_U_23
Ag1 Ag1+ 0.0268(3) 0.0449(4) 0.0237(3) 0.0052(3) -0.0015(3) -0.0103(3)
Ag2 Ag1+ 0.0288(4) 0.0424(4) 0.0272(4) -0.0091(3) 0.0080(3) -0.0109(3)
V1 V5+ 0.0118(5) 0.0123(5) 0.0112(5) -0.0006(4) -0.0010(5) 0.0006(4)
I1 I5+ 0.0138(2) 0.0115(2) 0.0134(2) -0.00133(15) 0.00004(18) -0.00053(16)
I2 I5+ 0.0158(2) 0.0143(2) 0.0152(2) 0.00073(16) 0.00084(18) 0.00131(17)
I3 I5+ 0.0137(3) 0.0109(2) 0.0102(2) 0.00236(15) 0.00016(18) 0.00067(15)
O1 O2- 0.019(3) 0.022(3) 0.013(2) -0.005(2) 0.000(2) 0.000(2)
O2 O2- 0.026(3) 0.016(3) 0.027(3) 0.007(2) 0.010(2) 0.002(2)
O3 O2- 0.019(3) 0.026(3) 0.018(3) -0.011(2) -0.002(2) -0.003(2)
O4 O2- 0.025(3) 0.028(3) 0.018(3) -0.007(2) 0.001(2) 0.001(2)
O5 O2- 0.010(3) 0.033(3) 0.024(3) -0.004(2) 0.003(2) 0.005(2)
O6 O2- 0.021(3) 0.020(3) 0.028(3) -0.004(2) -0.003(2) -0.002(2)
O7 O2- 0.020(3) 0.012(2) 0.031(3) -0.004(2) -0.001(2) 0.000(2)
O8 O2- 0.021(3) 0.023(3) 0.012(2) 0.009(2) 0.002(2) 0.003(2)
O9 O2- 0.022(3) 0.017(3) 0.015(2) 0.004(2) -0.001(2) 0.0008(19)
O10 O2- 0.019(3) 0.017(3) 0.023(3) 0.003(2) 0.003(2) 0.002(2)
O11 O2- 0.012(2) 0.015(2) 0.015(2) 0.0021(18) -0.0019(19) -0.0005(19)
#End of data_420854-ICSD


