data_15045-ICSD
#?2014 by Fachinformationszentrum Karlsruhe, and the U.S. Secretary of 
#Commerce on behalf of the United States.  All rights reserved.
_database_code_ICSD                15045
_audit_creation_date               1980/01/01
_audit_update_record               2012/08/01
_chemical_name_systematic          'Lithium Dihydrogenphosphate(III)'
_chemical_formula_structural       'Li (H2 P O3)'
_chemical_formula_sum              'H2 Li1 O3 P1'
_publ_section_title
;
The crystal structure of lithium hydrogen phosphite, Li H2 P O3
;
loop_
_citation_id
_citation_journal_abbrev
_citation_year
_citation_journal_volume
_citation_page_first
_citation_page_last
_citation_journal_id_ASTM
primary 'Acta Chemica Scandinavica (1-27,1973-42,1988)' 1970 24 2803 2810 ACSAA4
2
;
Comptes Rendus Hebdomadaires des Seances de l`Academie des Sciences, 
Serie C, Sciences Chimiques (1966-)
;
 1970 270 1395 1396 CHDCAQ
_publ_author_name                  'Philippot, E.;Lindqvist, O.'
_cell_length_a                     5.169(2)
_cell_length_b                     11.024(2)
_cell_length_c                     5.060(2)
_cell_angle_alpha                  90.
_cell_angle_beta                   90.
_cell_angle_gamma                  90.
_cell_volume                       288.33
_cell_formula_units_Z              4
_symmetry_space_group_name_H-M     'P 21 n b'
_symmetry_Int_Tables_number        33
_refine_ls_R_factor_all            .063
loop_
_symmetry_equiv_pos_site_id
_symmetry_equiv_pos_as_xyz
  1	'x, y+.5, -z+.5'
  2	'x+.5, -y+.5, z+.5'
  3	'x+.5, -y, -z'
  4	'x, y, z'
loop_
_atom_type_symbol
_atom_type_oxidation_number
H1-	-1
H1+	1
Li1+	1
O2-	-2
P5+	5
loop_
_atom_site_label
_atom_site_type_symbol
_atom_site_symmetry_multiplicity
_atom_site_Wyckoff_symbol
_atom_site_fract_x
_atom_site_fract_y
_atom_site_fract_z
_atom_site_occupancy
_atom_site_attached_hydrogens
_atom_site_B_iso_or_equiv
P1 P5+ 4 a 0.246 0.1534(1) 0.1800(3) 1. 0 0 
O1 O2- 4 a 0.2007(15) 0.2868(4) 0.2316(10) 1. 0 0 
O2 O2- 4 a 0.5398(14) 0.1219(5) 0.1684(10) 1. 0 0 
O3 O2- 4 a 0.1242(16) 0.0702(4) 0.3777(10) 1. 0 0 
Li1 Li1+ 4 a 0.2559(38) 0.4214(9) -.0186(25) 1. 0 0 
H1 H1- 4 a 0.665(14) 0.368(4) 0.470(11) 1. 0 -1. 
H2 H1+ 4 a 0.119(38) 0.351(9) 0.459(31) 1. 0 5. 

loop_
_atom_site_aniso_label
_atom_site_aniso_type_symbol
_atom_site_aniso_U_11
_atom_site_aniso_U_22
_atom_site_aniso_U_33
_atom_site_aniso_U_12
_atom_site_aniso_U_13
_atom_site_aniso_U_23
P1 P5+ 0.022(2) 0.016(1) 0.018(1) 0.0025(10) 0.0005(10) 0.0010(5)
O1 O2- 0.022(4) 0.020(2) 0.022(2) 0.003(2) 0.0070(25) 0.000(2)
O2 O2- 0.010(5) 0.206(3) 0.023(3) -.0015(25) 0.0005(20) 0.005(2)
O3 O2- 0.018(4) 0.017(2) 0.027(2) 0.003(2) 0.0030(25) 0.006(2)
Li1 Li1+ 0.011(8) 0.021(4) 0.036(6) 0.0045(60) 0.0030(55) -.0055(45)
#End of data_15045-ICSD


