data_86488-ICSD
#?2014 by Fachinformationszentrum Karlsruhe, and the U.S. Secretary of 
#Commerce on behalf of the United States.  All rights reserved.
_database_code_ICSD                86488
_audit_creation_date               1999/11/30
_chemical_name_systematic          'Zinc Diantimony Tetraoxide'
_chemical_formula_structural       'Zn Sb2 O4'
_chemical_formula_sum              'O4 Sb2 Zn1'
_publ_section_title
;
Sur les composes isomorphes Me X2 O4: evolution structurale par 
diffraction de neutrons de Ni Sb2 O4 et Zn Sb2 O4 entre 5 et 300 
K:anisotropie, rigidite
;
loop_
_citation_id
_citation_journal_abbrev
_citation_year
_citation_journal_volume
_citation_page_first
_citation_page_last
_citation_journal_id_ASTM
primary
;
Comptes Rendus Hebdomadaires des Seances de l`Academie des Sciences, 
Serie 2 (-1983)
;
 1981 292 895 898 CRSUDO
_publ_author_name                  'Gavarri, J.R.'
_cell_length_a                     8.4819(3)
_cell_length_b                     8.4819(3)
_cell_length_c                     5.9216(3)
_cell_angle_alpha                  90.
_cell_angle_beta                   90.
_cell_angle_gamma                  90.
_cell_volume                       426.02
_cell_formula_units_Z              4
_symmetry_space_group_name_H-M     'P 42/m b c'
_symmetry_Int_Tables_number        135
loop_
_symmetry_equiv_pos_site_id
_symmetry_equiv_pos_as_xyz
  1	'-y+.5, -x+.5, z+.5'
  2	'-x+.5, y+.5, z'
  3	'y, -x, z+.5'
  4	'-x, -y, z'
  5	'-y+.5, -x+.5, -z+.5'
  6	'-x+.5, y+.5, -z'
  7	'y, -x, -z+.5'
  8	'-x, -y, -z'
  9	'y+.5, x+.5, -z+.5'
 10	'x+.5, -y+.5, -z'
 11	'-y, x, -z+.5'
 12	'x, y, -z'
 13	'y+.5, x+.5, z+.5'
 14	'x+.5, -y+.5, z'
 15	'-y, x, z+.5'
 16	'x, y, z'
loop_
_atom_type_symbol
_atom_type_oxidation_number
O2-	-2
Sb3+	3
Zn2+	2
loop_
_atom_site_label
_atom_site_type_symbol
_atom_site_symmetry_multiplicity
_atom_site_Wyckoff_symbol
_atom_site_fract_x
_atom_site_fract_y
_atom_site_fract_z
_atom_site_occupancy
_atom_site_attached_hydrogens
_atom_site_B_iso_or_equiv
Zn1 Zn2+ 4 d 0 0.5 0.25 1. 0 0.233 
Sb1 Sb3+ 8 h 0.1775(3) 0.1613(3) 0 1. 0 0.233 
O1 O2- 8 g 0.6802(3) 0.1802(3) 0.25 1. 0 0.233 
O2 O2- 8 h 0.0948(3) 0.6412(3) 0 1. 0 0.233 

#End of data_86488-ICSD


