data_174095-ICSD
#?2014 by Fachinformationszentrum Karlsruhe, and the U.S. Secretary of 
#Commerce on behalf of the United States.  All rights reserved.
_database_code_ICSD                174095
_audit_creation_date               2010/02/01
_chemical_name_systematic          'Trisilver Sulfide Iodide - Gamma'
_chemical_formula_structural       'Ag3 S I'
_chemical_formula_sum              'Ag3 I1 S1'
_publ_section_title
;
A structural phase transition in superionic conductor Ag3 S I
;
loop_
_citation_id
_citation_journal_abbrev
_citation_year
_citation_journal_volume
_citation_journal_issue
_citation_page_first
_citation_page_last
_citation_journal_id_ASTM
primary 'Journal of the Physical Society of Japan' 1979 47 4 1252 1259 JUPSAU
_publ_author_name                  'Hoshino, S.;Sakuma, T.;Fujii, Y.'
_cell_length_a                     4.869(1)
_cell_length_b                     4.869(1)
_cell_length_c                     4.869(1)
_cell_angle_alpha                  90.
_cell_angle_beta                   90.
_cell_angle_gamma                  90.
_cell_volume                       115.43
_cell_formula_units_Z              1
_symmetry_space_group_name_H-M     'R 3 R'
_symmetry_Int_Tables_number        146
_refine_ls_R_factor_all            .071
loop_
_symmetry_equiv_pos_site_id
_symmetry_equiv_pos_as_xyz
  1	'z, x, y'
  2	'y, z, x'
  3	'x, y, z'
loop_
_atom_type_symbol
_atom_type_oxidation_number
Ag1+	1
I1-	-1
S2-	-2
loop_
_atom_site_label
_atom_site_type_symbol
_atom_site_symmetry_multiplicity
_atom_site_Wyckoff_symbol
_atom_site_fract_x
_atom_site_fract_y
_atom_site_fract_z
_atom_site_occupancy
_atom_site_attached_hydrogens
_atom_site_B_iso_or_equiv
Ag1 Ag1+ 3 b 0.528(7) 0.386(6) 0.020(13) 1. 0 2.732(840) 
S1 S2- 1 a 0.530(15) 0.530(15) 0.530(15) 1. 0 1.303(2700) 
I1 I1- 1 a 0 0 0 1. 0 0.622(834) 

#End of data_174095-ICSD


