data_2134-ICSD
#?2014 by Fachinformationszentrum Karlsruhe, and the U.S. Secretary of 
#Commerce on behalf of the United States.  All rights reserved.
_database_code_ICSD                2134
_audit_creation_date               1980/01/01
_audit_update_record               2012/08/01
_chemical_name_systematic          'Aluminium Tungstate'
_chemical_formula_structural       'Al2 (W O4)3'
_chemical_formula_sum              'Al2 O12 W3'
_publ_section_title
;
Redetermination of the Al S (W O4)3 structure
;
loop_
_citation_id
_citation_journal_abbrev
_citation_year
_citation_journal_volume
_citation_page_first
_citation_page_last
_citation_journal_id_ASTM
primary 'Acta Crystallographica B (24,1968-38,1982)' 1974 30 1878 1880 ACBCAR
_publ_author_name                  'de Boer, J.J.'
_cell_length_a                     12.574(5)
_cell_length_b                     9.045(4)
_cell_length_c                     9.121(4)
_cell_angle_alpha                  90.
_cell_angle_beta                   90.
_cell_angle_gamma                  90.
_cell_volume                       1037.35
_cell_formula_units_Z              4
_symmetry_space_group_name_H-M     'P b c n'
_symmetry_Int_Tables_number        60
_refine_ls_R_factor_all            .047
loop_
_symmetry_equiv_pos_site_id
_symmetry_equiv_pos_as_xyz
  1	'x, -y, z+.5'
  2	'-x+.5, y+.5, z'
  3	'x+.5, y+.5, -z+.5'
  4	'-x, -y, -z'
  5	'-x, y, -z+.5'
  6	'x+.5, -y+.5, -z'
  7	'-x+.5, -y+.5, z+.5'
  8	'x, y, z'
loop_
_atom_type_symbol
_atom_type_oxidation_number
Al3+	3
O2-	-2
W6+	6
loop_
_atom_site_label
_atom_site_type_symbol
_atom_site_symmetry_multiplicity
_atom_site_Wyckoff_symbol
_atom_site_fract_x
_atom_site_fract_y
_atom_site_fract_z
_atom_site_occupancy
_atom_site_attached_hydrogens
_atom_site_B_iso_or_equiv
W1 W6+ 4 c 0 0.4745(1) 0.25 1. 0 0 
W2 W6+ 8 d 0.3554(6) 0.3958(9) 0.1179(9) 1. 0 0 
Al1 Al3+ 8 d 0.3806(4) 0.2497(7) 0.4468(7) 1. 0 0.53 
O1 O2- 8 d 0.1400(12) 0.0894(17) 0.0911(19) 1. 0 1.6 
O2 O2- 8 d 0.0651(12) 0.3549(17) 0.1218(8) 1. 0 1.6 
O3 O2- 8 d 0.2558(11) 0.3172(17) 0.0073(18) 1. 0 1.4 
O4 O2- 8 d 0.4069(12) 0.0882(18) 0.3377(19) 1. 0 1.5 
O5 O2- 8 d 0.4794(11) 0.3194(17) 0.0682(19) 1. 0 1.4 
O6 O2- 8 d 0.3318(11) 0.3607(17) 0.3058(17) 1. 0 1.2 

#End of data_2134-ICSD


