data_290224-ICSD
#?2014 by Fachinformationszentrum Karlsruhe, and the U.S. Secretary of 
#Commerce on behalf of the United States.  All rights reserved.
_database_code_ICSD                290224
_audit_creation_date               2013/08/01
_chemical_name_systematic          'Magnesium Silicate'
_chemical_formula_structural       'Mg Si O3'
_chemical_formula_sum              'Mg1 O3 Si1'
_chemical_name_mineral             Orthoenstatite
_publ_section_title
;
Re-investigation of the crystal structure of enstatite under high-
pressure conditions
;
loop_
_citation_id
_citation_journal_abbrev
_citation_year
_citation_journal_volume
_citation_journal_issue
_citation_page_first
_citation_page_last
_citation_journal_id_ASTM
primary 'American Mineralogist' 2012 97 10 1741 1748 AMMIAY
_publ_author_name
;
Periotto, B.;Balic-Zunic, T.;Nestola, F.;Katerinopoulou, A.;Angel, 
R.J.
;
_cell_length_a                     17.897(3)
_cell_length_b                     8.575(2)
_cell_length_c                     5.0664(4)
_cell_angle_alpha                  90.
_cell_angle_beta                   90.
_cell_angle_gamma                  90.
_cell_volume                       777.52
_cell_formula_units_Z              16
_symmetry_space_group_name_H-M     'P b c a'
_symmetry_Int_Tables_number        61
_refine_ls_R_factor_all            .046
loop_
_symmetry_equiv_pos_site_id
_symmetry_equiv_pos_as_xyz
  1	'x+.5, y, -z+.5'
  2	'x, -y+.5, z+.5'
  3	'-x+.5, y+.5, z'
  4	'-x, -y, -z'
  5	'-x+.5, -y, z+.5'
  6	'-x, y+.5, -z+.5'
  7	'x+.5, -y+.5, -z'
  8	'x, y, z'
loop_
_atom_type_symbol
_atom_type_oxidation_number
Mg2+	2
O2-	-2
Si4+	4
loop_
_atom_site_label
_atom_site_type_symbol
_atom_site_symmetry_multiplicity
_atom_site_Wyckoff_symbol
_atom_site_fract_x
_atom_site_fract_y
_atom_site_fract_z
_atom_site_occupancy
_atom_site_attached_hydrogens
_atom_site_U_iso_or_equiv
Mg1 Mg2+ 8 c 0.3775(1) 0.4824(2) 0.3466(3) 1. 0 0.0090(6) 
Mg2 Mg2+ 8 c 0.3765(1) 0.6575(2) 0.8544(3) 1. 0 0.0065(6) 
Si1 Si4+ 8 c 0.2711(1) 0.3443(2) 0.0378(2) 1. 0 0.0057(5) 
Si2 Si4+ 8 c 0.47243(9) 0.3381(2) 0.0050(5) 1. 0 0.0050(5) 
O1 O2- 8 c 0.1821(2) 0.3400(5) 0.0207(6) 1. 0 0.0046(8) 
O2 O2- 8 c 0.3093(2) 0.5091(5) 0.0306(6) 1. 0 0.008(1) 
O3 O2- 8 c 0.3043(2) 0.2224(5) 0.8211(6) 1. 0 0.0043(9) 
O4 O2- 8 c 0.5619(2) 0.3386(5) 0.8100(6) 1. 0 0.0060(8) 
O5 O2- 8 c 0.4331(2) 0.4855(4) 0.6809(6) 1. 0 0.0070(9) 
O6 O2- 8 c 0.4455(2) 0.1885(4) 0.6171(6) 1. 0 0.0039(8) 

#End of data_290224-ICSD


