data_190486-ICSD
#?2014 by Fachinformationszentrum Karlsruhe, and the U.S. Secretary of 
#Commerce on behalf of the United States.  All rights reserved.
_database_code_ICSD                190486
_audit_creation_date               2014/08/01
_chemical_name_systematic          'Dicalcium Indium Osmium Hexaoxide'
_chemical_formula_structural       'Ca2 In Os O6'
_chemical_formula_sum              'Ca2 In1 O6 Os1'
_publ_section_title
;
Synthesis, structure, and magnetic properties of a new double 
perovskite Ca2 In Os O6
;
loop_
_citation_id
_citation_journal_abbrev
_citation_year
_citation_journal_volume
_citation_page_first
_citation_page_last
_citation_journal_id_ASTM
primary 'Physics Procedia' 2013 45 117 120 PPHRCK
_publ_author_name
;
Feng, H.L.;Sathish, C.I.;Li, J.;Wang, X.;Yamaura, K.
;
_cell_length_a                     5.4889(3)
_cell_length_b                     5.6785(1)
_cell_length_c                     7.8576(2)
_cell_angle_alpha                  90.
_cell_angle_beta                   90.12(2)
_cell_angle_gamma                  90.
_cell_volume                       244.91
_cell_formula_units_Z              2
_symmetry_space_group_name_H-M     'P 1 21/n 1'
_symmetry_Int_Tables_number        14
_refine_ls_R_factor_all            .0799
loop_
_symmetry_equiv_pos_site_id
_symmetry_equiv_pos_as_xyz
  1	'-x+.5, y+.5, -z+.5'
  2	'-x, -y, -z'
  3	'x+.5, -y+.5, z+.5'
  4	'x, y, z'
loop_
_atom_type_symbol
_atom_type_oxidation_number
Ca2+	2
In3+	3
O2-	-2
Os5+	5
loop_
_atom_site_label
_atom_site_type_symbol
_atom_site_symmetry_multiplicity
_atom_site_Wyckoff_symbol
_atom_site_fract_x
_atom_site_fract_y
_atom_site_fract_z
_atom_site_occupancy
_atom_site_attached_hydrogens
_atom_site_B_iso_or_equiv
Ca1 Ca2+ 4 e 0.0137(2) 0.0575(4) 0.252(3) 1. 0 0.28(4) 
In1 In3+ 2 d 0.5 0 0 1. 0 0.56(4) 
Os1 Os5+ 2 c 0.5 0 0.5 1. 0 0.13(2) 
O1 O2- 4 e 0.280(3) 0.311(3) 0.060(5) 1. 0 1. 
O2 O2- 4 e 0.186(3) 0.782(3) 0.048(5) 1. 0 1. 
O3 O2- 4 e 0.891(2) 0.494(3) 0.243(4) 1. 0 1. 

#End of data_190486-ICSD


