data_69600-ICSD
#?2014 by Fachinformationszentrum Karlsruhe, and the U.S. Secretary of 
#Commerce on behalf of the United States.  All rights reserved.
_database_code_ICSD                69600
_audit_creation_date               1992/08/20
_chemical_name_systematic
;
Magnesium Silicate Oxide (14/5/4) - Anhb
;
_chemical_formula_structural       'Mg14 (Si O4)5 O4'
_chemical_formula_sum              'Mg14 O24 Si5'
_publ_section_title
;
Crystal structures of Mg12Si4O19(OH)2 (phase B) and Mg14Si5O24 (phase 
AnhB)
;
loop_
_citation_id
_citation_journal_abbrev
_citation_year
_citation_journal_volume
_citation_page_first
_citation_page_last
_citation_journal_id_ASTM
primary 'American Mineralogist' 1991 76 1 7 AMMIAY
_publ_author_name
;
Finger, L.W.;Hazen, R.M.;Prewitt, C.T.
;
_cell_length_a                     5.868(1)
_cell_length_b                     14.178(1)
_cell_length_c                     10.048(1)
_cell_angle_alpha                  90.
_cell_angle_beta                   90.
_cell_angle_gamma                  90.
_cell_volume                       835.96
_cell_formula_units_Z              2
_symmetry_space_group_name_H-M     'P m c b'
_symmetry_Int_Tables_number        55
_refine_ls_R_factor_all            .04
loop_
_symmetry_equiv_pos_site_id
_symmetry_equiv_pos_as_xyz
  1	'x, -y+.5, z+.5'
  2	'x, y+.5, -z+.5'
  3	'-x, y, z'
  4	'-x, -y, -z'
  5	'-x, y+.5, -z+.5'
  6	'-x, -y+.5, z+.5'
  7	'x, -y, -z'
  8	'x, y, z'
loop_
_atom_type_symbol
_atom_type_oxidation_number
Mg2+	2
O2-	-2
Si4+	4
loop_
_atom_site_label
_atom_site_type_symbol
_atom_site_symmetry_multiplicity
_atom_site_Wyckoff_symbol
_atom_site_fract_x
_atom_site_fract_y
_atom_site_fract_z
_atom_site_occupancy
_atom_site_attached_hydrogens
_atom_site_B_iso_or_equiv
Si1 Si4+ 2 a 0 0 0 1. 0 0.33(2) 
Si2 Si4+ 4 h 0.5 0.31141(5) 0.17445(7) 1. 0 0.35(1) 
Si3 Si4+ 4 g 0 0.37524(5) 0.99754(8) 1. 0 0.34(1) 
Mg1 Mg2+ 2 d 0.5 0 0.5 1. 0 0.47(2) 
Mg2 Mg2+ 4 h 0.5 0.17460(5) 0.35469(9) 1. 0 0.46(1) 
Mg3 Mg2+ 2 b 0.5 0 0 1. 0 0.48(2) 
Mg4 Mg2+ 8 i 0.24050(9) 0.00241(4) 0.25354(6) 1. 0 0.44(1) 
Mg5 Mg2+ 4 g 0 0.17612(6) 0.82058(9) 1. 0 0.48(1) 
Mg6 Mg2+ 8 i 0.24396(10) 0.16958(4) 0.08108(6) 1. 0 0.46(1) 
O1 O2- 4 g 0 0.91394(13) 0.34705(18) 1. 0 0.47(3) 
O2 O2- 4 g 0 0.57564(12) 0.35375(19) 1. 0 0.37(3) 
O3 O2- 4 g 0 0.24165(12) 0.49605(19) 1. 0 0.45(3) 
O4 O2- 4 h 0.5 0.08599(13) 0.17186(18) 1. 0 0.44(3) 
O5 O2- 4 h 0.5 0.42488(12) 0.16958(19) 1. 0 0.42(3) 
O6 O2- 4 h 0.5 0.76001(13) 0.47153(16) 1. 0 0.44(3) 
O7 O2- 8 i 0.2342(2) 0.08741(8) 0.42136(11) 1. 0 0.45(2) 
O8 O2- 8 i 0.2147(2) 0.42653(8) 0.42534(12) 1. 0 0.47(2) 
O9 O2- 8 i 0.2824(2) 0.76221(8) 0.25276(12) 1. 0 0.48(2) 

#End of data_69600-ICSD


