data_50842-ICSD
#?2014 by Fachinformationszentrum Karlsruhe, and the U.S. Secretary of 
#Commerce on behalf of the United States.  All rights reserved.
_database_code_ICSD                50842
_audit_creation_date               2000/12/16
_audit_update_record               2010/08/01
_chemical_name_systematic          'Dicalcium Dinitridoboride Fluoride'
_chemical_formula_structural       'Ca2 (B N2) F'
_chemical_formula_sum              'B1 Ca2 F1 N2'
_publ_section_title
;
M2 B N2 X (M = Ca, Sr; X = F, Cl): New halogenide compounds with 
isolated (B N2)3- units
;
loop_
_citation_id
_citation_journal_abbrev
_citation_year
_citation_journal_volume
_citation_page_first
_citation_page_last
_citation_journal_id_ASTM
primary 'Journal of Solid State Chemistry' 1998 135 194 200 JSSCBI
_publ_author_name                  'Rohrer, F.E.;Nesper, R.'
_cell_length_a                     9.182(2)
_cell_length_b                     3.649(1)
_cell_length_c                     9.966(2)
_cell_angle_alpha                  90.
_cell_angle_beta                   90.
_cell_angle_gamma                  90.
_cell_volume                       333.91
_cell_formula_units_Z              4
_symmetry_space_group_name_H-M     'P n m a'
_symmetry_Int_Tables_number        62
_refine_ls_R_factor_all            .0326
loop_
_symmetry_equiv_pos_site_id
_symmetry_equiv_pos_as_xyz
  1	'x+.5, y, -z+.5'
  2	'x, -y+.5, z'
  3	'-x+.5, y+.5, z+.5'
  4	'-x, -y, -z'
  5	'-x+.5, -y, z+.5'
  6	'-x, y+.5, -z'
  7	'x+.5, -y+.5, -z+.5'
  8	'x, y, z'
loop_
_atom_type_symbol
_atom_type_oxidation_number
B3+	3
Ca2+	2
F1-	-1
N3-	-3
loop_
_atom_site_label
_atom_site_type_symbol
_atom_site_symmetry_multiplicity
_atom_site_Wyckoff_symbol
_atom_site_fract_x
_atom_site_fract_y
_atom_site_fract_z
_atom_site_occupancy
_atom_site_attached_hydrogens
Ca1 Ca2+ 4 c 0.0250(1) 0.25 0.1568(1) 1. 0 
Ca2 Ca2+ 4 c 0.6752(1) 0.25 0.9742(1) 1. 0 
F1 F1- 4 c 0.4591(1) 0.25 0.1048(2) 1. 0 
N1 N3- 4 c 0.8220(3) 0.25 0.7813(2) 1. 0 
N2 N3- 4 c 0.1532(2) 0.25 0.9538(2) 1. 0 
B1 B3+ 4 c 0.1532(2) 0.25 0.8240(3) 1. 0 

loop_
_atom_site_aniso_label
_atom_site_aniso_type_symbol
_atom_site_aniso_U_11
_atom_site_aniso_U_22
_atom_site_aniso_U_33
_atom_site_aniso_U_12
_atom_site_aniso_U_13
_atom_site_aniso_U_23
Ca1 Ca2+ 0.015(1) 0.012(1) 0.012(1) 0 0.000(1) 0
Ca2 Ca2+ 0.012(1) 0.014(1) 0.014(1) 0 0.000(1) 0
F1 F1- 0.017(1) 0.015(1) 0.016(1) 0 -.001(1) 0
N1 N3- 0.018(1) 0.013(1) 0.016(1) 0 0.000(1) 0
N2 N3- 0.017(1) 0.015(1) 0.015(1) 0 -.002(1) 0
B1 B3+ 0.017(1) 0.007(2) 0.015(1) 0 -.005(1) 0
#End of data_50842-ICSD


