data_605920-ICSD
#?2014 by Fachinformationszentrum Karlsruhe, and the U.S. Secretary of 
#Commerce on behalf of the United States.  All rights reserved.
_database_code_ICSD                605920
_audit_creation_date               2012/02/01
_chemical_name_systematic          'Yttrium Silver Telluride (1/1/2)'
_chemical_formula_structural       'Y Ag Te2'
_chemical_formula_sum              'Ag1 Te2 Y1'
_publ_section_title
;
Chimie minerale. Les composes AgLTe2 formes par les elements des 
terres rares
;
loop_
_citation_id
_citation_journal_abbrev
_citation_year
_citation_journal_volume
_citation_page_first
_citation_page_last
_citation_journal_id_ASTM
primary
;
Comptes Rendus Hebdomadaires des Seances de l`Academie des Sciences, 
Serie C, Sciences Chimiques (1966-)
;
 1973 276 599 602 CHDCAQ
_publ_author_name
;
Pardo, M.P.;Julien-Pouzol, M.;Flahaut, J.
;
_cell_length_a                     7.126
_cell_length_b                     7.126
_cell_length_c                     4.581
_cell_angle_alpha                  90.0
_cell_angle_beta                   90.0
_cell_angle_gamma                  90.0
_cell_volume                       232.62
_cell_formula_units_Z              2
_symmetry_space_group_name_H-M     'P -4 21 m'
_symmetry_Int_Tables_number        113
loop_
_symmetry_equiv_pos_site_id
_symmetry_equiv_pos_as_xyz
  1	'-y+.5, -x+.5, z'
  2	'y, -x, -z'
  3	'y+.5, x+.5, z'
  4	'-y, x, -z'
  5	'x+.5, -y+.5, -z'
  6	'-x, -y, z'
  7	'-x+.5, y+.5, -z'
  8	'x, y, z'
loop_
_atom_type_symbol
_atom_type_oxidation_number
Ag1+	1
Te2-	-2
Y3+	3
loop_
_atom_site_label
_atom_site_type_symbol
_atom_site_symmetry_multiplicity
_atom_site_Wyckoff_symbol
_atom_site_fract_x
_atom_site_fract_y
_atom_site_fract_z
_atom_site_occupancy
_atom_site_attached_hydrogens
Ag1 Ag1+ 2 a 0 0 0 1. 0 
Y1 Y3+ 2 c 0 0.5 0.798 1. 0 
Te1 Te2- 4 e 0.797 0.297 0.288 1. 0 

#End of data_605920-ICSD


