data_158871-ICSD
#?2014 by Fachinformationszentrum Karlsruhe, and the U.S. Secretary of 
#Commerce on behalf of the United States.  All rights reserved.
_database_code_ICSD                158871
_audit_creation_date               2008/08/01
_audit_update_record               2013/08/01
_chemical_name_systematic
;
Potassium Lead Hafnium Molybdate (5/0.5/1.5/6)
;
_chemical_formula_structural       'K5 Pb0.5 Hf1.5 (Mo O4)6'
_chemical_formula_sum              'Hf1.5 K5 Mo6 O24 Pb0.5'
_publ_section_title
;
Synthesis and crystal structure of ternary molybdate compound K5 
Pb0.5 Hf1.5 (Mo O4)6
;
loop_
_citation_id
_citation_journal_abbrev
_citation_year
_citation_journal_volume
_citation_journal_issue
_citation_page_first
_citation_page_last
_citation_journal_id_ASTM
primary 'Zhurnal Strukturnoi Khimii (Issue-No. from 1981)'
 2005 46 4 776 780 ZSTKAI
2 'Journal of Structural Chemistry (USSR) (= Zhurnal Strukturnoi Khimii)'
 2005 46 4 756 760 JSTCAM
_publ_author_name
;
Bazarov, B.G.;Klevtsova, R.F.;Sarapulova, A.E.;Fedorov, 
K.N.;Glinskaya, L.A.;Bazarova, Zh.G.
;
_cell_length_a                     10.739(2)
_cell_length_b                     10.739(2)
_cell_length_c                     37.933(9)
_cell_angle_alpha                  90.
_cell_angle_beta                   90.
_cell_angle_gamma                  120.
_cell_volume                       3788.57
_cell_formula_units_Z              6
_symmetry_space_group_name_H-M     'R -3 H'
_symmetry_Int_Tables_number        148
_refine_ls_R_factor_all            .0321
loop_
_symmetry_equiv_pos_site_id
_symmetry_equiv_pos_as_xyz
  1	'x-y, x, -z'
  2	'y, -x+y, -z'
  3	'-x, -y, -z'
  4	'-x+y, -x, z'
  5	'-y, x-y, z'
  6	'x, y, z'
  7	'x-y+.6666, x+.3333, -z+.3333'
  8	'x-y+.3333, x+.6666, -z+.6666'
  9	'y+.6666, -x+y+.3333, -z+.3333'
 10	'y+.3333, -x+y+.6666, -z+.6666'
 11	'-x+.6666, -y+.3333, -z+.3333'
 12	'-x+.3333, -y+.6666, -z+.6666'
 13	'-x+y+.6666, -x+.3333, z+.3333'
 14	'-x+y+.3333, -x+.6666, z+.6666'
 15	'-y+.6666, x-y+.3333, z+.3333'
 16	'-y+.3333, x-y+.6666, z+.6666'
 17	'x+.6666, y+.3333, z+.3333'
 18	'x+.3333, y+.6666, z+.6666'
loop_
_atom_type_symbol
_atom_type_oxidation_number
Hf4+	4
K1+	1
Mo6+	6
O2-	-2
Pb2+	2
loop_
_atom_site_label
_atom_site_type_symbol
_atom_site_symmetry_multiplicity
_atom_site_Wyckoff_symbol
_atom_site_fract_x
_atom_site_fract_y
_atom_site_fract_z
_atom_site_occupancy
_atom_site_attached_hydrogens
_atom_site_U_iso_or_equiv
Mo1 Mo6+ 18 f 0.9861(1) 0.6200(1) 0.1316(1) 1. 0 0.025(1) 
Mo2 Mo6+ 18 f 0.3565(1) 0.2804(1) 0.0306(1) 1. 0 0.027(1) 
Pb1 Pb2+ 3 b 0 0 0.5 1. 0 0.028(1) 
Hf1 Hf4+ 3 a 0 0 0 1. 0 0.014(1) 
Hf2 Hf4+ 6 c 0 0 0.7506(1) 1. 0 0.014(1) 
K1 K1+ 6 c 0 0 0.8503(1) 1. 0 0.038(1) 
K2 K1+ 6 c 0 0 0.6276(3) 1. 0 0.143(5) 
K3 K1+ 18 f 0.2741(3) -.0488(3) 0.0854(1) 1. 0 0.055(1) 
O1 O2- 18 f 0.3754(8) 0.3362(9) 0.1763(1) 1. 0 0.021(1) 
O2 O2- 18 f 0.9745(8) 0.7615(7) 0.1124(2) 1. 0 0.037(2) 
O3 O2- 18 f 0.1594(8) 0.6478(9) 0.1239(3) 1. 0 0.075(3) 
O4 O2- 18 f 0.8477(6) 0.4443(6) 0.1151(2) 1. 0 0.028(1) 
O5 O2- 18 f 0.4023(8) 0.3214(9) -0.0129(2) 1. 0 0.057(2) 
O6 O2- 18 f 0.3580(8) 0.4262(8) 0.0508(3) 1. 0 0.052(2) 
O7 O2- 18 f 0.1764(6) 0.1218(6) 0.0321(2) 1. 0 0.030(1) 
O8 O2- 18 f 0.4834(6) 0.2365(7) 0.0520(2) 1. 0 0.029(1) 

#End of data_158871-ICSD


