data_236184-ICSD
#?2014 by Fachinformationszentrum Karlsruhe, and the U.S. Secretary of 
#Commerce on behalf of the United States.  All rights reserved.
_database_code_ICSD                236184
_audit_creation_date               2013/08/01
_chemical_name_systematic
;
Potassium Trihydrogen Hypodiphosphate
;
_chemical_formula_structural       'K (H3 P2 O6)'
_chemical_formula_sum              'H3 K1 O6 P2'
_publ_section_title
;
Potassium salts of hypodiphosphoric acid
;
loop_
_citation_id
_citation_journal_abbrev
_citation_year
_citation_journal_volume
_citation_journal_issue
_citation_page_first
_citation_page_last
_citation_journal_id_ASTM
primary 'Acta Crystallographica, Section C: Crystal Structure Communications'
 2012 68 12 i71 i82 ACSCEE
_publ_author_name
;
Szafranowska, B.;Slepokura, K.;Lis, T.
;
_cell_length_a                     7.020(3)
_cell_length_b                     11.043(4)
_cell_length_c                     7.803(3)
_cell_angle_alpha                  90.00
_cell_angle_beta                   92.82(4)
_cell_angle_gamma                  90.00
_cell_volume                       604.17
_cell_formula_units_Z              4
_symmetry_space_group_name_H-M     'P 1 21/n 1'
_symmetry_Int_Tables_number        14
_refine_ls_R_factor_all            .0223
loop_
_symmetry_equiv_pos_site_id
_symmetry_equiv_pos_as_xyz
  1	'-x+.5, y+.5, -z+.5'
  2	'-x, -y, -z'
  3	'x+.5, -y+.5, z+.5'
  4	'x, y, z'
loop_
_atom_type_symbol
_atom_type_oxidation_number
H1+	1
K1+	1
O2-	-2
P4+	4
loop_
_atom_site_label
_atom_site_type_symbol
_atom_site_symmetry_multiplicity
_atom_site_Wyckoff_symbol
_atom_site_fract_x
_atom_site_fract_y
_atom_site_fract_z
_atom_site_occupancy
_atom_site_attached_hydrogens
_atom_site_U_iso_or_equiv
K1 K1+ 4 e 1.06694(3) 0.754914(19) 0.49954(3) 1 0 0.01271(5) 
P1 P4+ 4 e 0.56651(3) 0.91516(2) 0.54121(3) 1 0 0.00702(5) 
O1 O2- 4 e 0.57958(11) 0.90843(6) 0.73374(9) 1 0 0.01078(12) 
O2 O2- 4 e 0.44172(10) 0.81759(6) 0.45227(9) 1 0 0.01101(12) 
H1 H1+ 4 e 0.508(3) 0.7376(15) 0.401(2) 1 0 0.017 
O3 O2- 4 e 0.77029(11) 0.91660(7) 0.46985(9) 1 0 0.01125(12) 
H2 H1+ 4 e 0.771(3) 0.9208(15) 0.3623(3) 1 0 0.017 
P2 P4+ 4 e 0.62895(4) 0.52970(2) 0.43872(3) 1 0 0.00771(5) 
O4 O2- 4 e 0.70699(11) 0.42203(6) 0.34639(9) 1 0 0.01107(12) 
O5 O2- 4 e 0.57615(11) 0.63768(6) 0.32327(9) 1 0 0.01056(12) 
O6 O2- 4 e 0.76870(11) 0.57699(7) 0.58610(9) 1 0 0.01243(13) 
H3 H1+ 4 e 0.813(2) 0.5215(11) 0.6502(18) 1 0 0.019 

loop_
_atom_site_aniso_label
_atom_site_aniso_type_symbol
_atom_site_aniso_U_11
_atom_site_aniso_U_22
_atom_site_aniso_U_33
_atom_site_aniso_U_12
_atom_site_aniso_U_13
_atom_site_aniso_U_23
K1 K1+ 0.01150(9) 0.01308(8) 0.01341(9) 0.00314(7) -0.00072(6) -0.00306(6)
P1 P4+ 0.00796(10) 0.00624(9) 0.00682(9) 0.00055(7) -0.00004(7) 0.00020(6)
O1 O2- 0.0141(3) 0.0111(3) 0.0071(3) 0.0000(2) 0.0003(2) 0.0011(2)
O2 O2- 0.0118(3) 0.0072(2) 0.0140(3) -0.0004(2) -0.0006(2) -0.0023(2)
O3 O2- 0.0088(3) 0.0148(3) 0.0102(3) 0.0019(2) 0.0014(2) 0.0017(2)
P2 P4+ 0.00916(10) 0.00707(9) 0.00698(9) 0.00101(7) 0.00109(7) -0.00017(7)
O4 O2- 0.0142(3) 0.0091(3) 0.0103(3) 0.0035(2) 0.0045(2) 0.0000(2)
O5 O2- 0.0152(3) 0.0080(2) 0.0085(3) 0.0023(2) 0.0009(2) 0.0011(2)
O6 O2- 0.0138(3) 0.0119(3) 0.0112(3) -0.0009(2) -0.0029(2) 0.0003(2)
#End of data_236184-ICSD


