data_27744-ICSD
#?2014 by Fachinformationszentrum Karlsruhe, and the U.S. Secretary of 
#Commerce on behalf of the United States.  All rights reserved.
_database_code_ICSD                27744
_audit_creation_date               1980/01/01
_audit_update_record               2007/04/01
_chemical_name_systematic
;
Tetrastrontium Tetraaluminium Dioxide Decaaluminate
;
_chemical_formula_structural       'Sr4 Al4 O2 (Al10 O23)'
_chemical_formula_sum              'Al14 O25 Sr4'
_publ_section_title
;
Crystal structure of strontium aluminate Sr4 Al4 O2 (Al10 O23)
;
loop_
_citation_id
_citation_journal_abbrev
_citation_year
_citation_journal_volume
_citation_page_first
_citation_page_last
_citation_journal_id_ASTM
primary Kristallografiya 1976 21 826 828 KRISAJ
2 'Soviet Physics, Crystallography (= Kristallografiya)'
 1976 21 471 472 SPHCA6
_publ_author_name
;
Nadezhina, T.N.;Pobedimskaya, E.A.;Belov, N.V.
;
_cell_length_a                     24.785(1)
_cell_length_b                     8.487(2)
_cell_length_c                     4.886(1)
_cell_angle_alpha                  90.
_cell_angle_beta                   90.
_cell_angle_gamma                  90.
_cell_volume                       1027.77
_cell_formula_units_Z              2
_symmetry_space_group_name_H-M     'P m m a'
_symmetry_Int_Tables_number        51
_refine_ls_R_factor_all            .07
loop_
_symmetry_equiv_pos_site_id
_symmetry_equiv_pos_as_xyz
  1	'-x+.5, -y, z'
  2	'x+.5, -y, -z'
  3	'x, -y, z'
  4	'-x, -y, -z'
  5	'x+.5, y, -z'
  6	'-x+.5, y, z'
  7	'-x, y, -z'
  8	'x, y, z'
loop_
_atom_type_symbol
_atom_type_oxidation_number
Al3+	3
O2-	-2
Sr2+	2
loop_
_atom_site_label
_atom_site_type_symbol
_atom_site_symmetry_multiplicity
_atom_site_Wyckoff_symbol
_atom_site_fract_x
_atom_site_fract_y
_atom_site_fract_z
_atom_site_occupancy
_atom_site_attached_hydrogens
_atom_site_B_iso_or_equiv
Sr1 Sr2+ 4 j 0.1376(1) 0.5 0.033(1) 1. 0 0.28 
Sr2 Sr2+ 4 i 0.1208(1) 0 0.113(1) 1. 0 0.17 
Al1 Al3+ 8 l 0.1850(3) 0.198(1) 0.633(1) 1. 0 0.11 
Al2 Al3+ 8 l 0.0664(3) 0.326(1) 0.510(2) 1. 0 -0.14 
Al3 Al3+ 4 k 0.25 0.299(1) 0.127(1) 1. 0 0.21 
Al4 Al3+ 4 g 0 0.176(1) 0 1. 0 0.16 
Al5 Al3+ 2 c 0 0 0.5 1. 0 -0.05 
Al6 Al3+ 2 b 0 0.5 0 1. 0 -0.03 
O1 O2- 8 l 0.0422(6) 0.157(2) 0.328(4) 1. 0 0.06 
O2 O2- 8 l 0.1368(6) 0.329(2) 0.502(4) 1. 0 0.25 
O3 O2- 8 l 0.1908(6) 0.229(2) -.018(3) 1. 0 -0.02 
O4 O2- 4 k 0.25 0.236(3) 0.473(5) 1. 0 -0.14 
O5 O2- 4 i 0.0391(9) 0 0.823(5) 1. 0 -0.06 
O6 O2- 4 j 0.0507(9) 0.5 0.323(5) 1. 0 0.17 
O7 O2- 4 i 0.1651(9) 0 0.574(5) 1. 0 0.85 
O8 O2- 8 l 0.0444(6) 0.344(2) 0.842(4) 1. 0 0.05 
O9 O2- 2 f 0.25 0.5 0.097(8) 1. 0 0.25 

#End of data_27744-ICSD


