data_187940-ICSD
#?2014 by Fachinformationszentrum Karlsruhe, and the U.S. Secretary of 
#Commerce on behalf of the United States.  All rights reserved.
_database_code_ICSD                187940
_audit_creation_date               2013/08/01
_chemical_name_systematic          'Lithium Chromium Disilicate'
_chemical_formula_structural       'Li Cr (Si2 O6)'
_chemical_formula_sum              'Cr1 Li1 O6 Si2'
_chemical_name_mineral             'Clinopyroxene - (Li,Cr)'
_publ_section_title
;
High-pressure X-ray study of Li Cr Si2 O6 clinopyroxene and the 
general compressibility trends for Li - clinopyroxenes
;
loop_
_citation_id
_citation_journal_abbrev
_citation_year
_citation_journal_volume
_citation_journal_issue
_citation_page_first
_citation_page_last
_citation_journal_id_ASTM
primary 'Physics and Chemistry of Minerals' 2013 40 5 387 399 PCMIDU
_publ_author_name
;
Periotto, Benedetta;Angel, Ross J.;Nestola, Fabrizio;Balic-Zunic, 
Tonci;Fontana, Cinzia;Pasqual, Daria;Alvaro, Matteo;Redhammer, 
Guenther J.
;
_cell_length_a                     9.4995(5)
_cell_length_b                     8.5647(4)
_cell_length_c                     5.2236(3)
_cell_angle_alpha                  90.
_cell_angle_beta                   109.712(4)
_cell_angle_gamma                  90.
_cell_volume                       400.09
_cell_formula_units_Z              4
_symmetry_space_group_name_H-M     'P 1 21/c 1'
_symmetry_Int_Tables_number        14
_refine_ls_R_factor_all            .0601
loop_
_symmetry_equiv_pos_site_id
_symmetry_equiv_pos_as_xyz
  1	'x, -y+.5, z+.5'
  2	'-x, -y, -z'
  3	'-x, y+.5, -z+.5'
  4	'x, y, z'
loop_
_atom_type_symbol
_atom_type_oxidation_number
Cr3+	3
Li1+	1
O2-	-2
Si4+	4
loop_
_atom_site_label
_atom_site_type_symbol
_atom_site_symmetry_multiplicity
_atom_site_Wyckoff_symbol
_atom_site_fract_x
_atom_site_fract_y
_atom_site_fract_z
_atom_site_occupancy
_atom_site_attached_hydrogens
_atom_site_U_iso_or_equiv
Li1 Li1+ 4 e 0.2507(18) 0.0169(16) 0.237(2) 1 0 0.009(3) 
Cr1 Cr3+ 4 e 0.25005(18) 0.65794(14) 0.2326(2) 1 0 0.0062(4) 
Si1 Si4+ 4 e 0.0490(3) 0.3412(3) 0.2738(4) 1 0 0.0051(6) 
Si2 Si4+ 4 e 0.5510(3) 0.8409(3) 0.2470(4) 1 0 0.0049(6) 
O1 O2- 4 e 0.8678(6) 0.3322(6) 0.1638(9) 1 0 0.0057(12) 
O2 O2- 4 e 0.1163(6) 0.5134(6) 0.3073(9) 1 0 0.0097(14) 
O3 O2- 4 e 0.1094(7) 0.2674(7) 0.5813(9) 1 0 0.0098(14) 
O4 O2- 4 e 0.3679(6) 0.8339(6) 0.1287(9) 1 0 0.0084(13) 
O5 O2- 4 e 0.6235(6) 0.0047(6) 0.3545(9) 1 0 0.0092(13) 
O6 O2- 4 e 0.6074(6) 0.7198(7) 0.5011(9) 1 0 0.0091(13) 

#End of data_187940-ICSD


