data_100249-ICSD
#?2014 by Fachinformationszentrum Karlsruhe, and the U.S. Secretary of 
#Commerce on behalf of the United States.  All rights reserved.
_database_code_ICSD                100249
_audit_creation_date               1980/01/01
_audit_update_record               2007/08/01
_chemical_name_systematic          'Dizinc Copper Bis(arsenate(V))'
_chemical_formula_structural       'Zn2 Cu (As O4)2'
_chemical_formula_sum              'As2 Cu1 O8 Zn2'
_chemical_name_mineral             Stranskiite
_publ_section_title
;
Die Ladungsbilanz fuer eine verfeinerte Kristallstruktur von 
Stranskiit, Zn2 Cu (As O4)2
;
loop_
_citation_id
_citation_journal_abbrev
_citation_year
_citation_journal_volume
_citation_page_first
_citation_page_last
_citation_journal_id_ASTM
primary
;
TMPM. Tschermaks Mineralogische und Petrographische Mitteilungen 
(1979-)
;
 1979 26 167 174 TTMMDZ
_publ_author_name                  'Keller, P.;Hess, H.;Dunn, P.J.'
_cell_length_a                     5.092(2)
_cell_length_b                     6.695(2)
_cell_length_c                     5.304(2)
_cell_angle_alpha                  110.16(2)
_cell_angle_beta                   112.09(2)
_cell_angle_gamma                  86.74(2)
_cell_volume                       156.73
_cell_formula_units_Z              1
_symmetry_space_group_name_H-M     'P -1'
_symmetry_Int_Tables_number        2
_refine_ls_R_factor_all            .034
loop_
_symmetry_equiv_pos_site_id
_symmetry_equiv_pos_as_xyz
  1	'-x, -y, -z'
  2	'x, y, z'
loop_
_atom_type_symbol
_atom_type_oxidation_number
As5+	5
Cu2+	2
O2-	-2
Zn2+	2
loop_
_atom_site_label
_atom_site_type_symbol
_atom_site_symmetry_multiplicity
_atom_site_Wyckoff_symbol
_atom_site_fract_x
_atom_site_fract_y
_atom_site_fract_z
_atom_site_occupancy
_atom_site_attached_hydrogens
Cu1 Cu2+ 1 h 0.5 0.5 0.5 1. 0 
Zn1 Zn2+ 2 i 0.2303(1) 0.1857(1) 0.7357(1) 1. 0 
As1 As5+ 2 i 0.8647(1) 0.2761(1) 0.1380(1) 1. 0 
O1 O2- 2 i 0.1838(6) 0.3332(5) 0.1290(6) 1. 0 
O2 O2- 2 i 0.9082(7) 0.1212(5) 0.3429(7) 1. 0 
O3 O2- 2 i 0.6336(6) 0.1554(5) 0.7986(6) 1. 0 
O4 O2- 2 i 0.7330(6) 0.5045(5) 0.2921(6) 1. 0 

loop_
_atom_site_aniso_label
_atom_site_aniso_type_symbol
_atom_site_aniso_B_11
_atom_site_aniso_B_22
_atom_site_aniso_B_33
_atom_site_aniso_B_12
_atom_site_aniso_B_13
_atom_site_aniso_B_23
Cu1 Cu2+ 0.24(2) 0.66(2) 0.44(2) -.14(2) 0.17(2) 0.02(2)
Zn1 Zn2+ 0.34(2) 0.56(2) 0.53(2) -.06(1) 0.06(1) 0.21(1)
As1 As5+ 0.18(1) 0.35(1) 0.40(1) 0.01(1) 0.09(1) 0.13(1)
O1 O2- 0.17(8) 1.03(10) 0.54(9) -.22(7) 0.11(7) 0.11(8)
O2 O2- 0.64(10) 0.65(9) 0.8(1) -.18(8) -.07(8) 0.45(8)
O3 O2- 0.36(9) 1.27(11) 0.51(9) 0.04(8) -.01(8) 0.02(8)
O4 O2- 0.56(9) 0.60(9) 0.71(9) 0.17(7) 0.40(8) 0.20(7)
#End of data_100249-ICSD


