data_80430-ICSD
#?2014 by Fachinformationszentrum Karlsruhe, and the U.S. Secretary of 
#Commerce on behalf of the United States.  All rights reserved.
_database_code_ICSD                80430
_audit_creation_date               1997/05/13
_chemical_name_systematic
;
Potassium Manganese(III) Bis(selenate(VI))
;
_chemical_formula_structural       'K Mn (Se O4)2'
_chemical_formula_sum              'K1 Mn1 O8 Se2'
_publ_section_title
;
Crystal structure of K Mn(3+) (Se O4)2 - a triclinic distorted member 
of the Yavapaiite family
;
loop_
_citation_id
_citation_journal_abbrev
_citation_year
_citation_journal_volume
_citation_page_first
_citation_page_last
_citation_journal_id_ASTM
primary 'Mineralogy and Petrology' 1995 53 165 171 MIPEE9
_publ_author_name                  'Giester, G.'
_cell_length_a                     4.827(2)
_cell_length_b                     4.988(2)
_cell_length_c                     7.981(3)
_cell_angle_alpha                  83.18(1)
_cell_angle_beta                   85.32(2)
_cell_angle_gamma                  67.92(1)
_cell_volume                       176.66
_cell_formula_units_Z              1
_symmetry_space_group_name_H-M     'P -1'
_symmetry_Int_Tables_number        2
_refine_ls_R_factor_all            .034
loop_
_symmetry_equiv_pos_site_id
_symmetry_equiv_pos_as_xyz
  1	'-x, -y, -z'
  2	'x, y, z'
loop_
_atom_type_symbol
_atom_type_oxidation_number
K1+	1
Mn3+	3
O2-	-2
Se6+	6
loop_
_atom_site_label
_atom_site_type_symbol
_atom_site_symmetry_multiplicity
_atom_site_Wyckoff_symbol
_atom_site_fract_x
_atom_site_fract_y
_atom_site_fract_z
_atom_site_occupancy
_atom_site_attached_hydrogens
K1 K1+ 1 b 0 0 0.5 1. 0 
Mn1 Mn3+ 1 a 0 0 0 1. 0 
Se1 Se6+ 2 i 0.38403(4) 0.37073(3) 0.79627(2) 1. 0 
O1 O2- 2 i 0.2360(3) 0.2330(3) 0.9627(2) 1. 0 
O2 O2- 2 i 0.3135(4) 0.3071(4) 0.6161(2) 1. 0 
O3 O2- 2 i 0.7535(3) 0.2247(3) 0.8146(2) 1. 0 
O4 O2- 2 i 0.2774(4) 0.7182(3) 0.8116(2) 1. 0 

loop_
_atom_site_aniso_label
_atom_site_aniso_type_symbol
_atom_site_aniso_U_11
_atom_site_aniso_U_22
_atom_site_aniso_U_33
_atom_site_aniso_U_12
_atom_site_aniso_U_13
_atom_site_aniso_U_23
K1 K1+ 0.0309(4) 0.0320(3) 0.0159(4) -.0108(3) -.0030(3) -.0049(3)
Mn1 Mn3+ 0.0105(2) 0.0112(2) 0.0107(2) -.0037(1) -.0008(2) 0.0006(2)
Se1 Se6+ 0.0115(1) 0.0114(1) 0.0099(1) -.0037(1) -.0013(1) -.0009(1)
O1 O2- 0.0156(5) 0.0166(5) 0.0139(8) -.0082(5) 0.0016(6) 0.0007(5)
O2 O2- 0.0353(10) 0.0383(10) 0.0141(9) -.0216(9) -.0051(9) -.0046(8)
O3 O2- 0.0116(5) 0.0238(6) 0.0146(8) -.0033(5) -.0008(6) 0.0042(6)
O4 O2- 0.0245(7) 0.0112(5) 0.0215(9) -.0049(5) 0.0067(7) -.0021(6)
#End of data_80430-ICSD


