data_419504-ICSD
#?2014 by Fachinformationszentrum Karlsruhe, and the U.S. Secretary of 
#Commerce on behalf of the United States.  All rights reserved.
_database_code_ICSD                419504
_audit_creation_date               2009/08/01
_chemical_name_systematic
;
Zinc Tetrahydrogen Diiodate(VII) Hexahydrate
;
_chemical_formula_structural       'Zn (H4 I2 O10) (H2 O)6'
_chemical_formula_sum              'H16 I2 O16 Zn1'
_publ_section_title
;
Acidic salts of the decaoxodiperiodic acid: Ni H4 I2 O10.6H2 O, Zn H4 
I2 O10.H2 O and Mg H4 I2 O10.6H2O; crystal structures, vibrational 
spectra and thermal decomposition
;
loop_
_citation_id
_citation_journal_abbrev
_citation_year
_citation_journal_volume
_citation_journal_issue
_citation_page_first
_citation_page_last
_citation_journal_id_ASTM
primary 'Zeitschrift fuer Naturforschung, B: Chemical Sciences'
 2008 63 12 1367 1376 ZNBSEN
_publ_author_name
;
Aleksandrova, M.;Haeuseler, H.;Jacquet, R.;Wagener, M.
;
_cell_length_a                     10.738(2)
_cell_length_b                     5.4629(11)
_cell_length_c                     11.895(2)
_cell_angle_alpha                  90.00
_cell_angle_beta                   112.52(3)
_cell_angle_gamma                  90.00
_cell_volume                       644.56
_cell_formula_units_Z              2
_symmetry_space_group_name_H-M     'P 1 21/c 1'
_symmetry_Int_Tables_number        14
_refine_ls_R_factor_all            .0257
loop_
_symmetry_equiv_pos_site_id
_symmetry_equiv_pos_as_xyz
  1	'x, -y+.5, z+.5'
  2	'-x, -y, -z'
  3	'-x, y+.5, -z+.5'
  4	'x, y, z'
loop_
_atom_type_symbol
_atom_type_oxidation_number
H1+	1
I7+	7
O2-	-2
Zn2+	2
loop_
_atom_site_label
_atom_site_type_symbol
_atom_site_symmetry_multiplicity
_atom_site_Wyckoff_symbol
_atom_site_fract_x
_atom_site_fract_y
_atom_site_fract_z
_atom_site_occupancy
_atom_site_attached_hydrogens
_atom_site_U_iso_or_equiv
I1 I7+ 4 e 0.379779(19) 0.03301(3) 0.376987(16) 1 0 0.01150(8) 
Zn1 Zn2+ 2 a 0.0000 0.0000 0.0000 1 0 0.01845(12) 
O1 O2- 4 e 0.3632(3) -0.0527(5) 0.2248(2) 1 0 0.0205(5) 
O2 O2- 4 e 0.3095(3) -0.2714(4) 0.4031(2) 1 0 0.0206(5) 
H1 H1+ 4 e 0.357(5) -0.353(9) 0.400(4) 1 0 0.025 
O3 O2- 4 e 0.2207(2) 0.1732(5) 0.3506(2) 1 0 0.0194(5) 
O4 O2- 4 e 0.4506(3) 0.3483(4) 0.3653(2) 1 0 0.0219(5) 
H2 H1+ 4 e 0.497(5) 0.370(9) 0.340(4) 1 0 0.026 
O5 O2- 4 e 0.4372(2) 0.1005(4) 0.55409(19) 1 0 0.0133(4) 
O6 O2- 4 e 0.1670(3) 0.2251(5) 0.0448(2) 1 0 0.0199(5) 
H3 H1+ 4 e 0.233(5) 0.178(9) 0.101(4) 1 0 0.024 
H4 H1+ 4 e 0.182(4) 0.263(9) -0.007(4) 1 0 0.024 
O7 O2- 4 e 0.1175(3) -0.2865(5) 0.1095(3) 1 0 0.0305(6) 
H5 H1+ 4 e 0.190(6) -0.246(10) 0.139(5) 1 0 0.037 
H6 H1+ 4 e 0.121(5) -0.445(10) 0.086(5) 1 0 0.037 
O8 O2- 4 e -0.0262(3) 0.1371(7) 0.1517(3) 1 0 0.0391(8) 
H7 H1+ 4 e -0.096(6) 0.163(11) 0.159(5) 1 0 0.047 
H8 H1+ 4 e 0.035(6) 0.157(11) 0.216(5) 1 0 0.047 

loop_
_atom_site_aniso_label
_atom_site_aniso_type_symbol
_atom_site_aniso_U_11
_atom_site_aniso_U_22
_atom_site_aniso_U_33
_atom_site_aniso_U_12
_atom_site_aniso_U_13
_atom_site_aniso_U_23
I1 I7+ 0.00967(11) 0.01350(11) 0.01125(10) 0.00127(6) 0.00392(7) 
-0.00094(6)
Zn1 Zn2+ 0.0161(3) 0.0220(3) 0.0169(2) -0.00319(19) 0.0060(2) -0.00149(18)
O1 O2- 0.0200(12) 0.0307(13) 0.0116(10) 0.0034(10) 0.0068(10) -0.0048(9)
O2 O2- 0.0182(13) 0.0147(11) 0.0303(13) -0.0041(9) 0.0109(11) -0.0036(9)
O3 O2- 0.0122(11) 0.0266(12) 0.0177(11) 0.0079(9) 0.0037(10) -0.0008(9)
O4 O2- 0.0257(13) 0.0155(11) 0.0330(13) 0.0009(9) 0.0206(12) 0.0051(9)
O5 O2- 0.0094(10) 0.0187(10) 0.0118(9) 0.0027(8) 0.0041(9) -0.0016(7)
O6 O2- 0.0157(12) 0.0277(13) 0.0156(11) -0.0041(9) 0.0052(10) 0.0028(9)
O7 O2- 0.0229(15) 0.0232(14) 0.0337(16) -0.0008(10) -0.0023(13) -0.0016(11)
O8 O2- 0.0209(15) 0.073(2) 0.0240(14) -0.0041(15) 0.0096(13) -0.0192(14)
#End of data_419504-ICSD


