data_68302-ICSD
#?2014 by Fachinformationszentrum Karlsruhe, and the U.S. Secretary of 
#Commerce on behalf of the United States.  All rights reserved.
_database_code_ICSD                68302
_audit_creation_date               1991/07/10
_audit_update_record               1996/10/15
_chemical_name_systematic
;
Potassium Catena-aquapentafluorohafnate
;
_chemical_formula_structural       'K (Hf F5 (H2 O))'
_chemical_formula_sum              'H2 F5 Hf1 K1 O1'
_publ_section_title
;
Crystal structure and optical properties of potassium 
pentafluorohafnate monohydrate K Hf F5 . H2 O
;
loop_
_citation_id
_citation_journal_abbrev
_citation_year
_citation_journal_volume
_citation_page_first
_citation_page_last
_citation_journal_id_ASTM
primary 'Zeitschrift fuer Kristallographie (1979-2010)' 1988 184 221 227 ZEKRDZ
_publ_author_name
;
Neumann, C.;Granzin, J.;Saalfeld, H.
;
_cell_length_a                     7.853(2)
_cell_length_b                     12.068(5)
_cell_length_c                     11.053(5)
_cell_angle_alpha                  90.
_cell_angle_beta                   99.61(4)
_cell_angle_gamma                  90.
_cell_volume                       1032.79
_cell_formula_units_Z              8
_symmetry_space_group_name_H-M     'P 1 21/c 1'
_symmetry_Int_Tables_number        14
_refine_ls_R_factor_all            .03
loop_
_symmetry_equiv_pos_site_id
_symmetry_equiv_pos_as_xyz
  1	'x, -y+.5, z+.5'
  2	'-x, -y, -z'
  3	'-x, y+.5, -z+.5'
  4	'x, y, z'
loop_
_atom_type_symbol
_atom_type_oxidation_number
F1-	-1
H1+	1
Hf4+	4
K1+	1
O2-	-2
loop_
_atom_site_label
_atom_site_type_symbol
_atom_site_symmetry_multiplicity
_atom_site_Wyckoff_symbol
_atom_site_fract_x
_atom_site_fract_y
_atom_site_fract_z
_atom_site_occupancy
_atom_site_attached_hydrogens
_atom_site_B_iso_or_equiv
Hf1 Hf4+ 4 e 0.97737(6) 0.26370(4) 0.12382(4) 1. 0 0 
Hf2 Hf4+ 4 e 0.52287(6) 0.25575(4) 0.10760(4) 1. 0 0 
K1 K1+ 4 e 0.2941(4) 0.5253(2) 0.1203(3) 1. 0 0 
K2 K1+ 4 e 0.7965(3) 0.4605(2) 0.3538(2) 1. 0 0 
F1 F1- 4 e 0.4750(9) 0.1222(6) 0.1993(7) 1. 0 0 
F2 F1- 4 e 0.2528(9) 0.2751(6) 0.1141(6) 1. 0 0 
F3 F1- 4 e 0.2088(9) 0.7021(6) 0.2742(6) 1. 0 0 
F4 F1- 4 e 0.5114(9) 0.3543(6) 0.2504(6) 1. 0 0 
F5 F1- 4 e 0.7172(9) 0.2028(6) 0.0039(6) 1. 0 0 
F6 F1- 4 e 0.0126(9) 0.6401(6) 0.0231(6) 1. 0 0 
F7 F1- 4 e 0.065(1) 0.3820(6) 0.2455(7) 1. 0 0 
F8 F1- 4 e 0.0298(98) 0.1274(5) 0.0312(6) 1. 0 0 
F9 F1- 4 e 0.2495(9) 0.8743(5) 0.3839(7) 1. 0 0 
F10 F1- 4 e 0.4448(9) 0.3690(6) -.0219(7) 1. 0 0 
O1 O2- 4 e 0.1270(11) 0.1573(7) 0.2774(8) 1. 0 0 
O2 O2- 4 e 0.3808(11) 0.1448(8) -.0406(8) 1. 0 0 
H1 H1+ 4 e 0.21 0.15 0.32 1. 0 3.95 
H2 H1+ 4 e 0.05 0.13 0.31 1. 0 3.95 
H3 H1+ 4 e 0.29 0.13 -.06 1. 0 3.95 
H4 H1+ 4 e 0.42 0.14 -.1 1. 0 3.95 

loop_
_atom_site_aniso_label
_atom_site_aniso_type_symbol
_atom_site_aniso_U_11
_atom_site_aniso_U_22
_atom_site_aniso_U_33
_atom_site_aniso_U_12
_atom_site_aniso_U_13
_atom_site_aniso_U_23
Hf1 Hf4+ 0.0042(2) 0.0138(2) 0.0135(2) 0.0003(2) 0.0010(2) -.0022(2)
Hf2 Hf4+ 0.0041(2) 0.0134(2) 0.0135(2) 0.0001(2) 0.0010(2) -.0009(2)
K1 K1+ 0.0195(13) 0.0205(13) 0.0230(13) 0.0022(10) 0.0021(11) 0.0018(11)
K2 K1+ 0.0153(13) 0.0194(13) 0.0220(13) -.0027(10) -.0013(10) 0.0004(10)
F1 F1- 0.0121(33) 0.0226(36) 0.0264(40) -.0032(28) -.0018(29) 0.0095(30)
F2 F1- 0.0079(29) 0.0295(38) 0.0220(34) 0.0000(29) 0.0027(25) -.0031(31)
F3 F1- 0.0107(33) 0.0272(38) 0.0197(36) 0.0027(27) -.0017(27) -.0098(29)
F4 F1- 0.0134(33) 0.0262(37) 0.0179(35) -.0034(28) 0.0073(27) -.0064(28)
F5 F1- 0.0065(30) 0.0317(39) 0.0181(35) 0.0020(27) 0.0015(26) -.0088(29)
F6 F1- 0.0156(35) 0.0291(40) 0.0195(38) 0.0038(29) 0.0086(30) 0.0106(30)
F7 F1- 0.0184(36) 0.0269(39) 0.0281(41) -.0023(30) 0.0031(32) -.0152(32)
F8 F1- 0.0128(34) 0.0178(34) 0.0221(38) 0.0027(27) -.0018(28) -.0056(28)
F9 F1- 0.0098(30) 0.0144(31) 0.0268(36) 0.0014(26) 0.0032(27) -.0009(28)
F10 F1- 0.0182(36) 0.0246(38) 0.0212(37) 0.0047(29) 0.0012(30) 0.0124(30)
O1 O2- 0.0122(41) 0.0288(47) 0.0187(44) 0.0034(35) 0.0021(35) 0.0052(36)
O2 O2- 0.0142(43) 0.0323(50) 0.0224(47) -.0066(36) 0.0071(37) -.0122(38)
#End of data_68302-ICSD


