data_20036-ICSD
#?2014 by Fachinformationszentrum Karlsruhe, and the U.S. Secretary of 
#Commerce on behalf of the United States.  All rights reserved.
_database_code_ICSD                20036
_audit_creation_date               1980/01/01
_audit_update_record               2012/08/01
_chemical_name_systematic          'Tricalcium Dichloride Silicate'
_chemical_formula_structural       'Ca3 Cl2 (Si O4)'
_chemical_formula_sum              'Ca3 Cl2 O4 Si1'
_publ_section_title
;
Crystal structure of metastable phase of cement clinker of Ca-
chloride orthosilicate Ca3 (Si O4) Cl2
;
loop_
_citation_id
_citation_journal_abbrev
_citation_year
_citation_journal_volume
_citation_page_first
_citation_page_last
_citation_journal_id_ASTM
primary 'Doklady Akademii Nauk SSSR' 1970 193 1048 1051 DANKAS
_publ_author_name
;
Treushnikov, E.N.;Ilyukhin, V.V.;Belov, N.V.
;
_cell_length_a                     9.79
_cell_length_b                     6.76
_cell_length_c                     10.96
_cell_angle_alpha                  90.
_cell_angle_beta                   105.4
_cell_angle_gamma                  90.
_cell_volume                       699.29
_cell_formula_units_Z              4
_symmetry_space_group_name_H-M     'P 1 21/c 1'
_symmetry_Int_Tables_number        14
_refine_ls_R_factor_all            .11
loop_
_symmetry_equiv_pos_site_id
_symmetry_equiv_pos_as_xyz
  1	'x, -y+.5, z+.5'
  2	'-x, -y, -z'
  3	'-x, y+.5, -z+.5'
  4	'x, y, z'
loop_
_atom_type_symbol
_atom_type_oxidation_number
Ca2+	2
Cl1-	-1
O2-	-2
Si4+	4
loop_
_atom_site_label
_atom_site_type_symbol
_atom_site_symmetry_multiplicity
_atom_site_Wyckoff_symbol
_atom_site_fract_x
_atom_site_fract_y
_atom_site_fract_z
_atom_site_occupancy
_atom_site_attached_hydrogens
_atom_site_B_iso_or_equiv
Ca1 Ca2+ 4 e 0.1955 0.7428 0.0453 1. 0 0.82 
Ca2 Ca2+ 4 e 0.0789 0.4565 0.2715 1. 0 0.82 
Ca3 Ca2+ 4 e 0.4286 0.223 0.1118 1. 0 0.82 
Cl1 Cl1- 4 e 0.5078 0.7899 0.124 1. 0 0.82 
Cl2 Cl1- 4 e 0.2833 0.8233 0.3174 1. 0 0.82 
Si1 Si4+ 4 e 0.1209 0.2493 0.0306 1. 0 0.82 
O1 O2- 4 e 0.235 0.416 0.109 1. 0 0.82 
O2 O2- 4 e 0.22 0.069 0.003 1. 0 0.82 
O3 O2- 4 e 0.017 0.199 0.121 1. 0 0.82 
O4 O2- 4 e 0.017 0.189 0.393 1. 0 0.82 

#End of data_20036-ICSD


