data_95093-ICSD
#?2014 by Fachinformationszentrum Karlsruhe, and the U.S. Secretary of 
#Commerce on behalf of the United States.  All rights reserved.
_database_code_ICSD                95093
_audit_creation_date               2003/10/01
_audit_update_record               2007/08/01
_chemical_name_systematic          'Octasilver Tin(IV) Selenide - Beta'
_chemical_formula_structural       'Ag8 Sn Se6'
_chemical_formula_sum              'Ag8 Se6 Sn1'
_publ_section_title
;
Crystal structure of beta-(Ag8 Sn Se6)
;
loop_
_citation_id
_citation_journal_abbrev
_citation_year
_citation_journal_volume
_citation_page_first
_citation_page_last
_citation_journal_id_ASTM
primary 'Journal of Alloys and Compounds' 2002 339 113 117 JALCEU
2 'Golden Book of Phase Transitions, Wroclaw' 2002 1 1 123 GBOPT5
_publ_author_name
;
Gulay, L.D.;Olekseyuk, I.D.;Parasyuk, O.V.
;
_cell_length_a                     7.9168(6)
_cell_length_b                     7.8219(6)
_cell_length_c                     11.0453(8)
_cell_angle_alpha                  90
_cell_angle_beta                   90
_cell_angle_gamma                  90
_cell_volume                       683.97
_cell_formula_units_Z              2
_symmetry_space_group_name_H-M     'P m n 21'
_symmetry_Int_Tables_number        31
_refine_ls_R_factor_all            .0679
loop_
_symmetry_equiv_pos_site_id
_symmetry_equiv_pos_as_xyz
  1	'x+.5, -y, z+.5'
  2	'-x+.5, -y, z+.5'
  3	'-x, y, z'
  4	'x, y, z'
loop_
_atom_type_symbol
_atom_type_oxidation_number
Ag1+	1
Se2-	-2
Sn4+	4
loop_
_atom_site_label
_atom_site_type_symbol
_atom_site_symmetry_multiplicity
_atom_site_Wyckoff_symbol
_atom_site_fract_x
_atom_site_fract_y
_atom_site_fract_z
_atom_site_occupancy
_atom_site_attached_hydrogens
_atom_site_B_iso_or_equiv
Ag1 Ag1+ 4 b 0.2058(4) 0.5287(5) 0.2645(8) 1. 0 1.4(2) 
Ag2 Ag1+ 4 b 0.2044(5) 0.1023(6) 0.8460(8) 1. 0 1.6(2) 
Ag3 Ag1+ 4 b 0.1839(5) 0.1562(5) 0.1467(8) 1. 0 1.4(2) 
Ag4 Ag1+ 2 a 0 0.6106(8) 0.0361(9) 1. 0 1.3(2) 
Ag5 Ag1+ 2 a 0 0.7229(7) 0.4729(8) 1. 0 1.0(2) 
Sn1 Sn4+ 2 a 0 0.2501(5) 0.5087(6) 1. 0 0.5(2) 
Se1 Se2- 4 b 0.2387(7) 0.7485(8) 0.8867(8) 1. 0 1.1(3) 
Se2 Se2- 2 a 0 0.997(1) 0.6989(9) 1. 0 0.5(3) 
Se3 Se2- 2 a 0 0.492(1) 0.647(1) 1. 0 0.2(3) 
Se4 Se2- 2 a 0 0.803(1) 0.236(1) 1. 0 1.0(3) 
Se5 Se2- 2 a 0 0.2840(9) 0.993(1) 1. 0 0.5(3) 

#End of data_95093-ICSD


