data_72326-ICSD
#?2014 by Fachinformationszentrum Karlsruhe, and the U.S. Secretary of 
#Commerce on behalf of the United States.  All rights reserved.
_database_code_ICSD                72326
_audit_creation_date               1994/01/19
_chemical_name_systematic          'Rubidium Potassium Sulfide'
_chemical_formula_structural       'Rb K S'
_chemical_formula_sum              'K1 Rb1 S1'
_publ_section_title                'Kristallstruktur von RbKS'
loop_
_citation_id
_citation_journal_abbrev
_citation_year
_citation_journal_volume
_citation_page_first
_citation_page_last
_citation_journal_id_ASTM
primary 'Zeitschrift fuer Anorganische und Allgemeine Chemie (1950) (DE)'
 1992 616 183 185 ZAACAB
_publ_author_name                  'Sabrowsky, H.;Vogt, P.'
_cell_length_a                     8.222(3)
_cell_length_b                     5.043(4)
_cell_length_c                     9.452(2)
_cell_angle_alpha                  90.
_cell_angle_beta                   90.
_cell_angle_gamma                  90.
_cell_volume                       391.91
_cell_formula_units_Z              4
_symmetry_space_group_name_H-M     'P n m a'
_symmetry_Int_Tables_number        62
_refine_ls_R_factor_all            .04
loop_
_symmetry_equiv_pos_site_id
_symmetry_equiv_pos_as_xyz
  1	'x+.5, y, -z+.5'
  2	'x, -y+.5, z'
  3	'-x+.5, y+.5, z+.5'
  4	'-x, -y, -z'
  5	'-x+.5, -y, z+.5'
  6	'-x, y+.5, -z'
  7	'x+.5, -y+.5, -z+.5'
  8	'x, y, z'
loop_
_atom_type_symbol
_atom_type_oxidation_number
K1+	1
Rb1+	1
S2-	-2
loop_
_atom_site_label
_atom_site_type_symbol
_atom_site_symmetry_multiplicity
_atom_site_Wyckoff_symbol
_atom_site_fract_x
_atom_site_fract_y
_atom_site_fract_z
_atom_site_occupancy
_atom_site_attached_hydrogens
Rb1 Rb1+ 4 c 0.4794(1) 0.25 0.8193(1) 1. 0 
K1 K1+ 4 c 0.3501(2) 0.25 0.4241(1) 1. 0 
S1 S2- 4 c 0.2371(2) 0.25 0.1075(2) 1. 0 

loop_
_atom_site_aniso_label
_atom_site_aniso_type_symbol
_atom_site_aniso_U_11
_atom_site_aniso_U_22
_atom_site_aniso_U_33
_atom_site_aniso_U_12
_atom_site_aniso_U_13
_atom_site_aniso_U_23
Rb1 Rb1+ 0.0330(4) 0.0413(5) 0.0334(3) 0 0.0157(14) 0
K1 K1+ 0.0300(8) 0.0292(9) 0.0203(6) 0 -.0130(29) 0
S1 S2- 0.0249(9) 0.0292(10) 0.0197(6) 0 0.0156(25) 0
#End of data_72326-ICSD


