data_422199-ICSD
#?2014 by Fachinformationszentrum Karlsruhe, and the U.S. Secretary of 
#Commerce on behalf of the United States.  All rights reserved.
_database_code_ICSD                422199
_audit_creation_date               2012/02/01
_chemical_name_systematic
;
Potassium Triniobium Hexaoxide Ditellurate(IV)
;
_chemical_formula_structural       'K Nb3 O6 (Te O3)2'
_chemical_formula_sum              'K1 Nb3 O12 Te2'
_publ_section_title
;
A series of new phases in the alkali metal - Nb(V)/Ta(V) - 
Se(IV)/Te(IV) - O systems
;
loop_
_citation_id
_citation_journal_abbrev
_citation_year
_citation_journal_volume
_citation_page_first
_citation_page_last
_citation_journal_id_ASTM
primary 'Dalton Transactions' 2011 40 2562 2569 DTARAF
_publ_author_name
;
Gu, Qian Hua;Hu, Chun Li;Zhang, Jian Han;Mao, Jiang Gao
;
_cell_length_a                     4.0047(14)
_cell_length_b                     14.903(6)
_cell_length_c                     17.461(7)
_cell_angle_alpha                  90.00
_cell_angle_beta                   90.00
_cell_angle_gamma                  90.00
_cell_volume                       1042.11
_cell_formula_units_Z              4
_symmetry_space_group_name_H-M     'P b c m'
_symmetry_Int_Tables_number        57
_refine_ls_R_factor_all            .0189
loop_
_symmetry_equiv_pos_site_id
_symmetry_equiv_pos_as_xyz
  1	'x, -y+.5, z+.5'
  2	'-x, y+.5, z'
  3	'x, y, -z+.5'
  4	'-x, -y, -z'
  5	'-x, y+.5, -z+.5'
  6	'x, -y+.5, -z'
  7	'-x, -y, z+.5'
  8	'x, y, z'
loop_
_atom_type_symbol
_atom_type_oxidation_number
K1+	1
Nb5+	5
O2-	-2
Te4+	4
loop_
_atom_site_label
_atom_site_type_symbol
_atom_site_symmetry_multiplicity
_atom_site_Wyckoff_symbol
_atom_site_fract_x
_atom_site_fract_y
_atom_site_fract_z
_atom_site_occupancy
_atom_site_attached_hydrogens
_atom_site_U_iso_or_equiv
K1 K1+ 4 d 0.2258(3) 0.42847(9) 0.2500 1 0 0.0207(3) 
Nb1 Nb5+ 4 d 0.23346(9) 0.70609(3) 0.2500 1 0 0.00507(11) 
Nb2 Nb5+ 8 e -0.23114(6) 0.349985(19) 0.069713(15) 1 0 0.00501(10) 
Te1 Te4+ 8 e 0.61361(5) 0.586332(13) 0.097321(11) 1 0 0.00761(10) 
O1 O2- 8 e 0.2805(6) 0.56566(17) 0.02290(13) 1 0 0.0099(5) 
O2 O2- 8 e 0.7010(6) 0.46905(16) 0.13004(12) 1 0 0.0106(5) 
O3 O2- 8 e 0.2878(6) 0.60342(17) 0.17366(13) 1 0 0.0119(5) 
O4 O2- 8 e 0.2894(6) 0.79230(17) 0.16814(13) 1 0 0.0133(5) 
O5 O2- 4 d -0.2157(8) 0.6992(2) 0.2500 1 0 0.0132(7) 
O6 O2- 4 c -0.2950(8) 0.2500 0.0000 1 0 0.0143(7) 
O7 O2- 8 e 0.2154(5) 0.35375(17) 0.06802(14) 1 0 0.0122(5) 

loop_
_atom_site_aniso_label
_atom_site_aniso_type_symbol
_atom_site_aniso_U_11
_atom_site_aniso_U_22
_atom_site_aniso_U_33
_atom_site_aniso_U_12
_atom_site_aniso_U_13
_atom_site_aniso_U_23
K1 K1+ 0.0213(6) 0.0208(7) 0.0200(6) -0.0034(4) 0.000 0.000
Nb1 Nb5+ 0.00499(19) 0.0051(2) 0.00509(18) 0.00014(13) 0.000 0.000
Nb2 Nb5+ 0.00498(14) 0.00458(18) 0.00548(15) 0.00027(9) -0.00018(9) 
0.00006(9)
Te1 Te4+ 0.00827(13) 0.00613(15) 0.00843(13) 0.00043(7) -0.00026(7) 
0.00083(7)
O1 O2- 0.0129(11) 0.0092(13) 0.0075(10) 0.0003(9) -0.0023(8) 0.0020(9)
O2 O2- 0.0163(11) 0.0075(12) 0.0079(10) 0.0024(9) -0.0015(9) 0.0005(9)
O3 O2- 0.0130(11) 0.0116(13) 0.0110(11) 0.0008(9) 0.0027(9) -0.0045(9)
O4 O2- 0.0163(12) 0.0124(13) 0.0112(11) -0.0008(9) -0.0012(9) 0.0051(9)
O5 O2- 0.0072(15) 0.016(2) 0.0168(17) 0.0012(12) 0.000 0.000
O6 O2- 0.0135(15) 0.0104(19) 0.0189(16) 0.000 0.000 -0.0083(14)
O7 O2- 0.0073(10) 0.0146(14) 0.0148(12) 0.0000(8) -0.0007(9) 0.0002(9)
#End of data_422199-ICSD


