data_189812-ICSD
#?2014 by Fachinformationszentrum Karlsruhe, and the U.S. Secretary of 
#Commerce on behalf of the United States.  All rights reserved.
_database_code_ICSD                189812
_audit_creation_date               2014/02/01
_chemical_name_systematic
;
Lithium Trisodium Triyttrium Triphosphate Carbonate Difluoride
;
_chemical_formula_structural       'Li Na3 Y3 (P O4)3 (C O3) F2'
_chemical_formula_sum              'C1 F2 Li1 Na3 O15 P3 Y3'
_chemical_name_mineral             Peatite-(Y)
_publ_section_title
;
Peatite-(Y) and ramikite-(Y), two new Na - Li - Y +/- Zr phosphate-
carbonate minerals from the Poudrette pegmatite, Mont Saint-Hilaire, 
Quebec
;
loop_
_citation_id
_citation_journal_abbrev
_citation_year
_citation_journal_volume
_citation_journal_issue
_citation_page_first
_citation_page_last
_citation_journal_id_ASTM
primary 'Canadian Mineralogist' 2013 51 4 569 596 CAMIA6
_publ_author_name
;
Andrew M. McDonald;Malcolm E. Back;Robert A. Gault;Laszlo Horvath
;
_cell_length_a                     11.167(2)
_cell_length_b                     11.164(2)
_cell_length_c                     11.162(2)
_cell_angle_alpha                  90.
_cell_angle_beta                   90.
_cell_angle_gamma                  90.
_cell_volume                       1391.55
_cell_formula_units_Z              4
_symmetry_space_group_name_H-M     'P 2 2 2'
_symmetry_Int_Tables_number        16
_refine_ls_R_factor_all            .036
loop_
_symmetry_equiv_pos_site_id
_symmetry_equiv_pos_as_xyz
  1	'-x, y, -z'
  2	'x, -y, -z'
  3	'-x, -y, z'
  4	'x, y, z'
loop_
_atom_type_symbol
_atom_type_oxidation_number
C4+	4
F1-	-1
Li1+	1
Na1+	1
O2-	-2
P5+	5
Y3+	3
loop_
_atom_site_label
_atom_site_type_symbol
_atom_site_symmetry_multiplicity
_atom_site_Wyckoff_symbol
_atom_site_fract_x
_atom_site_fract_y
_atom_site_fract_z
_atom_site_occupancy
_atom_site_attached_hydrogens
_atom_site_U_iso_or_equiv
Li1 Li1+ 4 u 0.3068(9) 0.1936(10) 0.3063(9) 1. 0 0.028(2) 
Na1 Na1+ 4 u 0.5090(4) 0.6676(2) -0.1675(2) 1. 0 0.0277(5) 
Na2 Na1+ 4 u -0.1676(2) 0.3324(2) 0.4908(2) 1. 0 0.0275(5) 
Na3 Na1+ 4 u -0.1678(2) 0.0089(4) 0.1676(2) 1. 0 0.0277(5) 
Y1 Y3+ 2 r 0.5 0 0.18821(4) 1. 0 0.0110(1) 
Y2 Y3+ 2 p 0.5 0.31194(5) 0.5 1. 0 0.0116(1) 
Y3 Y3+ 2 j 0.18746(5) 0 0.5 1. 0 0.0136(1) 
Y4 Y3+ 2 k 0.24776(4) 0.5 0 1. 0 0.0123(1) 
Y5 Y3+ 2 m 0 0.25197(4) 0 1. 0 0.0120(1) 
Y6 Y3+ 2 s 0 0.5 0.24806(5) 1. 0 0.0120(1) 
P1 P5+ 4 u 0.3156(1) 0.8156(1) -0.0111(2) 1. 0 0.0181(3) 
P2 P5+ 4 u 0.3158(1) 0.4887(2) 0.3156(1) 1. 0 0.0178(3) 
P3 P5+ 4 u -0.0113(2) -0.1843(1) 0.3157(1) 1. 0 0.0183(3) 
C1 C4+ 4 u 0.3797(6) 0.8808(6) 0.3802(6) 1. 0 0.022(1) 
O1 O2- 4 u 0.3589(5) 0.6354(5) 0.6412(5) 1. 0 0.036(1) 
O2 O2- 4 u 0.3454(3) 0.3180(3) -0.0008(7) 1. 0 0.0280(8) 
O3 O2- 4 u 0.1820(3) 0.8452(4) 0.0004(7) 1. 0 0.0287(8) 
O4 O2- 4 u 0.1820(3) 0.5003(7) 0.3451(3) 1. 0 0.0284(8) 
O5 O2- 4 u 0.3453(3) 0.5011(7) 0.1820(3) 1. 0 0.0281(3) 
O6 O2- 4 u 0.3590(5) 0.8589(5) -0.1356(5) 1. 0 0.035(1) 
O7 O2- 4 u 0.3808(6) 0.5897(6) 0.3818(5) 1. 0 0.036(1) 
O8 O2- 4 u 0.3806(6) 0.8812(5) 0.0886(6) 1. 0 0.041(1) 
O9 O2- 4 u 0.0006(7) 0.3176(3) 0.6546(3) 1. 0 0.0292(8) 
O10 O2- 4 u 0.0005(6) -0.1544(3) 0.1824(3) 1. 0 0.0284(8) 
O11 O2- 4 u -0.1352(6) -0.1412(6) 0.3586(6) 1. 0 0.037(1) 
O12 O2- 4 u 0.0900(7) -0.1189(6) 0.3811(5) 1. 0 0.043(2) 
O13 O2- 4 u 0.5236(4) 0.1650(4) 0.3351(4) 1. 0 0.027(1) 
O14 O2- 4 u 0.6659(4) 0.1654(4) 0.4764(4) 1. 0 0.028(1) 
O15 O2- 4 u 0.3344(4) 0.9761(4) 0.3345(4) 1. 0 0.028(1) 
F1 F1- 4 u 0.1180(5) 0.3824(5) 0.1176(5) 1. 0 0.027(1) 
F2 F1- 4 u -0.1095(5) 0.3904(5) 0.1100(5) 1. 0 0.027(1) 

loop_
_atom_site_aniso_label
_atom_site_aniso_type_symbol
_atom_site_aniso_U_11
_atom_site_aniso_U_22
_atom_site_aniso_U_33
_atom_site_aniso_U_12
_atom_site_aniso_U_13
_atom_site_aniso_U_23
Li1 Li1+ 0.027(5) 0.030(6) 0.028(5) -0.010(4) 0.011(4) -0.013(5)
Na1 Na1+ 0.032(1) 0.025(1) 0.025(1) 0.006(1) -0.006(1) -0.006(8)
Na2 Na1+ 0.024(1) 0.025(1) 0.033(1) 0.0055(8) 0.006(1) 0.006(1)
Na3 Na1+ 0.024(1) 0.034(1) 0.025(1) -0.007(1) -0.0049(8) 0.005(1)
Y1 Y3+ 0.0098(2) 0.0102(2) 0.0132(2) -0.0015(3) 0. 0.
Y2 Y3+ 0.0103(2) 0.0136(2) 0.0109(2) 0. 0.0017(3) 0.
Y3 Y3+ 0.0155(3) 0.0128(2) 0.0126(2) 0. 0. -0.0019(3)
Y4 Y3+ 0.0147(2) 0.0110(2) 0.0112(2) 0. 0. 0.0004(3)
Y5 Y3+ 0.0100(2) 0.0150(3) 0.0110(2) 0. -0.0004(4) 0.
Y6 Y3+ 0.0098(2) 0.0109(2) 0.0152(2) 0.0007(4) 0. 0.
P1 P5+ 0.0164(5) 0.0167(5) 0.0213(7) -0.0028(4) -0.0001(6) -0.0004(6)
P2 P5+ 0.0160(5) 0.0208(7) 0.0167(5) -0.0011(5) -0.0028(4) -0.0009(5)
P3 P5+ 0.0200(7) 0.0172(5) 0.0177(5) -0.0005(6) -0.0007(6) -0.0028(5)
C1 C4+ 0.022(3) 0.023(3) 0.020(3) 0.001(2) 0.003(1) 0.003(2)
O1 O2- 0.034(3) 0.037(3) 0.036(3) -0.007(2) 0.009(2) 0.007(2)
O2 O2- 0.027(2) 0.017(2) 0.040(2) 0.001(1) 0.001(3) 0.001(3)
O3 O2- 0.018(2) 0.028(2) 0.040(2) -0.001(1) 0.000(3) -0.001(3)
O4 O2- 0.017(2) 0.041(2) 0.026(2) 0.003(3) -0.002(1) -0.001(3)
O5 O2- 0.027(2) 0.041(2) 0.016(1) 0.000(3) 0.000(1) 0.001(3)
O6 O2- 0.034(3) 0.036(3) 0.035(3) -0.009(2) 0.008(2) 0.007(2)
O7 O2- 0.038(3) 0.046(4) 0.039(3) -0.012(3) -0.008(2) -0.013(3)
O8 O2- 0.034(3) 0.034(3) 0.040(3) -0.007(2) -0.013(3) -0.013(3)
O9 O2- 0.042(2) 0.018(2) 0.027(2) 0.001(3) 0.002(3) 0.000(1)
O10 O2- 0.040(2) 0.027(2) 0.018(2) 0.004(3) 0.000(3) 0.000(1)
O11 O2- 0.037(3) 0.037(3) 0.037(3) 0.007(2) 0.007(2) -0.009(2)
O12 O2- 0.050(4) 0.041(4) 0.040(3) -0.016(3) -0.015(3) -0.004(2)
O13 O2- 0.025(3) 0.028(2) 0.027(2) 0.006(2) -0.006(1) -0.006(2)
O14 O2- 0.029(2) 0.029(2) 0.028(3) 0.006(2) -0.007(1) -0.007(1)
O15 O2- 0.029(2) 0.026(3) 0.028(2) 0.006(2) 0.006(2) 0.007(2)
F1 F1- 0.027(3) 0.025(3) 0.030(2) 0.000(2) 0.001(2) -0.002(2)
F2 F1- 0.025(2) 0.030(3) 0.026(2) 0.009(2) -0.009(2) -0.009(2)
#End of data_189812-ICSD


