data_73194-ICSD
#?2014 by Fachinformationszentrum Karlsruhe, and the U.S. Secretary of 
#Commerce on behalf of the United States.  All rights reserved.
_database_code_ICSD                73194
_audit_creation_date               1994/06/30
_audit_update_record               2012/02/01
_chemical_name_systematic
;
Potassium Dimagnesium Dicopper Tris(vanadate)
;
_chemical_formula_structural       'K Mg2 Cu2 (V O4)3'
_chemical_formula_sum              'Cu2 K1 Mg2 O12 V3'
_publ_section_title
;
Darstellung und Kristallstruktur eines Kalium-Magnesium-Oxocuprat/-
vanadats: K Mg2 Cu2 V3 O12
;
loop_
_citation_id
_citation_journal_abbrev
_citation_year
_citation_journal_volume
_citation_page_first
_citation_page_last
_citation_journal_id_ASTM
primary 'Zeitschrift fuer Anorganische und Allgemeine Chemie (1950) (DE)'
 1993 619 617 620 ZAACAB
_publ_author_name
;
von Postel, M.;Mueller Buschbaum, H.
;
_cell_length_a                     12.1592(46)
_cell_length_b                     12.7204(42)
_cell_length_c                     6.8557(34)
_cell_angle_alpha                  90.
_cell_angle_beta                   111.728(53)
_cell_angle_gamma                  90.
_cell_volume                       985.03
_cell_formula_units_Z              4
_symmetry_space_group_name_H-M     'C 1 2/c 1'
_symmetry_Int_Tables_number        15
_refine_ls_R_factor_all            .086
loop_
_symmetry_equiv_pos_site_id
_symmetry_equiv_pos_as_xyz
  1	'x, -y, z+.5'
  2	'-x, -y, -z'
  3	'-x, y, -z+.5'
  4	'x, y, z'
  5	'x+.5, -y+.5, z+.5'
  6	'-x+.5, -y+.5, -z'
  7	'-x+.5, y+.5, -z+.5'
  8	'x+.5, y+.5, z'
loop_
_atom_type_symbol
_atom_type_oxidation_number
Cu2+	2
K1+	1
Mg2+	2
O2-	-2
V5+	5
loop_
_atom_site_label
_atom_site_type_symbol
_atom_site_symmetry_multiplicity
_atom_site_Wyckoff_symbol
_atom_site_fract_x
_atom_site_fract_y
_atom_site_fract_z
_atom_site_occupancy
_atom_site_attached_hydrogens
_atom_site_B_iso_or_equiv
Cu1 Cu2+ 4 e 0 0.5 0.25 1. 0 1.31(2) 
V1 V5+ 4 e 0 0.2884(2) 0.75 1. 0 1.09(2) 
V2 V5+ 8 f 0.7356(1) 0.3841(1) 0.1221(2) 1. 0 1.04(2) 
Cu2 Cu2+ 4 e 0 0.2595(3) 0.25 1. 0 1.11(6) 
Mg1 Mg2+ 8 f 0.7846(2) 0.1612(2) 0.3735(4) 1. 0 1.01(4) 
K1 K1+ 4 e 0.5 0.4851(3) 0.25 1. 0 2.00(5) 
O1 O2- 8 f 0.321(1) 0.496(1) 0.887(1) 1. 0 1.51(8) 
O2 O2- 8 f 0.608(1) 0.120(1) 0.267(1) 1. 0 1.45(8) 
O3 O2- 8 f 0.341(1) 0.672(1) 0.120(1) 1. 0 1.33(8) 
O4 O2- 8 f 0.286(1) 0.686(1) 0.680(1) 1. 0 1.39(8) 
O5 O2- 8 f 0.464(1) 0.715(1) 0.523(1) 1. 0 1.35(8) 
O6 O2- 8 f 0.614(1) 0.892(1) 0.324(1) 1. 0 1.50(8) 

#End of data_73194-ICSD


