data_24341-ICSD
#?2014 by Fachinformationszentrum Karlsruhe, and the U.S. Secretary of 
#Commerce on behalf of the United States.  All rights reserved.
_database_code_ICSD                24341
_audit_creation_date               1980/01/01
_audit_update_record               1987/10/01
_chemical_name_systematic          'Potassium Chromatoiodate'
_chemical_formula_structural       'K Cr I O6'
_chemical_formula_sum              'Cr1 I1 K1 O6'
_publ_section_title
;
The Crystal Structure of Potassium Chromato Iodate, K Cr I O6
;
loop_
_citation_id
_citation_journal_abbrev
_citation_year
_citation_journal_volume
_citation_page_first
_citation_page_last
_citation_journal_id_ASTM
primary 'Acta Chemica Scandinavica (1-27,1973-42,1988)' 1967 21 2781 2791 ACSAA4
_publ_author_name                  'Loefgren, P.'
_cell_length_a                     9.200(5)
_cell_length_b                     4.694(2)
_cell_length_c                     14.220(6)
_cell_angle_alpha                  90.
_cell_angle_beta                   107.21(3)
_cell_angle_gamma                  90.
_cell_volume                       586.59
_cell_formula_units_Z              4
_symmetry_space_group_name_H-M     'P 1 21/c 1'
_symmetry_Int_Tables_number        14
_refine_ls_R_factor_all            .089
loop_
_symmetry_equiv_pos_site_id
_symmetry_equiv_pos_as_xyz
  1	'x, -y+.5, z+.5'
  2	'-x, -y, -z'
  3	'-x, y+.5, -z+.5'
  4	'x, y, z'
loop_
_atom_type_symbol
_atom_type_oxidation_number
Cr6+	6
I5+	5
K1+	1
O2-	-2
loop_
_atom_site_label
_atom_site_type_symbol
_atom_site_symmetry_multiplicity
_atom_site_Wyckoff_symbol
_atom_site_fract_x
_atom_site_fract_y
_atom_site_fract_z
_atom_site_occupancy
_atom_site_attached_hydrogens
_atom_site_B_iso_or_equiv
K1 K1+ 4 e 0.8982(5) 0.0853(11) 0.3305(3) 1. 0 2.39 
Cr1 Cr6+ 4 e 0.2177(3) 0.4624(7) 0.4723(2) 1. 0 1.66 
I1 I5+ 4 e 0.4212(1) 0.1572(2) 0.3388(1) 1. 0 1.35 
O1 O2- 4 e 0.3833(16) 0.2597(32) 0.4586(10) 1. 0 2.32 
O2 O2- 4 e 0.2371(17) 0.0754(35) 0.2672(11) 1. 0 2.92 
O3 O2- 4 e 0.4458(19) 0.5035(37) 0.2935(12) 1. 0 3.34 
O4 O2- 4 e 0.2847(18) 0.7179(34) 0.5543(11) 1. 0 2.73 
O5 O2- 4 e 0.1159(17) 0.2478(34) 0.5127(11) 1. 0 2.74 
O6 O2- 4 e 0.1162(20) 0.586(4) 0.3673(13) 1. 0 3.49 

#End of data_24341-ICSD


