data_412688-ICSD
#?2014 by Fachinformationszentrum Karlsruhe, and the U.S. Secretary of 
#Commerce on behalf of the United States.  All rights reserved.
_database_code_ICSD                412688
_audit_creation_date               2003/10/01
_chemical_name_systematic          'Zinc Tetraborate - Beta'
_chemical_formula_structural       'Zn (B4 O7)'
_chemical_formula_sum              'B4 O7 Zn1'
_publ_section_title
;
Multianvil high-pressure/high-temperature preparation, crystal 
structure, and properties of the new oxoborate beta-Zn B4 O7
;
loop_
_citation_id
_citation_journal_abbrev
_citation_year
_citation_journal_volume
_citation_page_first
_citation_page_last
_citation_journal_id_ASTM
primary 'Solid State Sciences' 2003 5 281 289 SSSCFJ
_publ_author_name                  'Huppertz, H.;Heymann, G.'
_cell_length_a                     10.850(1)
_cell_length_b                     6.489(1)
_cell_length_c                     5.173(1)
_cell_angle_alpha                  90
_cell_angle_beta                   90
_cell_angle_gamma                  90
_cell_volume                       364.21
_cell_formula_units_Z              4
_symmetry_space_group_name_H-M     'C m c m'
_symmetry_Int_Tables_number        63
_refine_ls_R_factor_all            .0182
loop_
_symmetry_equiv_pos_site_id
_symmetry_equiv_pos_as_xyz
  1	'-x, y, -z+.5'
  2	'-x, -y, z+.5'
  3	'-x, y, z'
  4	'-x, -y, -z'
  5	'x, -y, z+.5'
  6	'x, y, -z+.5'
  7	'x, -y, -z'
  8	'x, y, z'
  9	'-x+.5, y+.5, -z+.5'
 10	'-x+.5, -y+.5, z+.5'
 11	'-x+.5, y+.5, z'
 12	'-x+.5, -y+.5, -z'
 13	'x+.5, -y+.5, z+.5'
 14	'x+.5, y+.5, -z+.5'
 15	'x+.5, -y+.5, -z'
 16	'x+.5, y+.5, z'
loop_
_atom_type_symbol
_atom_type_oxidation_number
B3+	3
O2-	-2
Zn2+	2
loop_
_atom_site_label
_atom_site_type_symbol
_atom_site_symmetry_multiplicity
_atom_site_Wyckoff_symbol
_atom_site_fract_x
_atom_site_fract_y
_atom_site_fract_z
_atom_site_occupancy
_atom_site_attached_hydrogens
_atom_site_U_iso_or_equiv
Zn1 Zn2+ 4 c 0 0.23399(5) 0.25 1. 0 0.0049(2) 
O1 O2- 4 c 0 -.0774(3) 0.25 1. 0 0.0038(4) 
O2 O2- 8 g -0.2200(2) -0.0235(2) 0.25 1. 0 0.0040(3) 
O3 O2- 16 h 0.12769(9) 0.3167(2) -.0215(2) 1. 0 0.0042(2) 
B1 B3+ 8 e 0.2026(2) 0.5 0 1. 0 0.0044(4) 
B2 B3+ 8 g 0.1174(2) 0.1922(3) 0.75 1. 0 0.0043(4) 

loop_
_atom_site_aniso_label
_atom_site_aniso_type_symbol
_atom_site_aniso_U_11
_atom_site_aniso_U_22
_atom_site_aniso_U_33
_atom_site_aniso_U_12
_atom_site_aniso_U_13
_atom_site_aniso_U_23
Zn1 Zn2+ 0.0059(2) 0.0045(2) 0.0045(2) 0 0 0
O1 O2- 0.0030(8) 0.0025(8) 0.0058(8) 0 0 0
O2 O2- 0.0039(5) 0.0040(6) 0.0041(6) 0.0008(4) 0 0
O3 O2- 0.0050(4) 0.0033(4) 0.0043(4) -0.0013(3) 0.0008(3) -0.0008(3)
B1 B3+ 0.0042(8) 0.0042(8) 0.0049(8) 0 0 0.0000(6)
B2 B3+ 0.0043(9) 0.0044(8) 0.0041(8) 0.0003(7) 0 0
#End of data_412688-ICSD


