data_16925-ICSD
#?2014 by Fachinformationszentrum Karlsruhe, and the U.S. Secretary of 
#Commerce on behalf of the United States.  All rights reserved.
_database_code_ICSD                16925
_audit_creation_date               1986/10/02
_chemical_name_systematic          'Barium Tetrafluorozincate'
_chemical_formula_structural       'Ba Zn F4'
_chemical_formula_sum              'Ba1 F4 Zn1'
_publ_section_title
;
Ternaere Fluoride A B F4 eines neuen Strukturtyps
;
loop_
_citation_id
_citation_journal_abbrev
_citation_year
_citation_journal_volume
_citation_page_first
_citation_page_last
_citation_journal_id_ASTM
primary Naturwissenschaften 1968 55 342 343 NATWAY
_publ_author_name                  'von Schnering, H.G.;Bleckmann, P.'
_cell_length_a                     4.206
_cell_length_b                     14.563
_cell_length_c                     5.841
_cell_angle_alpha                  90.
_cell_angle_beta                   90.
_cell_angle_gamma                  90.
_cell_volume                       357.77
_cell_formula_units_Z              4
_symmetry_space_group_name_H-M     'C m c 21'
_symmetry_Int_Tables_number        36
_refine_ls_R_factor_all            .12
loop_
_symmetry_equiv_pos_site_id
_symmetry_equiv_pos_as_xyz
  1	'x, -y, z+.5'
  2	'-x, -y, z+.5'
  3	'-x, y, z'
  4	'x, y, z'
  5	'x+.5, -y+.5, z+.5'
  6	'-x+.5, -y+.5, z+.5'
  7	'-x+.5, y+.5, z'
  8	'x+.5, y+.5, z'
loop_
_atom_type_symbol
_atom_type_oxidation_number
Ba2+	2
F1-	-1
Zn2+	2
loop_
_atom_site_label
_atom_site_type_symbol
_atom_site_symmetry_multiplicity
_atom_site_Wyckoff_symbol
_atom_site_fract_x
_atom_site_fract_y
_atom_site_fract_z
_atom_site_occupancy
_atom_site_attached_hydrogens
Ba1 Ba2+ 4 a 0 0.1477 0.249 1. 0 
Zn1 Zn2+ 4 a 0 0.413 0.282 1. 0 
F1 F1- 4 a 0 0.472 0.592 1. 0 
F2 F1- 4 a 0 0.3 0.472 1. 0 
F3 F1- 4 a 0 0.334 0.021 1. 0 
F4 F1- 4 a 0 0.925 0.311 1. 0 

#End of data_16925-ICSD


