data_425249-ICSD
#?2014 by Fachinformationszentrum Karlsruhe, and the U.S. Secretary of 
#Commerce on behalf of the United States.  All rights reserved.
_database_code_ICSD                425249
_audit_creation_date               2013/08/01
_chemical_name_systematic          Bis(tetrasulfato)palladate
_chemical_formula_structural       'K2 (Pd (S4 O13)2)'
_chemical_formula_sum              'K2 O26 Pd1 S8'
_publ_section_title
;
Bis(tetrasulfato)palladate, K2 [Pd (S4 O13)2](2-)
;
loop_
_citation_id
_citation_journal_abbrev
_citation_year
_citation_journal_volume
_citation_journal_issue
_citation_page_first
_citation_page_last
_citation_journal_id_ASTM
primary 'Angewandte Chemie. International Edition' 2013 52 9 2590 2592 ACIEF5
_publ_author_name
;
Bruns, Joern;Kluener, Thorsten;Wickleder, Mathias S.
;
_cell_length_a                     7.3225(2)
_cell_length_b                     8.5956(2)
_cell_length_c                     9.0313(2)
_cell_angle_alpha                  73.2660(10)
_cell_angle_beta                   88.6840(10)
_cell_angle_gamma                  71.5330(10)
_cell_volume                       514.88
_cell_formula_units_Z              1
_symmetry_space_group_name_H-M     'P -1'
_symmetry_Int_Tables_number        2
_refine_ls_R_factor_all            .015
loop_
_symmetry_equiv_pos_site_id
_symmetry_equiv_pos_as_xyz
  1	'-x, -y, -z'
  2	'x, y, z'
loop_
_atom_type_symbol
_atom_type_oxidation_number
K1+	1
O2-	-2
Pd2+	2
S6+	6
loop_
_atom_site_label
_atom_site_type_symbol
_atom_site_symmetry_multiplicity
_atom_site_Wyckoff_symbol
_atom_site_fract_x
_atom_site_fract_y
_atom_site_fract_z
_atom_site_occupancy
_atom_site_attached_hydrogens
_atom_site_U_iso_or_equiv
Pd1 Pd2+ 1 h 0.5000 0.5000 0.5000 1 0 0.01113(5) 
S1 S6+ 2 i 0.66817(5) 0.64092(5) 0.72028(4) 1 0 0.01317(8) 
S2 S6+ 2 i 0.86908(5) 0.81245(5) 0.48685(4) 1 0 0.01531(8) 
K1 K1+ 2 i 1.12894(5) 0.73221(5) 0.88164(4) 1 0 0.01972(8) 
O1 O2- 2 i 0.68707(15) 0.81679(13) 0.58125(12) 1 0 0.0152(2) 
O2 O2- 2 i 0.70635(15) 0.51436(13) 0.63268(12) 1 0 0.0141(2) 
O3 O2- 2 i 0.81932(16) 0.59466(15) 0.83641(12) 1 0 0.0181(2) 
O4 O2- 2 i 0.84533(15) 0.69553(14) 0.38073(12) 1 0 0.0164(2) 
O5 O2- 2 i 1.04025(16) 0.71195(15) 0.58209(13) 1 0 0.0196(2) 
O6 O2- 2 i 0.47365(16) 0.70403(16) 0.75460(14) 1 0 0.0231(2) 
O7 O2- 2 i 0.8402(2) 0.98105(16) 0.39207(15) 1 0 0.0275(3) 
S3 S6+ 2 i 0.37350(5) 0.85099(4) 0.22388(4) 1 0 0.01227(7) 
S4 S6+ 2 i 0.78457(5) 0.76304(6) 0.19721(4) 1 0 0.02064(9) 
O8 O2- 2 i 0.41300(15) 0.75365(13) 0.38969(12) 1 0 0.0149(2) 
O9 O2- 2 i 0.58297(15) 0.90153(14) 0.18480(13) 1 0 0.0171(2) 
O10 O2- 2 i 0.77009(19) 0.61644(18) 0.16559(15) 1 0 0.0321(3) 
O11 O2- 2 i 0.91069(19) 0.8502(2) 0.12238(15) 1 0 0.0392(4) 
O12 O2- 2 i 0.36085(16) 0.75698(14) 0.12087(13) 1 0 0.0180(2) 
O13 O2- 2 i 0.24147(16) 1.01861(14) 0.20068(13) 1 0 0.0196(2) 

loop_
_atom_site_aniso_label
_atom_site_aniso_type_symbol
_atom_site_aniso_U_11
_atom_site_aniso_U_22
_atom_site_aniso_U_33
_atom_site_aniso_U_12
_atom_site_aniso_U_13
_atom_site_aniso_U_23
Pd1 Pd2+ 0.01192(8) 0.01195(8) 0.00945(8) -0.00409(5) -0.00060(5) 
-0.00272(5)
S1 S6+ 0.01178(15) 0.01659(16) 0.01076(15) -0.00349(12) 0.00015(11) 
-0.00464(13)
S2 S6+ 0.01620(16) 0.01584(16) 0.01344(16) -0.00753(13) -0.00297(12) 
-0.00073(13)
K1 K1+ 0.01414(14) 0.02792(17) 0.01696(15) -0.00455(12) 0.00023(11) 
-0.00886(13)
O1 O2- 0.0153(5) 0.0136(5) 0.0152(5) -0.0021(4) -0.0013(4) -0.0048(4)
O2 O2- 0.0144(5) 0.0141(5) 0.0140(5) -0.0047(4) -0.0014(4) -0.0043(4)
O3 O2- 0.0187(5) 0.0227(5) 0.0123(5) -0.0063(4) -0.0035(4) -0.0045(4)
O4 O2- 0.0179(5) 0.0204(5) 0.0099(5) -0.0057(4) -0.0007(4) -0.0035(4)
O5 O2- 0.0154(5) 0.0251(6) 0.0172(5) -0.0073(4) -0.0038(4) -0.0034(4)
O6 O2- 0.0145(5) 0.0317(6) 0.0217(6) -0.0039(5) 0.0048(4) -0.0103(5)
O7 O2- 0.0343(7) 0.0207(6) 0.0259(6) -0.0152(5) -0.0061(5) 0.0035(5)
S3 S6+ 0.01165(15) 0.01225(15) 0.01181(16) -0.00256(12) -0.00251(11) 
-0.00312(12)
S4 S6+ 0.01282(16) 0.0347(2) 0.00982(16) -0.00311(15) 0.00015(12) 
-0.00482(15)
O8 O2- 0.0185(5) 0.0134(5) 0.0117(5) -0.0046(4) -0.0014(4) -0.0024(4)
O9 O2- 0.0140(5) 0.0185(5) 0.0171(5) -0.0057(4) -0.0015(4) -0.0021(4)
O10 O2- 0.0262(6) 0.0393(8) 0.0239(6) 0.0101(5) -0.0084(5) -0.0210(6)
O11 O2- 0.0201(6) 0.0717(11) 0.0156(6) -0.0174(7) 0.0018(5) 0.0052(6)
O12 O2- 0.0214(5) 0.0196(5) 0.0151(5) -0.0073(4) -0.0020(4) -0.0073(4)
O13 O2- 0.0176(5) 0.0155(5) 0.0207(5) 0.0013(4) -0.0054(4) -0.0047(4)
#End of data_425249-ICSD


