data_9430-ICSD
#?2014 by Fachinformationszentrum Karlsruhe, and the U.S. Secretary of 
#Commerce on behalf of the United States.  All rights reserved.
_database_code_ICSD                9430
_audit_creation_date               1980/01/01
_chemical_name_systematic
;
Disodium Lithium Heptafluorodiberyllate
;
_chemical_formula_structural       'Na2 Li Be2 F7'
_chemical_formula_sum              'Be2 F7 Li1 Na2'
_publ_section_title
;
The crystal structure of Na2 Li Be2 F7
;
loop_
_citation_id
_citation_journal_abbrev
_citation_year
_citation_journal_volume
_citation_page_first
_citation_page_last
_citation_journal_id_ASTM
primary 'Materials Research Bulletin' 1972 7 641 646 MRBUAC
_publ_author_name                  'Brunton, G.'
_cell_length_a                     7.593(2)
_cell_length_b                     7.593(2)
_cell_length_c                     4.841(2)
_cell_angle_alpha                  90.
_cell_angle_beta                   90.
_cell_angle_gamma                  90.
_cell_volume                       279.1
_cell_formula_units_Z              2
_symmetry_space_group_name_H-M     'P -4 21 m'
_symmetry_Int_Tables_number        113
_refine_ls_R_factor_all            .0551
loop_
_symmetry_equiv_pos_site_id
_symmetry_equiv_pos_as_xyz
  1	'-y+.5, -x+.5, z'
  2	'y, -x, -z'
  3	'y+.5, x+.5, z'
  4	'-y, x, -z'
  5	'x+.5, -y+.5, -z'
  6	'-x, -y, z'
  7	'-x+.5, y+.5, -z'
  8	'x, y, z'
loop_
_atom_type_symbol
_atom_type_oxidation_number
Be2+	2
F1-	-1
Li1+	1
Na1+	1
loop_
_atom_site_label
_atom_site_type_symbol
_atom_site_symmetry_multiplicity
_atom_site_Wyckoff_symbol
_atom_site_fract_x
_atom_site_fract_y
_atom_site_fract_z
_atom_site_occupancy
_atom_site_attached_hydrogens
Na1 Na1+ 4 e 0.1669(2) 0.6669(2) 0.4927(4) 1. 0 
Li1 Li1+ 2 a 0 0 0 1. 0 
Be1 Be2+ 4 e 0.3597(5) 0.8597(5) 0.0656(9) 1. 0 
F1 F1- 2 c 0 0.5 0.8282(7) 1. 0 
F2 F1- 4 e 0.3586(3) 0.8586(3) 0.7547(4) 1. 0 
F3 F1- 8 f 0.0828(3) 0.1870(3) 0.8014(4) 1. 0 

#End of data_9430-ICSD


