data_18120-ICSD
#?2014 by Fachinformationszentrum Karlsruhe, and the U.S. Secretary of 
#Commerce on behalf of the United States.  All rights reserved.
_database_code_ICSD                18120
_audit_creation_date               1980/01/01
_audit_update_record               2006/04/01
_chemical_name_systematic          'Magnesium Chromate - Beta'
_chemical_formula_structural       'Mg (Cr O4)'
_chemical_formula_sum              'Cr1 Mg1 O4'
_publ_section_title
;
X-ray diffraction study of the chromates of nickel, magnesium and 
cadmium
;
loop_
_citation_id
_citation_journal_abbrev
_citation_year
_citation_journal_volume
_citation_page_first
_citation_page_last
_citation_journal_id_ASTM
primary
;
Zeitschrift fuer Kristallographie, Kristallgeometrie, Kristallphysik, 
Kristallchemie (-144,1977)
;
 1969 130 112 120 ZEKGAX
2 'Phase Transition' 1992 38 127 220 PHTRDP
_publ_author_name                  'Muller, O.;White, W.B.;Roy, R.'
_cell_length_a                     9.95
_cell_length_b                     9.16
_cell_length_c                     6.759
_cell_angle_alpha                  90.
_cell_angle_beta                   103.68
_cell_angle_gamma                  90.
_cell_volume                       598.55
_cell_formula_units_Z              8
_symmetry_space_group_name_H-M     'C 1 2/m 1'
_symmetry_Int_Tables_number        12
_refine_ls_R_factor_all            .157
loop_
_symmetry_equiv_pos_site_id
_symmetry_equiv_pos_as_xyz
  1	'-x, y, -z'
  2	'-x, -y, -z'
  3	'x, -y, z'
  4	'x, y, z'
  5	'-x+.5, y+.5, -z'
  6	'-x+.5, -y+.5, -z'
  7	'x+.5, -y+.5, z'
  8	'x+.5, y+.5, z'
loop_
_atom_type_symbol
_atom_type_oxidation_number
Cr6+	6
Mg2+	2
O2-	-2
loop_
_atom_site_label
_atom_site_type_symbol
_atom_site_symmetry_multiplicity
_atom_site_Wyckoff_symbol
_atom_site_fract_x
_atom_site_fract_y
_atom_site_fract_z
_atom_site_occupancy
_atom_site_attached_hydrogens
Mg1 Mg2+ 4 h 0 0.185(10) 0.5 1. 0 
Mg2 Mg2+ 4 i 0.793(10) 0 0.114(10) 1. 0 
Cr1 Cr6+ 4 g 0 0.256(10) 0 1. 0 
Cr2 Cr6+ 4 i 0.269(10) 0 0.394(10) 1. 0 
O1 O2- 4 i 0.35(6) 0.5 0.46(6) 1. 0 
O2 O2- 4 i 0.17(6) 0 0.19(6) 1. 0 
O3 O2- 8 j 0.13(3) 0.35(3) 0.11(3) 1. 0 
O4 O2- 8 j 0.46(3) 0.34(3) 0.17(3) 1. 0 
O5 O2- 8 j 0.37(3) 0.13(3) 0.48(3) 1. 0 

#End of data_18120-ICSD


