data_411773-ICSD
#?2014 by Fachinformationszentrum Karlsruhe, and the U.S. Secretary of 
#Commerce on behalf of the United States.  All rights reserved.
_database_code_ICSD                411773
_audit_creation_date               2003/10/01
_chemical_name_systematic          'Silver Mercury Sulfide Bromide'
_chemical_formula_structural       'Ag Hg S Br'
_chemical_formula_sum              'Ag1 Br1 Hg1 S1'
_publ_section_title
;
Hydrothermalsynthese und Kristallstruktur der Muenzmetall-Quecksilber-
Chalkogenidhalogenide Cu Hg Se Br, Ag Hg S Br und Ag Hg S I
;
loop_
_citation_id
_citation_journal_abbrev
_citation_year
_citation_journal_volume
_citation_page_first
_citation_page_last
_citation_journal_id_ASTM
primary 'Zeitschrift fuer Anorganische und Allgemeine Chemie (1950) (DE)'
 2001 627 2289 2294 ZAACAB
_publ_author_name
;
Beck, J.;Keller, H.L.;Rompel, M.;Wimbert, L.
;
_cell_length_a                     9.648(8)
_cell_length_b                     4.661(4)
_cell_length_c                     9.426(6)
_cell_angle_alpha                  90.
_cell_angle_beta                   90.
_cell_angle_gamma                  90.
_cell_volume                       423.88
_cell_formula_units_Z              4
_symmetry_space_group_name_H-M     'P m m a'
_symmetry_Int_Tables_number        51
_refine_ls_R_factor_all            .0547
loop_
_symmetry_equiv_pos_site_id
_symmetry_equiv_pos_as_xyz
  1	'-x+.5, -y, z'
  2	'x+.5, -y, -z'
  3	'x, -y, z'
  4	'-x, -y, -z'
  5	'x+.5, y, -z'
  6	'-x+.5, y, z'
  7	'-x, y, -z'
  8	'x, y, z'
loop_
_atom_type_symbol
_atom_type_oxidation_number
Ag1+	1
Br1-	-1
Hg2+	2
S2-	-2
loop_
_atom_site_label
_atom_site_type_symbol
_atom_site_symmetry_multiplicity
_atom_site_Wyckoff_symbol
_atom_site_fract_x
_atom_site_fract_y
_atom_site_fract_z
_atom_site_occupancy
_atom_site_attached_hydrogens
_atom_site_U_iso_or_equiv
Hg1 Hg2+ 2 f 0.25 0.5 0.76843(9) 1. 0 0.0363(2) 
Hg2 Hg2+ 2 d 0 0.5 0.5 1. 0 0.0397(2) 
Ag1 Ag1+ 4 i 0.0768(3) 0 0.2061(3) 1. 0 0.0890(9) 
Br1 Br1- 2 e 0.25 0 0.4843(2) 1. 0 0.0332(4) 
Br2 Br1- 2 e 0.25 0 0.9840(2) 1. 0 0.0352(4) 
S1 S2- 4 j 0.0058(3) 0.5 0.7497(4) 1. 0 0.0295(5) 

loop_
_atom_site_aniso_label
_atom_site_aniso_type_symbol
_atom_site_aniso_U_11
_atom_site_aniso_U_22
_atom_site_aniso_U_33
_atom_site_aniso_U_12
_atom_site_aniso_U_13
_atom_site_aniso_U_23
Hg1 Hg2+ 0.0285(3) 0.0404(4) 0.0401(4) 0 0 0
Hg2 Hg2+ 0.0419(4) 0.0434(4) 0.0338(4) 0 -0.0046(3) 0
Ag1 Ag1+ 0.1115(19) 0.0344(6) 0.1210(18) 0 0.0697(16) 0
Br1 Br1- 0.0323(8) 0.0291(7) 0.0381(10) 0 0 0
Br2 Br1- 0.0408(10) 0.0391(8) 0.0257(9) 0 0 0
S1 S2- 0.0290(13) 0.0276(11) 0.0319(13) 0 0.0001(12) 0
#End of data_411773-ICSD


