data_4225-ICSD
#?2014 by Fachinformationszentrum Karlsruhe, and the U.S. Secretary of 
#Commerce on behalf of the United States.  All rights reserved.
_database_code_ICSD                4225
_audit_creation_date               1980/01/01
_audit_update_record               1987/11/13
_chemical_name_systematic          'Magnesium Tris(borate) Fluoride'
_chemical_formula_structural       'Mg5 (B O3)3 F'
_chemical_formula_sum              'B3 F1 Mg5 O9'
_publ_section_title
;
Structure of  Mg5 (B O3)3 F  and its relation to the structure of 
leucophoenicite  Mn7 (Si O4)2 (Si4 (O H)2)
;
loop_
_citation_id
_citation_journal_abbrev
_citation_year
_citation_journal_volume
_citation_page_first
_citation_page_last
_citation_journal_id_ASTM
primary Kristallografiya 1975 20 415 418 KRISAJ
2 'Soviet Physics, Crystallography (= Kristallografiya)'
 1975 20 252 254 SPHCA6
_publ_author_name                  'Brovkin, A.A.;Nikishova, L.V.'
_cell_length_a                     10.061(6)
_cell_length_b                     4.536(3)
_cell_length_c                     14.865(10)
_cell_angle_alpha                  90.
_cell_angle_beta                   90.
_cell_angle_gamma                  90.
_cell_volume                       678.39
_cell_formula_units_Z              4
_symmetry_space_group_name_H-M     'P n a 21'
_symmetry_Int_Tables_number        33
_refine_ls_R_factor_all            .12
loop_
_symmetry_equiv_pos_site_id
_symmetry_equiv_pos_as_xyz
  1	'x+.5, -y+.5, z'
  2	'-x+.5, y+.5, z+.5'
  3	'-x, -y, z+.5'
  4	'x, y, z'
loop_
_atom_type_symbol
_atom_type_oxidation_number
B3+	3
F1-	-1
Mg2+	2
O2-	-2
loop_
_atom_site_label
_atom_site_type_symbol
_atom_site_symmetry_multiplicity
_atom_site_Wyckoff_symbol
_atom_site_fract_x
_atom_site_fract_y
_atom_site_fract_z
_atom_site_occupancy
_atom_site_attached_hydrogens
_atom_site_B_iso_or_equiv
Mg1 Mg2+ 4 a 0.147 0.99 0.052 1. 0 1.06 
Mg2 Mg2+ 4 a 0.419 0 0.148 1. 0 1.06 
Mg3 Mg2+ 4 a 0.155 0.994 0.252 1. 0 1.06 
Mg4 Mg2+ 4 a 0.132 0.999 0.457 1. 0 1.06 
Mg5 Mg2+ 4 a 0.372 0.501 0.343 1. 0 1.06 
B1 B3+ 4 a 0.277 0.445 0.148 1. 0 1.06 
B2 B3+ 4 a 0.079 0.528 0.321 1. 0 1.06 
B3 B3+ 4 a 0.426 0.033 0.475 1. 0 1.06 
O1 O2- 4 a 0.299 0.294 0.069 1. 0 1.06 
O2 O2- 4 a 0.493 0.815 0.035 1. 0 1.06 
O3 O2- 4 a 0.301 0.312 0.231 1. 0 1.06 
O4 O2- 4 a 0.247 0.75 0.146 1. 0 1.06 
O5 O2- 4 a 0.495 0.81 0.262 1. 0 1.06 
O6 O2- 4 a 0.054 0.248 0.342 1. 0 1.06 
O7 O2- 4 a 0.182 0.69 0.357 1. 0 1.06 
O8 O2- 4 a 0.314 0.198 0.445 1. 0 1.06 
O9 O2- 4 a 0.443 0.751 0.452 1. 0 1.06 
F1 F1- 4 a 0.057 0.19 0.153 1. 0 1.06 

#End of data_4225-ICSD


