data_74968-ICSD
#?2014 by Fachinformationszentrum Karlsruhe, and the U.S. Secretary of 
#Commerce on behalf of the United States.  All rights reserved.
_database_code_ICSD                74968
_audit_creation_date               1995/10/17
_chemical_name_systematic          'Hexapotassium Dialuminate'
_chemical_formula_structural       'K6 (Al2 O6)'
_chemical_formula_sum              'Al2 K6 O6'
_publ_section_title
;
Darstellung und Kristallstruktur von K6(Al2O6) und Rb6(Al2O6)
;
loop_
_citation_id
_citation_journal_abbrev
_citation_year
_citation_journal_volume
_citation_page_first
_citation_page_last
_citation_journal_id_ASTM
primary 'Zeitschrift fuer Anorganische und Allgemeine Chemie (1950) (DE)'
 1994 620 882 887 ZAACAB
_publ_author_name                  'Schlaeger, M.;Hoppe, R.'
_cell_length_a                     6.9825
_cell_length_b                     11.0354
_cell_length_c                     6.4649
_cell_angle_alpha                  90.
_cell_angle_beta                   102.49
_cell_angle_gamma                  90.
_cell_volume                       486.36
_cell_formula_units_Z              2
_symmetry_space_group_name_H-M     'C 1 2/m 1'
_symmetry_Int_Tables_number        12
_refine_ls_R_factor_all            .022
loop_
_symmetry_equiv_pos_site_id
_symmetry_equiv_pos_as_xyz
  1	'-x, y, -z'
  2	'-x, -y, -z'
  3	'x, -y, z'
  4	'x, y, z'
  5	'-x+.5, y+.5, -z'
  6	'-x+.5, -y+.5, -z'
  7	'x+.5, -y+.5, z'
  8	'x+.5, y+.5, z'
loop_
_atom_type_symbol
_atom_type_oxidation_number
Al3+	3
K1+	1
O2-	-2
loop_
_atom_site_label
_atom_site_type_symbol
_atom_site_symmetry_multiplicity
_atom_site_Wyckoff_symbol
_atom_site_fract_x
_atom_site_fract_y
_atom_site_fract_z
_atom_site_occupancy
_atom_site_attached_hydrogens
K1 K1+ 4 g 0 0.2661(1) 0 1. 0 
K2 K1+ 4 h 0 0.1961(1) 0.5 1. 0 
K3 K1+ 4 i 0.3713(1) 0 0.6480(1) 1. 0 
Al1 Al3+ 4 i 0.1616(1) 0 0.1457(2) 1. 0 
O1 O2- 4 i 0.9004(3) 0 0.1437(4) 1. 0 
O2 O2- 8 j 0.2814(2) 0.1302(2) 0.2619(3) 1. 0 

loop_
_atom_site_aniso_label
_atom_site_aniso_type_symbol
_atom_site_aniso_U_11
_atom_site_aniso_U_22
_atom_site_aniso_U_33
_atom_site_aniso_U_12
_atom_site_aniso_U_13
_atom_site_aniso_U_23
K1 K1+ 0.0271(4) 0.0165(4) 0.0166(4) 0 0.0041(3) 0
K2 K1+ 0.0169(4) 0.0161(4) 0.0197(4) 0 0.0045(3) 0
K3 K1+ 0.0122(3) 0.0304(4) 0.0147(4) 0 0.0040(3) 0
Al1 Al3+ 0.0086(4) 0.0108(4) 0.0088(4) 0 0.0007(3) 0
O1 O2- 0.0122(11) 0.0298(14) 0.0112(11) 0 0.0034(9) 0
O2 O2- 0.0165(8) 0.0137(8) 0.0169(8) -.0002(6) -.0016(6) -.0030(6)
#End of data_74968-ICSD


