data_410696-ICSD
#?2014 by Fachinformationszentrum Karlsruhe, and the U.S. Secretary of 
#Commerce on behalf of the United States.  All rights reserved.
_database_code_ICSD                410696
_audit_creation_date               2000/07/15
_chemical_name_systematic          'Cesium Tetraiodozincate'
_chemical_formula_structural       'Cs2 (Zn I4)'
_chemical_formula_sum              'Cs2 I4 Zn1'
_publ_section_title
;
Crystal structure and symmetry mode analysis of the threefold 
superstructure of Cs2 Zn I4 at 104 K
;
loop_
_citation_id
_citation_journal_abbrev
_citation_year
_citation_journal_volume
_citation_page_first
_citation_page_last
_citation_journal_id_ASTM
primary 'Zeitschrift fuer Kristallographie (1979-2010)' 1999 214 659 665 ZEKRDZ
_publ_author_name
;
Friese, K.;Neubert, B.;Madariaga, G.;Breczewski, T.
;
_cell_length_a                     32.330(40)
_cell_length_b                     14.291(7)
_cell_length_c                     8.220(4)
_cell_angle_alpha                  90.
_cell_angle_beta                   90.
_cell_angle_gamma                  90.
_cell_volume                       3797.87
_cell_formula_units_Z              12
_symmetry_space_group_name_H-M     'P n a 21'
_symmetry_Int_Tables_number        33
_refine_ls_R_factor_all            .0906
loop_
_symmetry_equiv_pos_site_id
_symmetry_equiv_pos_as_xyz
  1	'x+.5, -y+.5, z'
  2	'-x+.5, y+.5, z+.5'
  3	'-x, -y, z+.5'
  4	'x, y, z'
loop_
_atom_type_symbol
_atom_type_oxidation_number
Cs1+	1
I1-	-1
Zn2+	2
loop_
_atom_site_label
_atom_site_type_symbol
_atom_site_symmetry_multiplicity
_atom_site_Wyckoff_symbol
_atom_site_fract_x
_atom_site_fract_y
_atom_site_fract_z
_atom_site_occupancy
_atom_site_attached_hydrogens
Cs1 Cs1+ 4 a 0.00818(9) 0.66534(14) 0.2505(3) 1. 0 
Cs2 Cs1+ 4 a 0.34173(9) 0.66715(14) 0.2542(3) 1. 0 
Cs3 Cs1+ 4 a 0.67506(10) 0.66467(15) 0.2505(4) 1. 0 
Cs4 Cs1+ 4 a 0.12279(13) 0.3956(2) 0.2513(4) 1. 0 
Cs5 Cs1+ 4 a 0.45647(13) 0.3990(2) 0.2469(4) 1. 0 
Cs6 Cs1+ 4 a 0.78934(13) 0.3944(3) 0.2576(4) 1. 0 
Zn1 Zn2+ 4 a 0.25478(17) 0.4236(3) 0.2564(6) 1. 0 
Zn2 Zn2+ 4 a 0.58811(16) 0.4223(3) 0.2524(6) 1. 0 
Zn3 Zn2+ 4 a 0.92122(16) 0.4225(3) 0.2596(5) 1. 0 
I1 I1- 4 a 0.00127(11) 0.39888(17) 0.2603(4) 1. 0 
I2 I1- 4 a 0.33455(11) 0.40000(16) 0.2499(4) 1. 0 
I3 I1- 4 a 0.66815(11) 0.39834(16) 0.2445(4) 1. 0 
I4 I1- 4 a 0.22923(11) 0.59562(17) 0.2732(5) 1. 0 
I5 I1- 4 a 0.56247(13) 0.59478(16) 0.2428(5) 1. 0 
I6 I1- 4 a 0.89611(12) 0.59355(16) 0.2428(5) 1. 0 
I7 I1- 4 a 0.22396(12) 0.3392(2) 0.5030(4) 1. 0 
I8 I1- 4 a 0.55667(12) 0.3499(2) 0.5088(3) 1. 0 
I9 I1- 4 a 0.88861(12) 0.3529(3) 0.5205(4) 1. 0 
I10 I1- 4 a -.22326(11) -.3538(2) -.5104(3) 1. 0 
I11 I1- 4 a -.55678(11) -.3399(2) -.5036(3) 1. 0 
I12 I1- 4 a -.89181(12) -.3359(2) -.4973(4) 1. 0 

loop_
_atom_site_aniso_label
_atom_site_aniso_type_symbol
_atom_site_aniso_U_11
_atom_site_aniso_U_22
_atom_site_aniso_U_33
_atom_site_aniso_U_12
_atom_site_aniso_U_13
_atom_site_aniso_U_23
Cs1 Cs1+ 0.0123(17) 0.0119(9) 0.0263(13) 0.0030(9) 0.0061(11) 0.0036(10)
Cs2 Cs1+ 0.0097(15) 0.0125(9) 0.0209(12) -.0045(8) 0.0033(10) 0.0065(9)
Cs3 Cs1+ 0.0120(16) 0.0115(9) 0.0296(13) -.0006(8) 0.0050(11) 0.0043(10)
Cs4 Cs1+ 0.012(2) 0.0579(18) 0.0317(16) 0.0096(15) 0.0006(12) 0.0173(15)
Cs5 Cs1+ 0.015(2) 0.062(2) 0.0245(16) 0.0031(15) -.0020(11) 0.0098(15)
Cs6 Cs1+ 0.020(2) 0.061(2) 0.0273(18) 0.0182(17) -.0033(12) 0.0058(15)
Zn1 Zn2+ 0.012(3) 0.0081(15) 0.016(2) 0.0007(17) 0.0045(17) 0.0036(15)
Zn2 Zn2+ 0.007(3) 0.0097(15) 0.012(2) -.0024(16) 0.0030(16) 0.0030(15)
Zn3 Zn2+ 0.010(3) 0.0110(16) 0.0102(19) 0.0019(16) 0.0061(16) 0.0037(15)
I1 I1- 0.012(2) 0.0162(11) 0.043(2) 0.0039(10) -.0084(12) 0.0059(12)
I2 I1- 0.0104(17) 0.0163(11) 0.0419(17) 0.0032(10) -.0101(12) 0.0036(12)
I3 I1- 0.0101(18) 0.0193(12) 0.0327(16) 0.0046(10) -.0102(11) 0.0019(12)
I4 I1- 0.014(2) 0.0116(11) 0.050(3) 0.0024(9) -.0022(13) -.0096(12)
I5 I1- 0.016(2) 0.012(1) 0.056(2) -.0017(10) -.0033(14) -.0062(13)
I6 I1- 0.0133(19) 0.0113(10) 0.059(2) 0.0116(10) -.0028(14) -.0049(13)
I7 I1- 0.024(2) 0.0546(18) 0.0248(18) -.0189(15) -.0065(14) 0.0307(17)
I8 I1- 0.026(2) 0.0471(17) 0.0169(14) -.0152(14) 0.0002(12) 0.0217(13)
I9 I1- 0.021(2) 0.0492(17) 0.027(2) -.0108(14) -.0113(14) 0.0244(15)
I10 I1- 0.0148(19) 0.0458(15) 0.0143(15) -.0078(13) -.0002(11) 0.0086(16)
I11 I1- 0.0184(19) 0.0481(17) 0.0143(12) -.0112(13) 0.0018(11) 0.0098(13)
I12 I1- 0.020(2) 0.0453(16) 0.0236(17) -.0085(13) -.0108(13) 0.0140(15)
#End of data_410696-ICSD


