data_92701-ICSD
#?2014 by Fachinformationszentrum Karlsruhe, and the U.S. Secretary of 
#Commerce on behalf of the United States.  All rights reserved.
_database_code_ICSD                92701
_audit_creation_date               2003/04/01
_chemical_name_systematic
;
Dipotassium Manganese Bis(sulfate(VI)) Tetrahydrate - Lt I
;
_chemical_formula_structural       'K2 Mn (S O4)2 (H2 O)4'
_chemical_formula_sum              'H8 K2 Mn1 O12 S2'
_chemical_name_mineral             'Leonite, manganoan'
_publ_section_title
;
The crystal structures of the low-temperature phases of leonite-type 
compounds, K2 Me (S O4)2 * 4(H2 O) (Me(2+) = Mg, Mn, Fe)
;
loop_
_citation_id
_citation_journal_abbrev
_citation_year
_citation_journal_volume
_citation_page_first
_citation_page_last
_citation_journal_id_ASTM
primary 'American Mineralogist' 2001 86 1282 1292 AMMIAY
_publ_author_name
;
Hertweck, B.;Giester, G.;Libowitzky, E.
;
_cell_length_a                     12.035(2)
_cell_length_b                     9.549(2)
_cell_length_c                     19.839(4)
_cell_angle_alpha                  90
_cell_angle_beta                   94.99(3)
_cell_angle_gamma                  90
_cell_volume                       2271.3
_cell_formula_units_Z              8
_symmetry_space_group_name_H-M     'I 1 2/a 1'
_symmetry_Int_Tables_number        15
_refine_ls_R_factor_all            .027
loop_
_symmetry_equiv_pos_site_id
_symmetry_equiv_pos_as_xyz
  1	'x+.5, -y, z'
  2	'-x, -y, -z'
  3	'-x+.5, y, -z'
  4	'x, y, z'
  5	'x, -y+.5, z+.5'
  6	'-x+.5, -y+.5, -z+.5'
  7	'-x, y+.5, -z+.5'
  8	'x+.5, y+.5, z+.5'
loop_
_atom_type_symbol
_atom_type_oxidation_number
H1+	1
K1+	1
Mn2+	2
O2-	-2
S6+	6
loop_
_atom_site_label
_atom_site_type_symbol
_atom_site_symmetry_multiplicity
_atom_site_Wyckoff_symbol
_atom_site_fract_x
_atom_site_fract_y
_atom_site_fract_z
_atom_site_occupancy
_atom_site_attached_hydrogens
_atom_site_U_iso_or_equiv
K1 K1+ 8 f 0.08022(3) 0.51685(3) 0.37920(2) 1. 0 0.0157(1) 
K2 K1+ 8 f 0.42013(3) 0.50936(4) 0.62839(2) 1. 0 0.0152(1) 
Mn1 Mn2+ 4 e 0.250 0.24914(3) 0.5 1. 0 0.0089(1) 
Mn2 Mn2+ 4 c 0.250 0.750 0.750 1. 0 0.0086(1) 
S1 S6+ 8 f 0.45701(2) 0.74730(3) 0.47758(2) 1. 0 0.0088(1) 
S2 S6+ 8 f 0.46207(3) 0.25710(3) 0.25987(2) 1. 0 0.0087(1) 
O1 O2- 8 f 0.0921(1) 0.3747(1) 0.05551(6) 1. 0 0.0167(2) 
O2 O2- 8 f 0.4091(1) 0.8782(1) 0.44184(6) 1. 0 0.0166(2) 
O3 O2- 8 f 0.4005(1) 0.1574(1) 0.29907(6) 1. 0 0.0211(3) 
O4 O2- 8 f 0.4269(1) 0.4014(1) 0.27331(6) 1. 0 0.0230(3) 
O5 O2- 8 f 0.4226(1) 0.2492(1) 0.53002(7) 1. 0 0.0240(3) 
O6 O2- 8 f 0.4341(1) 0.7434(1) 0.54827(6) 1. 0 0.0207(3) 
O7 O2- 8 f 0.4176(1) 0.7443(1) 0.71728(6) 1. 0 0.0133(2) 
O8 O2- 8 f 0.4431(1) 0.2699(1) 0.68716(6) 1. 0 0.0203(3) 
O9 O2- 8 f 0.2870(1) 0.5847(1) 0.32485(6) 1.000 0 0.0139(2) 
O10 O2- 8 f 0.2407(1) -0.0830(1) 0.32285(6) 1.000 0 0.0137(2) 
O11 O2- 4 e 0.250 0.4771(2) 0.5 1.000 0 0.0195(4) 
O12 O2- 4 e 0.250 0.0224(2) 0.5 1.000 0 0.0251(4) 
O13 O2- 8 f 0.2598(1) 0.2479(1) 0.39007(7) 1.000 0 0.0208(3) 
H1 H1+ 8 f 0.324(2) 0.527(3) 0.308(1) 1. 0 0.031(6) 
H2 H1+ 8 f 0.326(2) 0.602(2) 0.363(1) 1. 0 0.030(6) 
H3 H1+ 8 f 0.321(2) -0.021(3) 0.308(1) 1. 0 0.030(7) 
H4 H1+ 8 f 0.332(2) 0.901(2) 0.862(1) 1. 0 0.029(6) 
H5 H1+ 8 f 0.293(2) 0.526(2) 0.484(1) 1. 0 0.040(7) 
H6 H1+ 8 f 0.293(2) -0.028(3) 0.485(1) 1. 0 0.041(7) 
H7 H1+ 8 f 0.306(2) 0.237(2) 0.366(1) 1. 0 0.035(7) 
H8 H1+ 8 f 0.204(3) 0.256(2) 0.364(1) 1. 0 0.042(8) 

#End of data_92701-ICSD


