data_39446-ICSD
#?2014 by Fachinformationszentrum Karlsruhe, and the U.S. Secretary of 
#Commerce on behalf of the United States.  All rights reserved.
_database_code_ICSD                39446
_audit_creation_date               1992/01/20
_audit_update_record               2012/08/01
_chemical_name_systematic          'Tripotassium Erbium Sulfate'
_chemical_formula_structural       'K3 Er (S O4)3'
_chemical_formula_sum              'Er1 K3 O12 S3'
_publ_section_title
;
Double sulfates M3TR(SO4)3 (M=K, Rb) with frame-structure
;
loop_
_citation_id
_citation_journal_abbrev
_citation_year
_citation_journal_volume
_citation_page_first
_citation_page_last
_citation_journal_id_ASTM
primary 'Zhurnal Strukturnoi Khimii (Issue-No. from 1981)'
 1991 32 110 115 ZSTKAI
_publ_author_name                  'Iskhakova, L.D.;Gasanov, Yu.M.'
_cell_length_a                     9.222(2)
_cell_length_b                     14.688(1)
_cell_length_c                     9.008(1)
_cell_angle_alpha                  90.
_cell_angle_beta                   110.72(2)
_cell_angle_gamma                  90.
_cell_volume                       1141.24
_cell_formula_units_Z              4
_symmetry_space_group_name_H-M     'P 1 c 1'
_symmetry_Int_Tables_number        7
_refine_ls_R_factor_all            .059
loop_
_symmetry_equiv_pos_site_id
_symmetry_equiv_pos_as_xyz
  1	'x, -y, z+.5'
  2	'x, y, z'
loop_
_atom_type_symbol
_atom_type_oxidation_number
Er3+	3
K1+	1
O2-	-2
S6+	6
loop_
_atom_site_label
_atom_site_type_symbol
_atom_site_symmetry_multiplicity
_atom_site_Wyckoff_symbol
_atom_site_fract_x
_atom_site_fract_y
_atom_site_fract_z
_atom_site_occupancy
_atom_site_attached_hydrogens
_atom_site_B_iso_or_equiv
Er1 Er3+ 2 a 0 0.32629(5) 0 1. 0 0.94 
Er2 Er3+ 2 a 0.5087(1) 0.14860(6) 0.0366(1) 1. 0 0.89 
K1 K1+ 2 a 0.7356(6) 0.5584(4) 0.7567(6) 1. 0 1.88 
K2 K1+ 2 a 0.3337(5) 0.5118(3) -.0378(6) 1. 0 1.62 
K3 K1+ 2 a 0.8468(6) 0.9885(4) -.0283(6) 1. 0 1.99 
K4 K1+ 2 a 0.2312(6) 0.0753(4) 0.2932(6) 1. 0 1.81 
K5 K1+ 2 a 0.6866(6) 0.7397(4) 0.0489(6) 1. 0 1.92 
K6 K1+ 2 a 0.2070(6) 0.7384(4) 0.0814(6) 1. 0 2.15 
S1 S6+ 2 a 0.5874(5) 0.6510(3) 0.3421(6) 1. 0 0.83 
S2 S6+ 2 a 0.8459(5) 0.1934(3) 0.2204(6) 1. 0 0.92 
S3 S6+ 2 a 0.5001(6) 0.9510(4) 0.1644(6) 1. 0 1.21 
S4 S6+ 2 a 0.3437(5) 0.3098(3) 0.2085(6) 1. 0 0.97 
S5 S6+ 2 a 0.0100(6) 0.5521(3) 0.1549(5) 1. 0 0.8 
S6 S6+ 2 a 0.0865(6) 0.1528(3) -.1449(6) 1. 0 0.96 
O1 O2- 2 a 0.490(2) 0.638(1) 0.177(2) 1. 0 1.75 
O2 O2- 2 a 0.594(2) 0.568(1) 0.431(2) 1. 0 2.58 
O3 O2- 2 a 0.744(2) 0.678(1) 0.353(2) 1. 0 1.47 
O4 O2- 2 a 0.525(2) 0.723(1) 0.410(2) 1. 0 2.65 
O5 O2- 2 a 0.777(2) 0.144(1) 0.068(2) 1. 0 1.76 
O6 O2- 2 a 0.713(2) 0.199(1) 0.278(2) 1. 0 2.25 
O7 O2- 2 a 0.898(2) 0.284(1) 0.190(2) 1. 0 1.38 
O8 O2- 2 a 0.973(2) 0.143(1) 0.334(2) 1. 0 2.59 
O9 O2- 2 a 0.637(2) -.003(2) 0.160(2) 1. 0 2.98 
O10 O2- 2 a 0.514(2) 0.939(1) 0.329(2) 1. 0 1.68 
O11 O2- 2 a 0.371(3) 0.019(1) 0.092(2) 1. 0 3.02 
O12 O2- 2 a 0.457(3) 0.866(1) 0.077(2) 1. 0 2.92 
O13 O2- 2 a 0.250(2) 0.157(1) -.141(2) 1. 0 1.53 
O14 O2- 2 a 0.011(2) 0.070(1) 0.781(3) 1. 0 2.47 
O15 O2- 2 a 0.004(2) 0.233(1) -.233(1) 1. 0 1.78 
O16 O2- 2 a 0.079(2) 0.166(1) 0.017(2) 1. 0 1.55 
O17 O2- 2 a 0.263(2) 0.345(1) 0.045(1) 1. 0 1.98 
O18 O2- 2 a 0.225(2) 0.303(1) 0.281(2) 1. 0 2.25 
O19 O2- 2 a 0.400(2) 0.216(1) 0.201(2) 1. 0 1.22 
O20 O2- 2 a 0.469(2) 0.370(1) 0.295(2) 1. 0 1.89 
O21 O2- 2 a 0.913(3) 0.616(1) 0.042(2) 1. 0 2.93 
O22 O2- 2 a 0.003(2) 0.567(1) 0.313(2) 1. 0 1.44 
O23 O2- 2 a 0.170(2) 0.562(1) 0.165(2) 1. 0 2.46 
O24 O2- 2 a 0.960(2) 0.456(1) 0.109(2) 1. 0 1.75 

#End of data_39446-ICSD


