data_85108-ICSD
#?2014 by Fachinformationszentrum Karlsruhe, and the U.S. Secretary of 
#Commerce on behalf of the United States.  All rights reserved.
_database_code_ICSD                85108
_audit_creation_date               1999/06/02
_audit_update_record               2010/02/01
_chemical_name_systematic
;
Nonacalcium Magnesium Sodium Heptakis(phosphate(V))
;
_chemical_formula_structural       'Ca9 Mg Na (P O4)7'
_chemical_formula_sum              'Ca9 Mg1 Na1 O28 P7'
_publ_section_title
;
Crystal structures of calcium magnesium alkali metal phosphates Ca9 
Mg M (P O4)7 (M= Li, Na, K)
;
loop_
_citation_id
_citation_journal_abbrev
_citation_year
_citation_journal_volume
_citation_journal_issue
_citation_page_first
_citation_page_last
_citation_journal_id_ASTM
primary Kristallografiya 1997 42 5 825 836 KRISAJ
2 'Crystallography Reports' 1997 42- 758 769 CYSTE3
_publ_author_name
;
Morozov, V.A.;Presniakov, I.A.;Belik, A.A.;Khasanov, S.S.;Lazoryak, 
B.I.
;
_cell_length_a                     10.3397(1)
_cell_length_b                     10.3397(1)
_cell_length_c                     37.0290(10)
_cell_angle_alpha                  90.
_cell_angle_beta                   90.
_cell_angle_gamma                  120.
_cell_volume                       3428.38
_cell_formula_units_Z              6
_symmetry_space_group_name_H-M     'R 3 c H'
_symmetry_Int_Tables_number        161
_refine_ls_R_factor_all            .01
loop_
_symmetry_equiv_pos_site_id
_symmetry_equiv_pos_as_xyz
  1	'-x+y, y, z+.5'
  2	'x, x-y, z+.5'
  3	'-y, -x, z+.5'
  4	'-x+y, -x, z'
  5	'-y, x-y, z'
  6	'x, y, z'
  7	'-x+y+.6666, y+.3333, z+.8333'
  8	'-x+y+.3333, y+.6666, z+.1666'
  9	'x+.6666, x-y+.3333, z+.8333'
 10	'x+.3333, x-y+.6666, z+.1666'
 11	'-y+.6666, -x+.3333, z+.8333'
 12	'-y+.3333, -x+.6666, z+.1666'
 13	'-x+y+.6666, -x+.3333, z+.3333'
 14	'-x+y+.3333, -x+.6666, z+.6666'
 15	'-y+.6666, x-y+.3333, z+.3333'
 16	'-y+.3333, x-y+.6666, z+.6666'
 17	'x+.6666, y+.3333, z+.3333'
 18	'x+.3333, y+.6666, z+.6666'
loop_
_atom_type_symbol
_atom_type_oxidation_number
Ca2+	2
Mg2+	2
Na1+	1
O2-	-2
P5+	5
loop_
_atom_site_label
_atom_site_type_symbol
_atom_site_symmetry_multiplicity
_atom_site_Wyckoff_symbol
_atom_site_fract_x
_atom_site_fract_y
_atom_site_fract_z
_atom_site_occupancy
_atom_site_attached_hydrogens
_atom_site_B_iso_or_equiv
Ca1 Ca2+ 18 b 0.7282(7) 0.8583(8) 0.4311(5) 1. 0 0.5(2) 
Ca2 Ca2+ 18 b 0.6164(6) 0.8231(8) 0.2297(5) 1. 0 0.5(2) 
Ca3 Ca2+ 18 b 0.1219(7) 0.2675(5) 0.3236(5) 1. 0 0.7(1) 
Na1 Na1+ 6 a 0 0 0.1854(7) 1. 0 3.4(6) 
Mg1 Mg2+ 6 a 0 0 0 1. 0 0.7(3) 
P1 P5+ 6 a 0 0 0.2650(6) 1. 0 0.9(2) 
P2 P5+ 18 b 0.6867(7) 0.861(1) 0.1342(5) 1. 0 0.6(2) 
P3 P5+ 18 b 0.655(1) 0.848(1) 0.0303(5) 1. 0 0.7(2) 
O1 O2- 6 a 0 0 0.3079(9) 1. 0 0.3(6) 
O2 O2- 18 b 0.007(2) 0.861(2) 0.2514(8) 1. 0 0.9(3) 
O3 O2- 18 b 0.748(2) 0.925(2) 0.1731(7) 1. 0 0.8(4) 
O4 O2- 18 b 0.757(3) 0.770(2) 0.1202(7) 1. 0 0.8(4) 
O5 O2- 18 b 0.723(2) 0.004(2) 0.1110(7) 1. 0 0.6(4) 
O6 O2- 18 b 0.513(2) 0.761(3) 0.1326(7) 1. 0 0.3(3) 
O7 O2- 18 b 0.603(2) 0.957(2) 0.0430(7) 1. 0 0.4(3) 
O8 O2- 18 b 0.575(2) 0.695(2) 0.0512(7) 1. 0 0.5(4) 
O9 O2- 18 b 0.825(2) 0.922(2) 0.0386(7) 1. 0 0.6(4) 
O10 O2- 18 b 0.623(2) 0.819(2) 0.9900(6) 1. 0 0.7(3) 

#End of data_85108-ICSD


