data_410883-ICSD
#?2014 by Fachinformationszentrum Karlsruhe, and the U.S. Secretary of 
#Commerce on behalf of the United States.  All rights reserved.
_database_code_ICSD                410883
_audit_creation_date               1999/11/30
_chemical_name_systematic
;
Potassium Pentacarbonylcobalto(I)trichlorogallate(I)
;
_chemical_formula_structural       'K ((C O)4 Co Ga Cl3)'
_chemical_formula_sum              'C4 Cl3 Co1 Ga1 K1 O4'
_publ_section_title
;
Uebergangsmetallsubstituierte Gallane: Synthese, Struktur und 
Bindungsverhaeltnisse von ((C O)4 Co Ga Et2 (N C7 H13)) , ((P Me3) (C 
O)3 Co Ga Cl2 (N Me3)), ((C O)4 Co Ga Cl3) K, und ((C O)5 Mn Ga Et2 
(N C7 H13))
;
loop_
_citation_id
_citation_journal_abbrev
_citation_year
_citation_journal_volume
_citation_page_first
_citation_page_last
_citation_journal_id_ASTM
primary 'Zeitschrift fuer Anorganische und Allgemeine Chemie (1950) (DE)'
 1999 625 1466 1474 ZAACAB
_publ_author_name
;
Fischer, R.A.;Miehr, A.;Hoffmann, H.;Rogge, W.;Boehme, C.;Frenking, 
G.;Herdtweck, E.
;
_cell_length_a                     11.857(1)
_cell_length_b                     8.954(1)
_cell_length_c                     11.447(3)
_cell_angle_alpha                  90.
_cell_angle_beta                   106.47(2)
_cell_angle_gamma                  90.
_cell_volume                       1165.43
_cell_formula_units_Z              4
_symmetry_space_group_name_H-M     'P 1 21/c 1'
_symmetry_Int_Tables_number        14
_refine_ls_R_factor_all            .0977
loop_
_symmetry_equiv_pos_site_id
_symmetry_equiv_pos_as_xyz
  1	'x, -y+.5, z+.5'
  2	'-x, -y, -z'
  3	'-x, y+.5, -z+.5'
  4	'x, y, z'
loop_
_atom_type_symbol
_atom_type_oxidation_number
C2+	2
Cl1-	-1
Co1+	1
Ga1+	1
K1+	1
O2-	-2
loop_
_atom_site_label
_atom_site_type_symbol
_atom_site_symmetry_multiplicity
_atom_site_Wyckoff_symbol
_atom_site_fract_x
_atom_site_fract_y
_atom_site_fract_z
_atom_site_occupancy
_atom_site_attached_hydrogens
Ga1 Ga1+ 4 e -.20753(10) -.05633(13) 0.25502(10) 1. 0 
Co1 Co1+ 4 e 0.37502(12) 0.3142(2) 0.36679(12) 1. 0 
K1 K1+ 4 e 0.1265(2) -.1942(3) 0.4219(2) 1. 0 
Cl1 Cl1- 4 e -.1342(2) -.1435(3) 0.4432(2) 1. 0 
Cl2 Cl1- 4 e -.0536(2) -.0435(3) 0.1812(3) 1. 0 
Cl3 Cl1- 4 e 0.2406(3) -.3155(3) 0.2141(3) 1. 0 
O1 O2- 4 e 0.2341(7) 0.0413(9) 0.3055(8) 1. 0 
O2 O2- 4 e 0.5993(7) 0.1816(11) 0.5056(8) 1. 0 
O3 O2- 4 e 0.4773(8) 0.4359(11) 0.1834(9) 1. 0 
O4 O2- 4 e 0.3203(8) 0.4871(11) 0.5596(8) 1. 0 
C1 C2+ 4 e 0.2875(9) 0.1492(13) 0.3261(10) 1. 0 
C2 C2+ 4 e 0.5102(10) 0.2315(12) 0.4537(9) 1. 0 
C3 C2+ 4 e 0.434(1) 0.3896(14) 0.2532(11) 1. 0 
C4 C2+ 4 e 0.3423(9) 0.4202(13) 0.4839(9) 1. 0 

loop_
_atom_site_aniso_label
_atom_site_aniso_type_symbol
_atom_site_aniso_U_11
_atom_site_aniso_U_22
_atom_site_aniso_U_33
_atom_site_aniso_U_12
_atom_site_aniso_U_13
_atom_site_aniso_U_23
Ga1 Ga1+ 0.0285(6) 0.0244(6) 0.0276(6) -.0036(5) 0.0092(5) -.0003(5)
Co1 Co1+ 0.0251(7) 0.0248(7) 0.0270(7) -.0001(6) 0.0067(6) 0.0019(6)
K1 K1+ 0.0385(14) 0.0414(15) 0.0377(14) 0.0060(13) 0.0099(11) -.0081(12)
Cl1 Cl1- 0.039(2) 0.041(2) 0.0290(14) -.0027(13) 0.0082(11) 0.0060(12)
Cl2 Cl1- 0.0324(14) 0.050(2) 0.040(2) -.0044(14) 0.0152(12) 0.0000(14)
Cl3 Cl1- 0.050(2) 0.0235(13) 0.0397(15) 0.0018(13) 0.0151(13) 0.0016(12)
O1 O2- 0.040(5) 0.030(5) 0.068(6) -.008(4) 0.025(4) -.001(4)
O2 O2- 0.038(5) 0.064(6) 0.045(5) 0.015(5) -.001(4) 0.004(5)
O3 O2- 0.053(5) 0.075(7) 0.064(6) 0.012(5) 0.037(5) 0.022(6)
O4 O2- 0.064(6) 0.065(6) 0.053(6) -.012(5) 0.029(5) -.028(5)
C1 C2+ 0.025(5) 0.040(7) 0.032(6) 0.013(5) 0.010(5) 0.007(5)
C2 C2+ 0.038(6) 0.030(6) 0.025(5) -.005(5) 0.008(5) -.002(5)
C3 C2+ 0.037(6) 0.040(7) 0.047(7) 0.017(6) 0.025(6) 0.012(6)
C4 C2+ 0.020(5) 0.046(7) 0.021(5) -.019(5) -.011(4) 0.001(5)
#End of data_410883-ICSD


