data_184917-ICSD
#?2014 by Fachinformationszentrum Karlsruhe, and the U.S. Secretary of 
#Commerce on behalf of the United States.  All rights reserved.
_database_code_ICSD                184917
_audit_creation_date               2013/02/01
_chemical_name_systematic          'Lithium Lanthanum Tetraphosphate'
_chemical_formula_structural       'Li La (P O3)4'
_chemical_formula_sum              'La1 Li1 O12 P4'
_publ_section_title
;
Modeling Li-ion conductivity in Li La (P O3)4 powder
;
loop_
_citation_id
_citation_journal_abbrev
_citation_year
_citation_journal_volume
_citation_journal_issue
_citation_page_first
_citation_page_last
_citation_journal_id_ASTM
primary 'Physica B, Condensed Matter' 2012 407 13 2593 2600 PHYBE3
_publ_author_name
;
Mounir, F.;Karima, H.-N.;Khaled, B.S.;Mokhtar, F.
;
_cell_length_a                     16.635(6)
_cell_length_b                     7.130(3)
_cell_length_c                     9.913(3)
_cell_angle_alpha                  90.
_cell_angle_beta                   126.37(4)
_cell_angle_gamma                  90.
_cell_volume                       946.72
_cell_formula_units_Z              4
_symmetry_space_group_name_H-M     'C 1 2/c 1'
_symmetry_Int_Tables_number        15
_refine_ls_R_factor_all            .0194
loop_
_symmetry_equiv_pos_site_id
_symmetry_equiv_pos_as_xyz
  1	'x, -y, z+.5'
  2	'-x, -y, -z'
  3	'-x, y, -z+.5'
  4	'x, y, z'
  5	'x+.5, -y+.5, z+.5'
  6	'-x+.5, -y+.5, -z'
  7	'-x+.5, y+.5, -z+.5'
  8	'x+.5, y+.5, z'
loop_
_atom_type_symbol
_atom_type_oxidation_number
La3+	3
Li1+	1
O2-	-2
P5+	5
loop_
_atom_site_label
_atom_site_type_symbol
_atom_site_symmetry_multiplicity
_atom_site_Wyckoff_symbol
_atom_site_fract_x
_atom_site_fract_y
_atom_site_fract_z
_atom_site_occupancy
_atom_site_attached_hydrogens
_atom_site_U_iso_or_equiv
La1 La3+ 4 e 0 0.1969(4) 0.250 1. 0 0.0069(7) 
Li1 Li1+ 4 e 0 0.3006(1) 0.750 1. 0 0.0136(1) 
P1 P5+ 8 f 0.1504(3) 0.1632(3) 0.0968(1) 1. 0 0.0075(9) 
P2 P5+ 8 f 0.3606(2) 0.0597(3) 0.3337(3) 1. 0 0.0071(4) 
O1 O2- 8 f 0.1315(8) 0.1149(3) 0.2217(3) 1. 0 0.0138(5) 
O2 O2- 8 f 0.2568(9) 0.0912(3) 0.1537(3) 1. 0 0.0110(4) 
O3 O2- 8 f 0.0766(4) 0.1060(3) -0.0819(3) 1. 0 0.0128(5) 
O4 O2- 8 f 0.3375(6) -0.1139(3) 0.4074(3) 1. 0 0.0120(5) 
O5 O2- 8 f 0.3846(5) 0.2210(3) 0.4474(3) 1. 0 0.0133(5) 
O6 O2- 8 f 0.43378(1) 0.0069(3) 0.2979(3) 1. 0 0.0107(5) 

#End of data_184917-ICSD


