data_407063-ICSD
#?2014 by Fachinformationszentrum Karlsruhe, and the U.S. Secretary of 
#Commerce on behalf of the United States.  All rights reserved.
_database_code_ICSD                407063
_audit_creation_date               1998/06/26
_audit_update_record               2000/07/15
_chemical_name_systematic
;
Barium Erbium Zinc Platinum Oxide (17/16/8/4/57)
;
_chemical_formula_structural       'Ba17 Er16 Zn8 Pt4 O57'
_chemical_formula_sum              'Ba17 Er16 O57 Pt4 Zn8'
_publ_section_title
;
Weitere Verbindungen zum Ba17 Ln16 Zn8 Pt4 O57-Typ mit Ln= Dy, Ho, 
Er, Y
;
loop_
_citation_id
_citation_journal_abbrev
_citation_year
_citation_journal_volume
_citation_page_first
_citation_page_last
_citation_journal_id_ASTM
primary 'Zeitschrift fuer Naturforschung, B: Chemical Sciences'
 1997 52 1067 1071 ZNBSEN
_publ_author_name                  'Sfreddo, O.;Mueller Buschbaum, H.'
_cell_length_a                     22.7953(10)
_cell_length_b                     22.7953(10)
_cell_length_c                     5.7003(10)
_cell_angle_alpha                  90.
_cell_angle_beta                   90.
_cell_angle_gamma                  90.
_cell_volume                       2962.02
_cell_formula_units_Z              2
_symmetry_space_group_name_H-M     'I 4/m'
_symmetry_Int_Tables_number        87
_refine_ls_R_factor_all            .1283
loop_
_symmetry_equiv_pos_site_id
_symmetry_equiv_pos_as_xyz
  1	'-y, x, -z'
  2	'y, -x, -z'
  3	'x, y, -z'
  4	'-x, -y, -z'
  5	'y, -x, z'
  6	'-y, x, z'
  7	'-x, -y, z'
  8	'x, y, z'
  9	'-y+.5, x+.5, -z+.5'
 10	'y+.5, -x+.5, -z+.5'
 11	'x+.5, y+.5, -z+.5'
 12	'-x+.5, -y+.5, -z+.5'
 13	'y+.5, -x+.5, z+.5'
 14	'-y+.5, x+.5, z+.5'
 15	'-x+.5, -y+.5, z+.5'
 16	'x+.5, y+.5, z+.5'
loop_
_atom_type_symbol
_atom_type_oxidation_number
Ba2+	2
Er3+	3
O2-	-2
Pt4+	4
Zn2+	2
loop_
_atom_site_label
_atom_site_type_symbol
_atom_site_symmetry_multiplicity
_atom_site_Wyckoff_symbol
_atom_site_fract_x
_atom_site_fract_y
_atom_site_fract_z
_atom_site_occupancy
_atom_site_attached_hydrogens
Pt1 Pt4+ 8 h 0.35598(3) 0.08285(3) 0.5 1. 0 
Er1 Er3+ 8 h 0.40025(3) 0.48780(3) 0 1. 0 
Er2 Er3+ 8 h 0.24930(3) 0.00655(3) 0.5 1. 0 
Er3 Er3+ 8 h 0.44730(3) 0.32778(3) 0.5 1. 0 
Er4 Er3+ 8 h 0.45034(3) 0.17408(3) 0.5 1. 0 
Ba1 Ba2+ 2 a 0 0 0 1. 0 
Ba2 Ba2+ 8 h 0.38806(4) -.22461(4) 0.5 1. 0 
Ba3 Ba2+ 8 h 0.34246(4) 0.34971(4) 0 1. 0 
Ba4 Ba2+ 8 h 0.18937(4) 0.26815(4) 0 1. 0 
Ba5 Ba2+ 8 h 0.44183(4) 0.06728(4) 0 1. 0 
Zn1 Zn2+ 8 h 0.28901(8) -.12110(8) -.5 1. 0 
Zn2 Zn2+ 8 h 0.36646(8) 0.42422(8) 0.5 1. 0 
O1 O2- 2 b 0 0 0.5 1. 0 
O2 O2- 8 h 0.4453(6) 0.0638(6) 0.5 1. 0 
O3 O2- 8 h 0.3412(5) 0.3425(5) 0.5 1. 0 
O4 O2- 8 h 0.2686(5) 0.1082(5) 0.5 1. 0 
O5 O2- 8 h 0.2603(5) -.2003(5) -.5 1. 0 
O6 O2- 16 i 0.3243(3) 0.4714(3) 0.2531(16) 1. 0 
O7 O2- 16 i 0.3761(3) 0.1430(3) 0.7449(16) 1. 0 
O8 O2- 16 i 0.3326(4) 0.0225(4) 0.7405(15) 1. 0 
O9 O2- 16 i 0.2469(3) -.0717(3) -.2502(16) 1. 0 
O10 O2- 16 i 0.4352(3) 0.4103(4) 0.2508(15) 1. 0 

loop_
_atom_site_aniso_label
_atom_site_aniso_type_symbol
_atom_site_aniso_U_11
_atom_site_aniso_U_22
_atom_site_aniso_U_33
_atom_site_aniso_U_12
_atom_site_aniso_U_13
_atom_site_aniso_U_23
Pt1 Pt4+ 0.0051(2) 0.0042(2) 0.0054(3) -.0005(2) 0 0
Er1 Er3+ 0.0040(3) 0.0048(3) 0.0063(3) -.0001(2) 0 0
Er2 Er3+ 0.0045(3) 0.0053(3) 0.0060(3) 0.0003(2) 0 0
Er3 Er3+ 0.0053(3) 0.0048(3) 0.0063(3) -.0002(2) 0 0
Er4 Er3+ 0.0045(3) 0.0064(3) 0.0052(3) -.0003(2) 0 0
Ba1 Ba2+ 0.0084(5) 0.0084(5) 0.0075(8) 0 0 0
Ba2 Ba2+ 0.0095(4) 0.0081(4) 0.0083(4) -.0011(3) 0 0
Ba3 Ba2+ 0.0088(4) 0.0104(4) 0.0100(5) -.0033(3) 0 0
Ba4 Ba2+ 0.0064(4) 0.0065(4) 0.0088(4) 0.0003(3) 0 0
Ba5 Ba2+ 0.0101(4) 0.0091(4) 0.0086(4) 0.0024(3) 0 0
Zn1 Zn2+ 0.0067(7) 0.0065(7) 0.0084(9) 0.0007(6) 0 0
Zn2 Zn2+ 0.0084(8) 0.0035(7) 0.0088(9) -.0003(6) 0 0
O1 O2- 0.007(6) 0.007(6) 0.016(13) 0 0 0
O2 O2- 0.014(6) 0.019(6) 0.021(7) -.001(5) 0 0
O3 O2- 0.005(5) 0.013(5) 0.016(6) 0.005(4) 0 0
O4 O2- 0.003(4) 0.002(4) 0.029(7) -.002(4) 0 0
O5 O2- 0.005(4) 0.006(5) 0.013(6) -.002(3) 0 0
O6 O2- 0.004(3) 0.009(3) 0.013(4) 0.000(3) -.001(3) 0.005(3)
O7 O2- 0.009(3) 0.005(3) 0.012(4) 0.003(3) -.001(3) -.005(3)
O8 O2- 0.017(4) 0.011(3) 0.005(4) -.001(3) 0.001(3) 0.001(3)
O9 O2- 0.008(3) 0.007(3) 0.011(4) 0.003(3) 0.005(3) -.002(3)
O10 O2- 0.011(3) 0.014(4) 0.005(4) -.001(3) 0.004(3) 0.003(3)
#End of data_407063-ICSD


