data_170595-ICSD
#?2014 by Fachinformationszentrum Karlsruhe, and the U.S. Secretary of 
#Commerce on behalf of the United States.  All rights reserved.
_database_code_ICSD                170595
_audit_creation_date               2006/04/01
_chemical_name_systematic          'Potassium Borate Hydroxide Hydrate'
_chemical_formula_structural       'K B5 O7 (O H)2 (H2 O)'
_chemical_formula_sum              'H4 B5 K1 O10'
_publ_section_title
;
Two new potassium borates, K4 B10 O16 (O H)4 with stepped chain and K 
B5 O7 (O H)2.H2 O with double helical chain
;
loop_
_citation_id
_citation_journal_abbrev
_citation_year
_citation_journal_volume
_citation_journal_issue
_citation_page_first
_citation_page_last
_citation_journal_id_ASTM
primary 'Crystal Growth and Design' 2005 5 1 157 161 CGDEFU
_publ_author_name
;
Zhang, H.-X.;Zhang, J.;Zheng, S.-T.;Yang, G.-Y.
;
_cell_length_a                     9.4824(8)
_cell_length_b                     7.5180(6)
_cell_length_c                     11.4154(6)
_cell_angle_alpha                  90.00
_cell_angle_beta                   97.277(3)
_cell_angle_gamma                  90.00
_cell_volume                       807.23
_cell_formula_units_Z              4
_symmetry_space_group_name_H-M     'P 1 21/c 1'
_symmetry_Int_Tables_number        14
_refine_ls_R_factor_all            .0677
loop_
_symmetry_equiv_pos_site_id
_symmetry_equiv_pos_as_xyz
  1	'x, -y+.5, z+.5'
  2	'-x, -y, -z'
  3	'-x, y+.5, -z+.5'
  4	'x, y, z'
loop_
_atom_type_symbol
_atom_type_oxidation_number
B3+	3
H1+	1
K1+	1
O2-	-2
loop_
_atom_site_label
_atom_site_type_symbol
_atom_site_symmetry_multiplicity
_atom_site_Wyckoff_symbol
_atom_site_fract_x
_atom_site_fract_y
_atom_site_fract_z
_atom_site_occupancy
_atom_site_attached_hydrogens
_atom_site_U_iso_or_equiv
K1 K1+ 4 e 1.17351(10) 0.57029(15) 0.23173(8) 1 0 0.0291(3) 
B1 B3+ 4 e 1.3261(4) 0.3890(6) 0.9463(4) 1 0 0.0156(10) 
B2 B3+ 4 e 1.1313(4) 0.5929(6) 0.9251(4) 1 0 0.0157(10) 
B3 B3+ 4 e 1.2007(4) 0.4495(6) 0.7444(4) 1 0 0.0150(10) 
B4 B3+ 4 e 1.0666(4) 0.3093(6) 0.5684(4) 1 0 0.0141(9) 
B5 B3+ 4 e 1.2457(4) 0.5197(6) 0.5387(4) 1 0 0.0161(10) 
O1 O2- 4 e 1.3091(3) 0.3629(4) 0.8285(2) 1 0 0.0184(7) 
O2 O2- 4 e 1.4325(3) 0.3059(4) 1.0142(3) 1 0 0.0238(7) 
O3 O2- 4 e 1.2336(3) 0.5007(4) 0.9982(2) 1 0 0.0181(7) 
O4 O2- 4 e 1.1183(3) 0.5767(4) 0.8072(2) 1 0 0.0188(6) 
O5 O2- 4 e 1.1029(3) 0.3182(4) 0.6857(2) 1 0 0.0197(7) 
O6 O2- 4 e 0.9580(3) 0.1988(4) 0.5177(2) 1 0 0.0163(6) 
O7 O2- 4 e 1.1385(3) 0.4057(4) 0.4913(2) 1 0 0.0181(7) 
O8 O2- 4 e 1.3169(3) 0.6031(4) 0.4582(2) 1 0 0.0211(7) 
O9 O2- 4 e 1.2740(3) 0.5474(4) 0.6573(2) 1 0 0.0164(6) 
O10 O2- 4 e 0.5564(4) -0.0934(5) 0.2649(3) 1 0 0.0294(8) 
H1 H1+ 4 e 1.436(6) 0.328(8) 1.081(5) 1 0 0.046(18) 
H2 H1+ 4 e 1.394(7) 0.662(9) 0.484(5) 1 0 0.07(2) 
H3 H1+ 4 e 0.593(6) -0.187(8) 0.222(5) 1 0 0.044(15) 
H4 H1+ 4 e 0.483(7) -0.071(8) 0.232(5) 1 0 0.06(2) 

loop_
_atom_site_aniso_label
_atom_site_aniso_type_symbol
_atom_site_aniso_U_11
_atom_site_aniso_U_22
_atom_site_aniso_U_33
_atom_site_aniso_U_12
_atom_site_aniso_U_13
_atom_site_aniso_U_23
K1 K1+ 0.0286(5) 0.0345(6) 0.0244(6) 0.0016(4) 0.0044(4) -0.0099(4)
B1 B3+ 0.012(2) 0.017(2) 0.019(2) -0.0019(17) 0.0077(17) -0.0008(19)
B2 B3+ 0.017(2) 0.012(2) 0.019(2) 0.0000(18) 0.0058(18) 0.0008(19)
B3 B3+ 0.013(2) 0.019(2) 0.014(2) 0.0020(18) 0.0047(17) 0.0028(19)
B4 B3+ 0.018(2) 0.012(2) 0.014(2) 0.0041(18) 0.0058(17) 0.0021(18)
B5 B3+ 0.014(2) 0.015(2) 0.020(2) -0.0034(18) 0.0048(18) -0.0018(19)
O1 O2- 0.0203(14) 0.0198(15) 0.0161(15) 0.0050(12) 0.0068(11) -0.0031(12)
O2 O2- 0.0232(15) 0.0277(18) 0.0204(17) 0.0076(14) 0.0029(13) -0.0002(15)
O3 O2- 0.0185(13) 0.0216(15) 0.0143(14) 0.0051(12) 0.0020(11) -0.0006(12)
O4 O2- 0.0196(14) 0.0217(16) 0.0157(15) 0.0070(12) 0.0040(11) -0.0017(12)
O5 O2- 0.0223(14) 0.0206(16) 0.0168(15) -0.0060(12) 0.0050(11) -0.0012(12)
O6 O2- 0.0180(13) 0.0168(14) 0.0148(14) -0.0049(12) 0.0040(11) 0.0001(12)
O7 O2- 0.0183(14) 0.0222(16) 0.0143(14) -0.0055(12) 0.0040(11) -0.0007(12)
O8 O2- 0.0211(14) 0.0271(17) 0.0160(15) -0.0087(13) 0.0054(11) 0.0000(13)
O9 O2- 0.0181(13) 0.0174(15) 0.0144(14) -0.0043(12) 0.0045(11) -0.0005(11)
O10 O2- 0.0257(17) 0.039(2) 0.0236(17) 0.0109(16) 0.0019(14) -0.0018(16)
#End of data_170595-ICSD


