data_69353-ICSD
#?2014 by Fachinformationszentrum Karlsruhe, and the U.S. Secretary of 
#Commerce on behalf of the United States.  All rights reserved.
_database_code_ICSD                69353
_audit_creation_date               1992/08/20
_chemical_name_systematic          'Hexacesium Dialuminate'
_chemical_formula_structural       'Cs6 (Al2 O6)'
_chemical_formula_sum              'Al2 Cs6 O6'
_publ_section_title                'A new cesium aluminate: Cs6(Al2O6)'
loop_
_citation_id
_citation_journal_abbrev
_citation_year
_citation_journal_volume
_citation_page_first
_citation_page_last
_citation_journal_id_ASTM
primary 'Solid State Ionics' 1990 43 23 30 SSIOD3
_publ_author_name                  'Hoppe, R.;Mueller, H.P.'
_cell_length_a                     7.264(1)
_cell_length_b                     12.572(2)
_cell_length_c                     14.326(1)
_cell_angle_alpha                  90.
_cell_angle_beta                   91.52(1)
_cell_angle_gamma                  90.
_cell_volume                       1307.83
_cell_formula_units_Z              4
_symmetry_space_group_name_H-M     'P 1 21/c 1'
_symmetry_Int_Tables_number        14
_refine_ls_R_factor_all            .09
loop_
_symmetry_equiv_pos_site_id
_symmetry_equiv_pos_as_xyz
  1	'x, -y+.5, z+.5'
  2	'-x, -y, -z'
  3	'-x, y+.5, -z+.5'
  4	'x, y, z'
loop_
_atom_type_symbol
_atom_type_oxidation_number
Al3+	3
Cs1+	1
O2-	-2
loop_
_atom_site_label
_atom_site_type_symbol
_atom_site_symmetry_multiplicity
_atom_site_Wyckoff_symbol
_atom_site_fract_x
_atom_site_fract_y
_atom_site_fract_z
_atom_site_occupancy
_atom_site_attached_hydrogens
Cs1 Cs1+ 4 e 0.1709(2) 0.1515(1) 0.2413(1) 1. 0 
Cs2 Cs1+ 4 e 0.3334(2) 0.3059(1) 0.4665(1) 1. 0 
Cs3 Cs1+ 4 e 0.1490(2) 0.4363(1) 0.1384(1) 1. 0 
Cs4 Cs1+ 4 e 0.3505(2) 0.5633(1) 0.3615(1) 1. 0 
Cs5 Cs1+ 4 e 0.8343(2) 0.3057(1) 0.9658(1) 1. 0 
Cs6 Cs1+ 4 e 0.3244(2) 0.8454(1) 0.2580(1) 1. 0 
Al1 Al3+ 4 e 0.9195(7) 0.0438(4) 0.9285(3) 1. 0 
Al2 Al3+ 4 e 0.5843(7) 0.5452(4) 0.0704(4) 1. 0 
O1 O2- 4 e 0.0016(17) 0.0907(10) 0.0446(8) 1. 0 
O2 O2- 4 e 0.5077(16) 0.4064(9) 0.0420(8) 1. 0 
O3 O2- 4 e 0.4657(18) 0.6020(12) 0.1634(10) 1. 0 
O4 O2- 4 e 0.0327(16) 0.1067(10) 0.8364(8) 1. 0 
O5 O2- 4 e 0.3214(16) 0.9469(9) 0.0851(9) 1. 0 
O6 O2- 4 e 0.1776(17) 0.4428(13) 0.9176(11) 1. 0 

loop_
_atom_site_aniso_label
_atom_site_aniso_type_symbol
_atom_site_aniso_U_11
_atom_site_aniso_U_22
_atom_site_aniso_U_33
_atom_site_aniso_U_12
_atom_site_aniso_U_13
_atom_site_aniso_U_23
Cs1 Cs1+ 0.0284(6) 0.0259(6) 0.0148(5) 0.0014(5) -.0057(4) 0.0047(4)
Cs2 Cs1+ 0.0172(5) 0.0156(5) 0.0233(6) 0.0028(4) 0.0023(4) 0.0027(4)
Cs3 Cs1+ 0.0187(5) 0.0206(5) 0.0153(5) 0.0002(4) 0.0040(4) 0.0026(4)
Cs4 Cs1+ 0.0170(5) 0.0209(5) 0.0186(5) -.0009(4) 0.0042(4) 0.0026(4)
Cs5 Cs1+ 0.0180(5) 0.0178(5) 0.0267(6) 0.0027(4) -.0002(4) 0.0010(4)
Cs6 Cs1+ 0.0277(6) 0.0245(6) 0.0164(5) 0.0028(4) -.0055(4) 0.0048(4)
Al1 Al3+ 0.0108(19) 0.0123(20) 0.0035(18) 0.0068(16) 0.0017(15) -.0032(16)
Al2 Al3+ 0.0117(20) 0.0088(19) 0.0104(21) 0.0048(16) -.0027(16) -.0064(17)
O1 O2- 0.0185(43) 0.0148(41) 0.0104(41) 0.0066(37) 0.0003(37) 0.0056(37)
O2 O2- 0.0137(40) 0.0087(38) 0.0086(39) 0.0037(34) 0.0026(34) 0.0076(34)
O3 O2- 0.0146(42) 0.0287(48) 0.0256(47) 0.0116(40) 0.0117(40) 0.006(43)
O4 O2- 0.0137(40) 0.0140(41) 0.0115(41) 0.0021(36) 0.0002(36) 0.0075(36)
O5 O2- 0.0129(40) 0.0102(40) 0.0155(42) 0.0000(35) 0.0011(3) 0.0021(36)
O6 O2- 0.0065(40) 0.0425(52) 0.0313(50) -.0002(42) -.0108(40) -.0038(47)
#End of data_69353-ICSD


