data_81388-ICSD
#?2014 by Fachinformationszentrum Karlsruhe, and the U.S. Secretary of 
#Commerce on behalf of the United States.  All rights reserved.
_database_code_ICSD                81388
_audit_creation_date               1997/11/05
_chemical_name_systematic          'Calcium Uranium Phosphate(V)'
_chemical_formula_structural       'Ca U (P O4)2'
_chemical_formula_sum              'Ca1 O8 P2 U1'
_publ_section_title
;
Low-temperature ordered phase of Ca U (P O4)2 : synthesis and crystal 
structure
;
loop_
_citation_id
_citation_journal_abbrev
_citation_year
_citation_journal_volume
_citation_page_first
_citation_page_last
_citation_journal_id_ASTM
primary 'European Journal of Mineralogy' 1996 8 667 673 EJMIER
_publ_author_name
;
Dusausoy, Y.;Ghermani, N.E.;Podor, R.;Cuney, M.
;
_cell_length_a                     13.926(4)
_cell_length_b                     6.958(3)
_cell_length_c                     6.136(2)
_cell_angle_alpha                  90.
_cell_angle_beta                   90.
_cell_angle_gamma                  90.
_cell_volume                       594.56
_cell_formula_units_Z              4
_symmetry_space_group_name_H-M     'P n m a'
_symmetry_Int_Tables_number        62
_refine_ls_R_factor_all            .025
loop_
_symmetry_equiv_pos_site_id
_symmetry_equiv_pos_as_xyz
  1	'x+.5, y, -z+.5'
  2	'x, -y+.5, z'
  3	'-x+.5, y+.5, z+.5'
  4	'-x, -y, -z'
  5	'-x+.5, -y, z+.5'
  6	'-x, y+.5, -z'
  7	'x+.5, -y+.5, -z+.5'
  8	'x, y, z'
loop_
_atom_type_symbol
_atom_type_oxidation_number
Ca2+	2
O2-	-2
P5+	5
U4+	4
loop_
_atom_site_label
_atom_site_type_symbol
_atom_site_symmetry_multiplicity
_atom_site_Wyckoff_symbol
_atom_site_fract_x
_atom_site_fract_y
_atom_site_fract_z
_atom_site_occupancy
_atom_site_attached_hydrogens
_atom_site_B_iso_or_equiv
U1 U4+ 4 c 0.3714 0.25 0.6245 1. 0 0.31 
Ca1 Ca2+ 4 c 0.1171(1) 0.25 0.3922(3) 1. 0 0.44(2) 
P1 P5+ 4 c 0.3703(1) 0.25 0.1252(4) 1. 0 0.42(3) 
P2 P5+ 4 c 0.1269(1) 0.25 0.8944(3) 1. 0 0.33(3) 
O1 O2- 4 c 0.2081(4) 0.25 0.7252(9) 1. 0 0.69(8) 
O2 O2- 4 c 0.0325(4) 0.25 0.7650(8) 1. 0 0.60(8) 
O3 O2- 8 d 0.1311(3) 0.0725(5) 0.0453(5) 1. 0 0.70(6) 
O4 O2- 8 d 0.3688(3) 0.0781(5) 0.9670(5) 1. 0 0.71(5) 
O5 O2- 4 c 0.2868(4) 0.25 0.2932(10) 1. 0 0.77(8) 
O6 O2- 4 c 0.4596(4) 0.25 0.2696(8) 1. 0 0.58(8) 

#End of data_81388-ICSD


