data_79071-ICSD
#?2014 by Fachinformationszentrum Karlsruhe, and the U.S. Secretary of 
#Commerce on behalf of the United States.  All rights reserved.
_database_code_ICSD                79071
_audit_creation_date               1996/04/22
_audit_update_record               2011/02/01
_chemical_name_systematic
;
Potassium Heptafluoropalladozirconate
;
_chemical_formula_structural       'K (Pd Zr F7)'
_chemical_formula_sum              'F7 K1 Pd1 Zr1'
_publ_section_title
;
Die Kristallstruktur von K Pd M(IV) F7 (M(IV)= Zr, Hf)
;
loop_
_citation_id
_citation_journal_abbrev
_citation_year
_citation_journal_volume
_citation_page_first
_citation_page_last
_citation_journal_id_ASTM
primary 'Zeitschrift fuer Anorganische und Allgemeine Chemie (1950) (DE)'
 1995 621 1047 1052 ZAACAB
_publ_author_name                  'Mueller, M.;Mueller, B.G.'
_cell_length_a                     11.323(5)
_cell_length_b                     7.975(2)
_cell_length_c                     6.398(1)
_cell_angle_alpha                  90.
_cell_angle_beta                   90.
_cell_angle_gamma                  90.
_cell_volume                       577.75
_cell_formula_units_Z              4
_symmetry_space_group_name_H-M     'P n n a'
_symmetry_Int_Tables_number        52
_refine_ls_R_factor_all            .044
loop_
_symmetry_equiv_pos_site_id
_symmetry_equiv_pos_as_xyz
  1	'x+.5, -y+.5, z+.5'
  2	'-x, y+.5, z+.5'
  3	'x+.5, y, -z'
  4	'-x, -y, -z'
  5	'-x+.5, y+.5, -z+.5'
  6	'x, -y+.5, -z+.5'
  7	'-x+.5, -y, z'
  8	'x, y, z'
loop_
_atom_type_symbol
_atom_type_oxidation_number
F1-	-1
K1+	1
Pd2+	2
Zr4+	4
loop_
_atom_site_label
_atom_site_type_symbol
_atom_site_symmetry_multiplicity
_atom_site_Wyckoff_symbol
_atom_site_fract_x
_atom_site_fract_y
_atom_site_fract_z
_atom_site_occupancy
_atom_site_attached_hydrogens
K1 K1+ 4 c 0.25 0 0.7306(3) 1. 0 
Pd1 Pd2+ 4 d 0.09683(5) 0.25 0.25 1. 0 
Zr1 Zr4+ 4 d 0.40614(6) 0.25 0.25 1. 0 
F1 F1- 8 e 0.2529(3) 0.2059(5) 0.0674(5) 1. 0 
F2 F1- 8 e 0.1050(3) 0.9896(5) 0.3513(6) 1. 0 
F3 F1- 4 d 0.5815(5) 0.25 0.25 1. 0 
F4 F1- 8 e 0.4538(4) 0.3194(5) 0.5507(6) 1. 0 

loop_
_atom_site_aniso_label
_atom_site_aniso_type_symbol
_atom_site_aniso_U_11
_atom_site_aniso_U_22
_atom_site_aniso_U_33
_atom_site_aniso_U_12
_atom_site_aniso_U_13
_atom_site_aniso_U_23
K1 K1+ 0.032(1) 0.0200(9) 0.0154(8) 0.0087(9) 0 0
Pd1 Pd2+ 0.0100(3) 0.0126(4) 0.0151(4) 0 0 0.0005(3)
Zr1 Zr4+ 0.0079(4) 0.0072(4) 0.0071(4) 0 0 0.0003(4)
F1 F1- 0.012(1) 0.032(2) 0.013(1) -.001(2) -.002(2) -.008(2)
F2 F1- 0.025(2) 0.013(2) 0.020(2) 0.002(2) -.002(2) -.001(2)
F3 F1- 0.013(3) 0.048(4) 0.029(3) 0 0 -.005(3)
F4 F1- 0.023(2) 0.035(2) 0.015(2) 0.004(2) -.006(2) -.006(2)
#End of data_79071-ICSD


