data_66890-ICSD
#?2014 by Fachinformationszentrum Karlsruhe, and the U.S. Secretary of 
#Commerce on behalf of the United States.  All rights reserved.
_database_code_ICSD                66890
_audit_creation_date               1997/11/10
_audit_update_record               2006/04/01
_chemical_name_systematic          'Magnesium Catena-silicate'
_chemical_formula_structural       'Mg (Si O3)'
_chemical_formula_sum              'Mg1 O3 Si1'
_chemical_name_mineral             Perovskite-(Mg,Si)
_publ_section_title
;
High-pressure crystal chemistry of Mg Si O3 perovskite
;
loop_
_citation_id
_citation_journal_abbrev
_citation_year
_citation_journal_volume
_citation_page_first
_citation_page_last
_citation_journal_id_ASTM
primary 'Physics and Chemistry of Minerals' 1990 17 228 237 PCMIDU
_publ_author_name                  'Ross, N.L.;Hazen, R.M.'
_cell_length_a                     4.7321(8)
_cell_length_b                     4.892(1)
_cell_length_c                     6.836(2)
_cell_angle_alpha                  90.
_cell_angle_beta                   90.
_cell_angle_gamma                  90.
_cell_volume                       158.25
_cell_formula_units_Z              4
_symmetry_space_group_name_H-M     'P b n m'
_symmetry_Int_Tables_number        62
_refine_ls_R_factor_all            .04
loop_
_symmetry_equiv_pos_site_id
_symmetry_equiv_pos_as_xyz
  1	'-x+.5, y+.5, z'
  2	'x, y, -z+.5'
  3	'x+.5, -y+.5, z+.5'
  4	'-x, -y, -z'
  5	'x+.5, -y+.5, -z'
  6	'-x, -y, z+.5'
  7	'-x+.5, y+.5, -z+.5'
  8	'x, y, z'
loop_
_atom_type_symbol
_atom_type_oxidation_number
Mg2+	2
O2-	-2
Si4+	4
loop_
_atom_site_label
_atom_site_type_symbol
_atom_site_symmetry_multiplicity
_atom_site_Wyckoff_symbol
_atom_site_fract_x
_atom_site_fract_y
_atom_site_fract_z
_atom_site_occupancy
_atom_site_attached_hydrogens
_atom_site_B_iso_or_equiv
Mg1 Mg2+ 4 c 0.5138(9) 0.5567(5) 0.25 1. 0 0.42(8) 
Si1 Si4+ 4 b 0.5 0 0.5 1. 0 0.31(4) 
O1 O2- 4 c 0.1021(10) 0.4648(13) 0.25 1. 0 0.25(13) 
O2 O2- 8 d 0.1954(6) 0.2019(8) 0.5547(12) 1. 0 0.41(9) 

#End of data_66890-ICSD


