data_200952-ICSD
#?2014 by Fachinformationszentrum Karlsruhe, and the U.S. Secretary of 
#Commerce on behalf of the United States.  All rights reserved.
_database_code_ICSD                200952
_audit_creation_date               1980/01/01
_audit_update_record               2005/10/01
_chemical_name_systematic          'Aluminium Oxide Hydroxide - Lt'
_chemical_formula_structural       'Al O (O H)'
_chemical_formula_sum              'H1 Al1 O2'
_chemical_name_mineral             Diaspore
_publ_section_title
;
Crystal structure refinement and electron density destribution in 
Diaspore
;
loop_
_citation_id
_citation_journal_abbrev
_citation_year
_citation_journal_volume
_citation_page_first
_citation_page_last
_citation_journal_id_ASTM
primary 'Physics and Chemistry of Minerals' 1979 5 179 200 PCMIDU
2 'Acta Crystallographica (1,1948-23,1967)' 1958 11 798 803 ACCRA9
_publ_author_name                  'Hill, R.J.'
_cell_length_a                     4.4007(6)
_cell_length_b                     9.4253(13)
_cell_length_c                     2.8452(3)
_cell_angle_alpha                  90.
_cell_angle_beta                   90.
_cell_angle_gamma                  90.
_cell_volume                       118.01
_cell_formula_units_Z              4
_symmetry_space_group_name_H-M     'P b n m'
_symmetry_Int_Tables_number        62
_refine_ls_R_factor_all            .035
loop_
_symmetry_equiv_pos_site_id
_symmetry_equiv_pos_as_xyz
  1	'-x+.5, y+.5, z'
  2	'x, y, -z+.5'
  3	'x+.5, -y+.5, z+.5'
  4	'-x, -y, -z'
  5	'x+.5, -y+.5, -z'
  6	'-x, -y, z+.5'
  7	'-x+.5, y+.5, -z+.5'
  8	'x, y, z'
loop_
_atom_type_symbol
_atom_type_oxidation_number
Al3+	3
H1+	1
O2-	-2
loop_
_atom_site_label
_atom_site_type_symbol
_atom_site_symmetry_multiplicity
_atom_site_Wyckoff_symbol
_atom_site_fract_x
_atom_site_fract_y
_atom_site_fract_z
_atom_site_occupancy
_atom_site_attached_hydrogens
Al1 Al3+ 4 c 0.04476(10) -.14456(5) -.25 1. 0 
O1 O2- 4 c 0.71228(20) 0.19882(11) -.25 1. 0 
O2 O2- 4 c 0.19698(21) 0.05350(11) -.25 1. 0 
H1 H1+ 4 c 0.4095 0.0876 -.25 1. 0 

loop_
_atom_site_aniso_label
_atom_site_aniso_type_symbol
_atom_site_aniso_U_11
_atom_site_aniso_U_22
_atom_site_aniso_U_33
_atom_site_aniso_U_12
_atom_site_aniso_U_13
_atom_site_aniso_U_23
Al1 Al3+ 0.00395(13) 0.00267(21) 0.00261(12) 0.00006(14) 0 0
O1 O2- 0.00426(25) 0.00413(42) 0.00333(23) 0.00070(28) 0 0
O2 O2- 0.00379(24) 0.00394(42) 0.00444(25) -.00059(26) 0 0
H1 H1+ 0.0109 0.0213 0.0206 -.0004 0 0
#End of data_200952-ICSD


