data_181334-ICSD
#?2014 by Fachinformationszentrum Karlsruhe, and the U.S. Secretary of 
#Commerce on behalf of the United States.  All rights reserved.
_database_code_ICSD                181334
_audit_creation_date               2012/02/01
_chemical_name_systematic          'Trisodium Iron Trisulfate'
_chemical_formula_structural       'Na3 Fe (S O4)3'
_chemical_formula_sum              'Fe1 Na3 O12 S3'
_chemical_name_mineral             Unnamed
_publ_section_title
;
Crystal structure of Na3 Fe (S O4)3: a high-temperature product  
(ca.400 C) of sideronatrite (Na2 Fe (S O4)2 O H * 3(H2 O))
;
loop_
_citation_id
_citation_journal_abbrev
_citation_year
_citation_journal_volume
_citation_page_first
_citation_page_last
_citation_journal_id_ASTM
primary 'American Mineralogist' 2011 96 1107 1111 AMMIAY
_publ_author_name
;
Scordari, F.;Ventruti, G.;Gualtieri, A.F.;Lausi, A.
;
_cell_length_a                     13.6231(1)
_cell_length_b                     13.6231(1)
_cell_length_c                     9.0698(1)
_cell_angle_alpha                  90.
_cell_angle_beta                   90.
_cell_angle_gamma                  120.
_cell_volume                       1457.74
_cell_formula_units_Z              6
_symmetry_space_group_name_H-M     'R -3 H'
_symmetry_Int_Tables_number        148
_refine_ls_R_factor_all            .1195
loop_
_symmetry_equiv_pos_site_id
_symmetry_equiv_pos_as_xyz
  1	'x-y, x, -z'
  2	'y, -x+y, -z'
  3	'-x, -y, -z'
  4	'-x+y, -x, z'
  5	'-y, x-y, z'
  6	'x, y, z'
  7	'x-y+.6666, x+.3333, -z+.3333'
  8	'x-y+.3333, x+.6666, -z+.6666'
  9	'y+.6666, -x+y+.3333, -z+.3333'
 10	'y+.3333, -x+y+.6666, -z+.6666'
 11	'-x+.6666, -y+.3333, -z+.3333'
 12	'-x+.3333, -y+.6666, -z+.6666'
 13	'-x+y+.6666, -x+.3333, z+.3333'
 14	'-x+y+.3333, -x+.6666, z+.6666'
 15	'-y+.6666, x-y+.3333, z+.3333'
 16	'-y+.3333, x-y+.6666, z+.6666'
 17	'x+.6666, y+.3333, z+.3333'
 18	'x+.3333, y+.6666, z+.6666'
loop_
_atom_type_symbol
_atom_type_oxidation_number
Fe3+	3
Na1+	1
O2-	-2
S6+	6
loop_
_atom_site_label
_atom_site_type_symbol
_atom_site_symmetry_multiplicity
_atom_site_Wyckoff_symbol
_atom_site_fract_x
_atom_site_fract_y
_atom_site_fract_z
_atom_site_occupancy
_atom_site_attached_hydrogens
_atom_site_U_iso_or_equiv
Fe1 Fe3+ 3 a 0 0 0 1. 0 0.015(2) 
Fe2 Fe3+ 3 b 0 0 0.5 1. 0 0.011(2) 
S1 S6+ 18 f -0.0291(5) 0.1598(4) 0.2579(7) 1. 0 0.037(2) 
Na1 Na1+ 18 f 0.7413(8) 0.1087(8) 0.4896(9) 1. 0 0.088(4) 
O1 O2- 18 f 0.0338(9) 0.1307(10) 0.3781(15) 1. 0 0.068(6) 
O2 O2- 18 f 0.8530(12) 0.1070(10) 0.2844(11) 1. 0 0.044(4) 
O3 O2- 18 f 0.0298(11) 0.2863(10) 0.2501(18) 1. 0 0.058(4) 
O4 O2- 18 f -0.0058(9) 0.1162(10) 0.1165(15) 1. 0 0.043(4) 

#End of data_181334-ICSD


