data_90936-ICSD
#?2014 by Fachinformationszentrum Karlsruhe, and the U.S. Secretary of 
#Commerce on behalf of the United States.  All rights reserved.
_database_code_ICSD                90936
_audit_creation_date               2002/04/01
_chemical_name_systematic          'Dialuminium Tris(tungstate)'
_chemical_formula_structural       'Al2 (W O4)3'
_chemical_formula_sum              'Al2 O12 W3'
_publ_section_title
;
Negative thermal expansion in Y2 (W O4)3
;
loop_
_citation_id
_citation_journal_abbrev
_citation_year
_citation_journal_volume
_citation_page_first
_citation_page_last
_citation_journal_id_ASTM
primary 'Journal of Solid State Chemistry' 2000 149 92 98 JSSCBI
_publ_author_name
;
Woodcock, D.A.;Lightfoot, P.;Ritter, C.
;
_cell_length_a                     9.1364(2)
_cell_length_b                     12.5913(3)
_cell_length_c                     9.0560(2)
_cell_angle_alpha                  90.
_cell_angle_beta                   90.
_cell_angle_gamma                  90.
_cell_volume                       1041.79
_cell_formula_units_Z              4
_symmetry_space_group_name_H-M     'P n c a'
_symmetry_Int_Tables_number        60
_refine_ls_R_factor_all            .066
loop_
_symmetry_equiv_pos_site_id
_symmetry_equiv_pos_as_xyz
  1	'x+.5, y, -z'
  2	'x, -y+.5, z+.5'
  3	'-x+.5, y+.5, z+.5'
  4	'-x, -y, -z'
  5	'-x+.5, -y, z'
  6	'-x, y+.5, -z+.5'
  7	'x+.5, -y+.5, -z+.5'
  8	'x, y, z'
loop_
_atom_type_symbol
_atom_type_oxidation_number
Al3+	3
O2-	-2
W6+	6
loop_
_atom_site_label
_atom_site_type_symbol
_atom_site_symmetry_multiplicity
_atom_site_Wyckoff_symbol
_atom_site_fract_x
_atom_site_fract_y
_atom_site_fract_z
_atom_site_occupancy
_atom_site_attached_hydrogens
_atom_site_B_iso_or_equiv
Al1 Al3+ 8 d 0.4668(8) 0.3798(7) 0.2498(9) 1. 0 0.6(1) 
W1 W6+ 4 c 0.25 0 0.4750(8) 1. 0 0.3(2) 
W2 W6+ 8 d 0.1166(5) 0.3571(4) 0.3948(5) 1. 0 0.3(2) 
O1 O2- 8 d 0.0900(4) 0.1405(4) 0.0878(5) 1. 0 1.1(2) 
O2 O2- 8 d 0.1223(6) 0.0671(4) 0.3645(5) 1. 0 1.3(2) 
O3 O2- 8 d 0.0055(4) 0.2572(4) 0.3172(6) 1. 0 1.2(2) 
O4 O2- 8 d 0.3381(6) 0.4050(4) 0.0885(6) 1. 0 1.1(2) 
O5 O2- 8 d 0.0697(5) 0.4791(4) 0.3210(6) 1. 0 1.2(2) 
O6 O2- 8 d 0.3057(5) 0.3308(4) 0.3608(6) 1. 0 1.2(2) 

#End of data_90936-ICSD


