data_419829-ICSD
#?2014 by Fachinformationszentrum Karlsruhe, and the U.S. Secretary of 
#Commerce on behalf of the United States.  All rights reserved.
_database_code_ICSD                419829
_audit_creation_date               2009/08/01
_chemical_name_systematic          'Thallium Aluminium Tetrabromide'
_chemical_formula_structural       'Tl (Al Br4)'
_chemical_formula_sum              'Al1 Br4 Tl1'
_publ_section_title
;
A systematic study on the crystal structures of Tl M X4 (M = Al, Ga; 
X = Cl, Br, I)
;
loop_
_citation_id
_citation_journal_abbrev
_citation_year
_citation_journal_volume
_citation_journal_issue
_citation_page_first
_citation_page_last
_citation_journal_id_ASTM
primary 'Zeitschrift fuer Anorganische und Allgemeine Chemie (1950) (DE)'
 2009 635 6-7 840 847 ZAACAB
_publ_author_name                  'Timofte, T.;Mudring, A.V.'
_cell_length_a                     8.998(9)
_cell_length_b                     7.399(7)
_cell_length_c                     13.038(13)
_cell_angle_alpha                  90.00
_cell_angle_beta                   106.51(2)
_cell_angle_gamma                  90.00
_cell_volume                       832.23
_cell_formula_units_Z              4
_symmetry_space_group_name_H-M     'P 1 2/c 1'
_symmetry_Int_Tables_number        13
_refine_ls_R_factor_all            .1353
loop_
_symmetry_equiv_pos_site_id
_symmetry_equiv_pos_as_xyz
  1	'x, -y, z+.5'
  2	'-x, -y, -z'
  3	'-x, y, -z+.5'
  4	'x, y, z'
loop_
_atom_type_symbol
_atom_type_oxidation_number
Al3+	3
Br1-	-1
Tl1+	1
loop_
_atom_site_label
_atom_site_type_symbol
_atom_site_symmetry_multiplicity
_atom_site_Wyckoff_symbol
_atom_site_fract_x
_atom_site_fract_y
_atom_site_fract_z
_atom_site_occupancy
_atom_site_attached_hydrogens
_atom_site_U_iso_or_equiv
Tl1 Tl1+ 2 f 0.5000 0.6525(5) 0.2500 1 0 0.1214(17) 
Tl2 Tl1+ 2 e 0.0000 0.1147(5) 0.2500 1 0 0.189(3) 
Al1 Al3+ 4 g 0.2843(15) 0.2160(17) 0.0438(9) 1 0 0.069(3) 
Br1 Br1- 4 g 0.1659(6) 0.4259(6) 0.1237(3) 1 0 0.0819(16) 
Br2 Br1- 4 g 0.2122(7) -0.0666(6) 0.0842(4) 1 0 0.0934(18) 
Br3 Br1- 4 g 0.1969(7) 0.2569(8) -0.1388(3) 1 0 0.1008(19) 
Br4 Br1- 4 g 0.5459(7) 0.2563(10) 0.0990(5) 1 0 0.115(2) 

loop_
_atom_site_aniso_label
_atom_site_aniso_type_symbol
_atom_site_aniso_U_11
_atom_site_aniso_U_22
_atom_site_aniso_U_33
_atom_site_aniso_U_12
_atom_site_aniso_U_13
_atom_site_aniso_U_23
Tl1 Tl1+ 0.104(3) 0.110(3) 0.145(3) 0.000 0.028(2) 0.000
Tl2 Tl1+ 0.318(7) 0.091(3) 0.253(6) 0.000 0.234(6) 0.000
Al1 Al3+ 0.091(8) 0.076(7) 0.050(5) 0.002(7) 0.034(5) -0.004(5)
Br1 Br1- 0.104(3) 0.077(3) 0.070(2) 0.009(3) 0.033(2) -0.005(2)
Br2 Br1- 0.146(4) 0.069(3) 0.083(3) 0.013(3) 0.060(3) 0.014(2)
Br3 Br1- 0.134(4) 0.128(4) 0.046(2) -0.007(3) 0.035(2) 0.013(2)
Br4 Br1- 0.096(4) 0.151(6) 0.100(4) 0.003(4) 0.032(3) -0.034(4)
#End of data_419829-ICSD


