data_73878-ICSD
#?2014 by Fachinformationszentrum Karlsruhe, and the U.S. Secretary of 
#Commerce on behalf of the United States.  All rights reserved.
_database_code_ICSD                73878
_audit_creation_date               1995/01/10
_audit_update_record               2012/08/01
_chemical_name_systematic          'Dialuminium Tris(tungstate)'
_chemical_formula_structural       'Al2 (W O4)3'
_chemical_formula_sum              'Al2 O12 W3'
_publ_section_title
;
The structure and spectroscopic properties of Al2-xCrx(WO4)3 crystals 
in orthorhombic and monoclinic phases
;
loop_
_citation_id
_citation_journal_abbrev
_citation_year
_citation_journal_volume
_citation_page_first
_citation_page_last
_citation_journal_id_ASTM
primary 'Journal of Solid State Chemistry' 1993 105 49 69 JSSCBI
2 'Golden Book of Phase Transitions, Wroclaw' 2002 1 1 123 GBOPT5
_publ_author_name
;
Hanuza, J.;Maczka, M.;Hermanowicz, K.;Andruszkiewicz, M.;Pietraszko, 
A.;Strek, W.;Deren, P.
;
_cell_length_a                     12.571
_cell_length_b                     9.046
_cell_length_c                     9.129
_cell_angle_alpha                  90.
_cell_angle_beta                   90.
_cell_angle_gamma                  90.
_cell_volume                       1038.12
_cell_formula_units_Z              4
_symmetry_space_group_name_H-M     'P b c n'
_symmetry_Int_Tables_number        60
_refine_ls_R_factor_all            .032
loop_
_symmetry_equiv_pos_site_id
_symmetry_equiv_pos_as_xyz
  1	'x, -y, z+.5'
  2	'-x+.5, y+.5, z'
  3	'x+.5, y+.5, -z+.5'
  4	'-x, -y, -z'
  5	'-x, y, -z+.5'
  6	'x+.5, -y+.5, -z'
  7	'-x+.5, -y+.5, z+.5'
  8	'x, y, z'
loop_
_atom_type_symbol
_atom_type_oxidation_number
Al3+	3
O2-	-2
W6+	6
loop_
_atom_site_label
_atom_site_type_symbol
_atom_site_symmetry_multiplicity
_atom_site_Wyckoff_symbol
_atom_site_fract_x
_atom_site_fract_y
_atom_site_fract_z
_atom_site_occupancy
_atom_site_attached_hydrogens
W1 W6+ 4 c 0 0.47452(6) 0.25 1. 0 
W2 W6+ 8 d 0.35549(3) 0.39579(4) 0.11795(4) 1. 0 
Al1 Al3+ 8 d 0.38022(24) 0.24947(35) 0.46575(34) 1. 0 
O1 O2- 8 d 0.14260(79) 0.09008(97) 0.09305(94) 1. 0 
O2 O2- 8 d 0.06723(81) 0.3664(11) 0.1226(10) 1. 0 
O3 O2- 8 d 0.25500(74) 0.3149(12) 0.0064(10) 1. 0 
O4 O2- 8 d 0.40580(69) 0.08845(95) 0.3383(11) 1. 0 
O5 O2- 8 d 0.47860(64) 0.3167(11) 0.0702(10) 1. 0 
O6 O2- 8 d 0.33162(67) 0.3632(11) 0.30595(87) 1. 0 

loop_
_atom_site_aniso_label
_atom_site_aniso_type_symbol
_atom_site_aniso_U_11
_atom_site_aniso_U_22
_atom_site_aniso_U_33
_atom_site_aniso_U_12
_atom_site_aniso_U_13
_atom_site_aniso_U_23
W1 W6+ 0.00748(17) 0.00441(16) 0.00382(16) 0 0.00025(14) 0
W2 W6+ 0.00324(12) 0.00682(13) 0.00561(13) -.0003(1) -.00051(10) 
0.00163(10)
Al1 Al3+ 0.00501(92) 0.0045(10) 0.0062(11) 0.00103(84) -.00001(81) 
-.00085(84)
O1 O2- 0.0022(33) 0.0124(29) 0.0104(26) 0.0047(27) -0.0007(25) 0.0086(23)
O2 O2- 0.0182(31) 0.0169(31) 0.0159(30) 0.0063(29) 0.0013(27) -0.0105(26)
O3 O2- 0.0134(27) 0.0236(35) 0.0154(29) -0.0009(28) -0.0062(26) -0.0031(29)
O4 O2- 0.0128(27) 0.0112(29) 0.0214(33) 0.0052(23) 0.0056(26) -0.0094(25)
O5 O2- 0.0090(24) 0.0170(31) 0.0161(29) 0.0032(24) 0.0014(23) 0.0023(26)
O6 O2- 0.0096(25) 0.0248(35) 0.0067(24) 0.0083(26) 0.0020(21) 0.0107(24)
#End of data_73878-ICSD


