data_424864-ICSD
#?2014 by Fachinformationszentrum Karlsruhe, and the U.S. Secretary of 
#Commerce on behalf of the United States.  All rights reserved.
_database_code_ICSD                424864
_audit_creation_date               2013/02/01
_chemical_name_systematic          'Potassium Iodate(V)'
_chemical_formula_structural       'K (I O3)'
_chemical_formula_sum              'I1 K1 O3'
_publ_section_title                'Phase transitions in K I O3'
loop_
_citation_id
_citation_journal_abbrev
_citation_year
_citation_journal_volume
_citation_page_first
_citation_page_last
_citation_journal_id_ASTM
primary 'Journal of Physics: Condensed Matter' 2012 24 325401-1 325 325401-11 JCOMEL
_publ_author_name
;
Bayarjargal, L.;Wiehl, L.;Friedrich, A.;Winkler, B.;Juarez-Arellano, 
E.A.;Morgenroth, W.;Haussuehl, E.
;
_cell_length_a                     5.891(10)
_cell_length_b                     5.891(10)
_cell_length_c                     5.891(10)
_cell_angle_alpha                  62.39(12)
_cell_angle_beta                   62.39(12)
_cell_angle_gamma                  62.39(12)
_cell_volume                       152.27
_cell_formula_units_Z              2
_symmetry_space_group_name_H-M     'R 3 R'
_symmetry_Int_Tables_number        146
_refine_ls_R_factor_all            .0192
loop_
_symmetry_equiv_pos_site_id
_symmetry_equiv_pos_as_xyz
  1	'z, x, y'
  2	'y, z, x'
  3	'x, y, z'
loop_
_atom_type_symbol
_atom_type_oxidation_number
I5+	5
K1+	1
O2-	-2
loop_
_atom_site_label
_atom_site_type_symbol
_atom_site_symmetry_multiplicity
_atom_site_Wyckoff_symbol
_atom_site_fract_x
_atom_site_fract_y
_atom_site_fract_z
_atom_site_occupancy
_atom_site_attached_hydrogens
_atom_site_U_iso_or_equiv
I1 I5+ 1 a -0.00004(6) -0.00004(6) -0.00004(6) 1 0 0.0074(2) 
I2 I5+ 1 a 0.50001(6) 0.50001(6) 0.50001(6) 1 0 0.0075(2) 
K1 K1+ 1 a 0.2532(16) 0.2532(16) 0.2532(16) 1 0 0.0150(9) 
K2 K1+ 1 a 0.7537(16) 0.7537(16) 0.7537(16) 1 0 0.0143(10) 
O1 O2- 3 b 0.7295(10) 0.8526(10) 0.2250(11) 1 0 0.0225(7) 
O2 O2- 3 b 0.3481(10) 0.2333(10) 0.7295(11) 1 0 0.0213(7) 

loop_
_atom_site_aniso_label
_atom_site_aniso_type_symbol
_atom_site_aniso_U_11
_atom_site_aniso_U_22
_atom_site_aniso_U_33
_atom_site_aniso_U_12
_atom_site_aniso_U_13
_atom_site_aniso_U_23
I1 I5+ 0.0074(2) 0.0074(2) 0.0074(2) -0.00231(9) -0.00231(9) -0.00231(9)
I2 I5+ 0.0075(2) 0.0075(2) 0.0075(2) -0.00237(9) -0.00237(9) -0.00237(9)
K1 K1+ 0.0161(5) 0.0161(5) 0.0161(5) -0.0060(4) -0.0060(4) -0.0060(4)
K2 K1+ 0.0151(5) 0.0151(5) 0.0151(5) -0.0053(5) -0.0053(5) -0.0053(5)
#End of data_424864-ICSD


