data_92602-ICSD
#?2014 by Fachinformationszentrum Karlsruhe, and the U.S. Secretary of 
#Commerce on behalf of the United States.  All rights reserved.
_database_code_ICSD                92602
_audit_creation_date               2003/04/01
_chemical_name_systematic
;
Sodium Nitrosoaquatetrachlorruthenate(II) Dihydrate
;
_chemical_formula_structural       'Na (Ru (N O) Cl4 (H2 O)) (H2 O)2'
_chemical_formula_sum              'H6 Cl4 N1 Na1 O4 Ru1'
_publ_section_title
;
Synthesis and crystal structure of sodium trans- 
nitrosoaquatetrachlororuthenate(II)
;
loop_
_citation_id
_citation_journal_abbrev
_citation_year
_citation_journal_volume
_citation_journal_issue
_citation_page_first
_citation_page_last
_citation_journal_id_ASTM
primary 'Zhurnal Strukturnoi Khimii (Issue-No. from 1981)'
 2000 41 3 567 571 ZSTKAI
2 'Journal of Structural Chemistry (USSR) (= Zhurnal Strukturnoi Khimii)'
 2000 41 3 463 467 JSTCAM
_publ_author_name
;
Emel'yanov, V.A.;Baidina, I.A.;Gromilov, S.A.;Virovets, A.V.;Belyaev, 
A.V.
;
_cell_length_a                     7.0103(7)
_cell_length_b                     11.133(1)
_cell_length_c                     12.843(1)
_cell_angle_alpha                  90
_cell_angle_beta                   99.076(8)
_cell_angle_gamma                  90
_cell_volume                       989.79
_cell_formula_units_Z              4
_symmetry_space_group_name_H-M     'P 1 21/n 1'
_symmetry_Int_Tables_number        14
_refine_ls_R_factor_all            .028
loop_
_symmetry_equiv_pos_site_id
_symmetry_equiv_pos_as_xyz
  1	'-x+.5, y+.5, -z+.5'
  2	'-x, -y, -z'
  3	'x+.5, -y+.5, z+.5'
  4	'x, y, z'
loop_
_atom_type_symbol
_atom_type_oxidation_number
Cl1-	-1
H1+	1
N3+	3
Na1+	1
O2-	-2
Ru2+	2
loop_
_atom_site_label
_atom_site_type_symbol
_atom_site_symmetry_multiplicity
_atom_site_Wyckoff_symbol
_atom_site_fract_x
_atom_site_fract_y
_atom_site_fract_z
_atom_site_occupancy
_atom_site_attached_hydrogens
_atom_site_U_iso_or_equiv
Ru1 Ru2+ 4 e 0.0765(1) 0.1344(1) 0.2989(1) 1. 0 0.023(1) 
Cl1 Cl1- 4 e 0.0284(2) 0.0186(1) 0.1422(1) 1. 0 0.040(1) 
Cl2 Cl1- 4 e 0.8056(2) 0.2570(1) 0.2406(1) 1. 0 0.038(1) 
Cl3 Cl1- 4 e 0.1556(2) 0.2639(1) 0.4435(1) 1. 0 0.034(1) 
Cl4 Cl1- 4 e 0.3674(2) 0.0276(1) 0.3516(1) 1. 0 0.035(1) 
O1 O2- 4 e 0.2362(6) 0.2492(4) 0.2193(4) 1. 0 0.034(1) 
N1 N3+ 4 e -0.0589(6) 0.0411(4) 0.3631(3) 1. 0 0.030(1) 
O2 O2- 4 e 0.8436(6) -0.0178(4) 0.4058(3) 1.000 0 0.056(1) 
Na1 Na1+ 4 e 0.6847(3) 0.8958(2) 0.0544(2) 1. 0 0.043(1) 
O3 O2- 4 e 0.5077(7) 0.0574(4) 0.1155(3) 1.000 0 0.037(1) 
O4 O2- 4 e 0.8812(8) 0.7395(6) -0.0080(4) 1.000 0 0.045(1) 
H1 H1+ 4 e 0.2580(9) 0.3020(5) 0.2340(5) 1. 0 0.030(2) 
H2 H1+ 4 e 0.1780(9) 0.2670(6) 0.1550(5) 1. 0 0.050(2) 
H3 H1+ 4 e 0.5770(7) 0.0970(4) 0.1330(4) 1. 0 0.007(14) 
H4 H1+ 4 e 0.4310(12) 0.0360(8) 0.1600(7) 1. 0 0.120(3) 
H5 H1+ 4 e -0.0660(9) 0.7760(6) 0.0080(5) 1. 0 0.040(2) 
H6 H1+ 4 e 0.8860(17) 0.6760(9) 0.0020(9) 1. 0 0.170(5) 

#End of data_92602-ICSD


