data_34362-ICSD
#?2014 by Fachinformationszentrum Karlsruhe, and the U.S. Secretary of 
#Commerce on behalf of the United States.  All rights reserved.
_database_code_ICSD                34362
_audit_creation_date               1980/01/01
_audit_update_record               1987/05/21
_chemical_name_systematic          'Dilithium Zinc Germanate'
_chemical_formula_structural       'Li2 Zn Ge O4'
_chemical_formula_sum              'Ge1 Li2 O4 Zn1'
_publ_section_title
;
Die Kristallstruktur der Verbindung Li2 Zn Ge O4
;
loop_
_citation_id
_citation_journal_abbrev
_citation_year
_citation_journal_volume
_citation_page_first
_citation_page_last
_citation_journal_id_ASTM
primary 'Monatshefte fuer Chemie' 1976 107 921 927 MOCHAP
_publ_author_name
;
Plattner, E.;Voellenkle, H.;Wittmann, A.
;
_cell_length_a                     6.4
_cell_length_b                     5.45
_cell_length_c                     5.04
_cell_angle_alpha                  90.
_cell_angle_beta                   90.2
_cell_angle_gamma                  90.
_cell_volume                       175.79
_cell_formula_units_Z              2
_symmetry_space_group_name_H-M     'P 1 n 1'
_symmetry_Int_Tables_number        7
_refine_ls_R_factor_all            .057
loop_
_symmetry_equiv_pos_site_id
_symmetry_equiv_pos_as_xyz
  1	'x+.5, -y, z+.5'
  2	'x, y, z'
loop_
_atom_type_symbol
_atom_type_oxidation_number
Ge4+	4
Li1+	1
O2-	-2
Zn2+	2
loop_
_atom_site_label
_atom_site_type_symbol
_atom_site_symmetry_multiplicity
_atom_site_Wyckoff_symbol
_atom_site_fract_x
_atom_site_fract_y
_atom_site_fract_z
_atom_site_occupancy
_atom_site_attached_hydrogens
_atom_site_B_iso_or_equiv
Ge1 Ge4+ 2 a 0 0.176(3) 0 1. 0 0.8 
Zn1 Zn2+ 2 a 0.253(1) 0.340(3) 0.496(1) 1. 0 0.7 
Li1 Li1+ 2 a 0.5 0.133 0 1. 0 0.6 
Li2 Li1+ 2 a 0.75 0.317 0.5 1. 0 0.9 
O1 O2- 2 a 0.496(7) 0.134(9) 0.421(9) 1. 0 1.4 
O2 O2- 2 a 0.268(4) 0.672(6) 0.382(6) 1. 0 0.2 
O3 O2- 2 a 0.997(7) 0.187(1) 0.348(9) 1. 0 2.5 
O4 O2- 2 a 0.235(4) 0.315(6) 0.880(6) 1. 0 0.1 

#End of data_34362-ICSD


