data_80472-ICSD
#?2014 by Fachinformationszentrum Karlsruhe, and the U.S. Secretary of 
#Commerce on behalf of the United States.  All rights reserved.
_database_code_ICSD                80472
_audit_creation_date               1997/05/13
_chemical_name_systematic
;
Octalithium Dibromide Tecto-hexaberyllohexaphosphate(V)
;
_chemical_formula_structural       'Li8 Br2 (Be6 P6 O24)'
_chemical_formula_sum              'Be6 Br2 Li8 O24 P6'
_publ_section_title
;
Synthese und Struktur einiger neuer Sodalithe: Lithium 
halogenoberyllophosphate und -arsenate
;
loop_
_citation_id
_citation_journal_abbrev
_citation_year
_citation_journal_volume
_citation_page_first
_citation_page_last
_citation_journal_id_ASTM
primary 'Angewandte Chemie (German Edition)' 1991 103 1191 1192 ANCEAD
_publ_author_name
;
Gier, T.E.;Harrison, W.T.A.;Stucky, G.D.
;
_cell_length_a                     8.0823(4)
_cell_length_b                     8.0823(4)
_cell_length_c                     8.0823(4)
_cell_angle_alpha                  90.
_cell_angle_beta                   90.
_cell_angle_gamma                  90.
_cell_volume                       527.96
_cell_formula_units_Z              1
_symmetry_space_group_name_H-M     'P -4 3 n'
_symmetry_Int_Tables_number        218
_refine_ls_R_factor_all            .087
loop_
_symmetry_equiv_pos_site_id
_symmetry_equiv_pos_as_xyz
  1	'-z+.5, y+.5, -x+.5'
  2	'-y+.5, x+.5, -z+.5'
  3	'-x+.5, z+.5, -y+.5'
  4	'z+.5, -y+.5, -x+.5'
  5	'y+.5, -x+.5, -z+.5'
  6	'x+.5, -z+.5, -y+.5'
  7	'-z+.5, -y+.5, x+.5'
  8	'-y+.5, -x+.5, z+.5'
  9	'-x+.5, -z+.5, y+.5'
 10	'z+.5, y+.5, x+.5'
 11	'y+.5, x+.5, z+.5'
 12	'x+.5, z+.5, y+.5'
 13	'-z, -x, y'
 14	'-y, -z, x'
 15	'-x, -y, z'
 16	'z, -x, -y'
 17	'y, -z, -x'
 18	'x, -y, -z'
 19	'-z, x, -y'
 20	'-y, z, -x'
 21	'-x, y, -z'
 22	'z, x, y'
 23	'y, z, x'
 24	'x, y, z'
loop_
_atom_type_symbol
_atom_type_oxidation_number
Be2+	2
Br1-	-1
Li1+	1
O2-	-2
P5+	5
loop_
_atom_site_label
_atom_site_type_symbol
_atom_site_symmetry_multiplicity
_atom_site_Wyckoff_symbol
_atom_site_fract_x
_atom_site_fract_y
_atom_site_fract_z
_atom_site_occupancy
_atom_site_attached_hydrogens
_atom_site_U_iso_or_equiv
Be1 Be2+ 6 d 0.25 0 0.5 1. 0 0.006(4) 
P1 P5+ 6 c 0.25 0.5 0 1. 0 0.039(9) 
O1 O2- 24 i 0.1461(4) 0.4190(5) 0.1391(4) 1. 0 0.001(1) 
Li1 Li1+ 8 e 0.1916(11) 0.1916(11) 0.1916(11) 1. 0 0.01(1) 
Br1 Br1- 2 a 0 0 0 1. 0 0.064(9) 

#End of data_80472-ICSD


