data_415473-ICSD
#?2014 by Fachinformationszentrum Karlsruhe, and the U.S. Secretary of 
#Commerce on behalf of the United States.  All rights reserved.
_database_code_ICSD                415473
_audit_creation_date               2007/04/01
_chemical_name_systematic          'Disilver Ditelluro(IV)ditellurate'
_chemical_formula_structural       'Ag2 (Te4 O11)'
_chemical_formula_sum              'Ag2 O11 Te4'
_publ_section_title                'Neue Silber(I)-oxotellurate(IV/VI)'
loop_
_citation_id
_citation_journal_abbrev
_citation_year
_citation_journal_volume
_citation_page_first
_citation_page_last
_citation_journal_id_ASTM
primary 'Zeitschrift fuer Anorganische und Allgemeine Chemie (1950) (DE)'
 2005 631 2893 2899 ZAACAB
_publ_author_name
;
Klein, W.;Curda, J.;Peters, E.M.;Jansen, M.
;
_cell_length_a                     7.287(4)
_cell_length_b                     7.388(3)
_cell_length_c                     9.686(7)
_cell_angle_alpha                  95.67(3)
_cell_angle_beta                   94.10(3)
_cell_angle_gamma                  119.40(3)
_cell_volume                       447.73
_cell_formula_units_Z              2
_symmetry_space_group_name_H-M     'P -1'
_symmetry_Int_Tables_number        2
_refine_ls_R_factor_all            .0251
loop_
_symmetry_equiv_pos_site_id
_symmetry_equiv_pos_as_xyz
  1	'-x, -y, -z'
  2	'x, y, z'
loop_
_atom_type_symbol
_atom_type_oxidation_number
Ag1+	1
O2-	-2
Te4+	4
Te6+	6
loop_
_atom_site_label
_atom_site_type_symbol
_atom_site_symmetry_multiplicity
_atom_site_Wyckoff_symbol
_atom_site_fract_x
_atom_site_fract_y
_atom_site_fract_z
_atom_site_occupancy
_atom_site_attached_hydrogens
_atom_site_U_iso_or_equiv
Ag1 Ag1+ 2 i -0.00196(14) 0.18385(14) 0.35112(9) 1 0 0.0186(2) 
Ag2 Ag1+ 2 i 0.7703(2) 0.27899(15) 0.01330(9) 1 0 0.0173(2) 
Te1 Te6+ 2 i 0.50562(11) 0.30576(11) 0.68614(7) 1 0 0.0064(2) 
Te2 Te6+ 2 i 0.49254(11) 0.19063(11) 0.31118(7) 1 0 0.0062(2) 
Te3 Te4+ 2 i -0.00416(11) 0.31531(11) 0.67227(7) 1 0 0.0074(2) 
Te4 Te4+ 2 i 0.22841(11) 0.21430(11) 0.99769(7) 1 0 0.0083(2) 
O1 O2- 2 i 0.6067(10) 0.3204(10) 0.5054(7) 1 0 0.0142(15) 
O2 O2- 2 i 0.3932(11) 0.3950(10) 0.2967(7) 1 0 0.0114(14) 
O3 O2- 2 i 0.4077(10) 0.0065(10) 0.6651(7) 1 0 0.0098(13) 
O4 O2- 2 i 0.2241(10) 0.2278(10) 0.6213(7) 1 0 0.0104(13) 
O5 O2- 2 i 0.7917(10) 0.3915(10) 0.7609(6) 1 0 0.0088(13) 
O6 O2- 2 i 0.2203(10) 0.0084(10) 0.3575(7) 1 0 0.0124(14) 
O7 O2- 2 i 0.2233(10) 0.6336(10) 0.7255(7) 1 0 0.0120(14) 
O8 O2- 2 i 0.4659(11) 0.3109(11) 0.8813(7) 1 0 0.0132(14) 
O9 O2- 2 i 0.4038(11) 0.0970(10) 0.1140(6) 1 0 0.0107(13) 
O10 O2- 2 i 0.0642(11) 0.3077(10) 0.8630(7) 1 0 0.0132(14) 
O11 O2- 2 i 0.0775(10) -0.0603(10) 0.8981(7) 1 0 0.0099(13) 

loop_
_atom_site_aniso_label
_atom_site_aniso_type_symbol
_atom_site_aniso_U_11
_atom_site_aniso_U_22
_atom_site_aniso_U_33
_atom_site_aniso_U_12
_atom_site_aniso_U_13
_atom_site_aniso_U_23
Ag1 Ag1+ 0.0166(4) 0.0213(5) 0.0175(4) 0.0099(4) 0.0023(3) -0.0004(4)
Ag2 Ag1+ 0.0208(5) 0.0203(5) 0.0155(4) 0.0138(4) 0.0039(3) 0.0023(3)
Te1 Te6+ 0.0064(3) 0.0059(3) 0.0072(3) 0.0033(3) 0.0012(2) 0.0008(2)
Te2 Te6+ 0.0062(3) 0.0046(3) 0.0071(3) 0.0021(3) 0.0013(2) 0.0008(2)
Te3 Te4+ 0.0067(3) 0.0069(3) 0.0083(3) 0.0032(3) 0.0009(2) 0.0011(2)
Te4 Te4+ 0.0080(3) 0.0068(3) 0.0079(3) 0.0023(3) 0.0010(2) 0.0009(2)
O1 O2- 0.011(3) 0.011(3) 0.012(3) -0.001(3) -0.002(3) -0.001(3)
O2 O2- 0.019(4) 0.007(3) 0.009(3) 0.008(3) 0.002(3) -0.003(2)
O3 O2- 0.010(2) 0.011(2) 0.012(2) 0.008(2) 0.001(2) 0.005(2)
O4 O2- 0.009(3) 0.007(3) 0.012(3) 0.002(3) 0.004(2) -0.003(2)
O5 O2- 0.007(2) 0.011(2) 0.010(2) 0.006(2) 0.001(2) -0.002(2)
O6 O2- 0.009(3) 0.007(3) 0.015(3) 0.000(3) 0.003(3) 0.000(3)
O7 O2- 0.007(3) 0.006(3) 0.024(4) 0.003(3) 0.007(3) 0.005(3)
O8 O2- 0.007(3) 0.017(3) 0.013(3) 0.004(3) 0.003(3) -0.002(3)
O9 O2- 0.017(4) 0.012(3) 0.006(3) 0.011(3) -0.005(2) -0.003(2)
O10 O2- 0.017(3) 0.013(3) 0.015(3) 0.010(3) 0.000(3) 0.007(3)
O11 O2- 0.015(3) 0.006(3) 0.013(3) 0.007(3) 0.007(3) 0.007(2)
#End of data_415473-ICSD


