data_82635-ICSD
#?2014 by Fachinformationszentrum Karlsruhe, and the U.S. Secretary of 
#Commerce on behalf of the United States.  All rights reserved.
_database_code_ICSD                82635
_audit_creation_date               1997/11/10
_chemical_name_systematic
;
Lithium Niobium Nitride Oxide (16/2/8/1)
;
_chemical_formula_structural       'Li16 Nb2 N8 O'
_chemical_formula_sum              'Li16 N8 Nb2 O1'
_publ_section_title
;
Crystal structure of the oxynitride, Li16 Nb2 N8 O
;
loop_
_citation_id
_citation_journal_abbrev
_citation_year
_citation_journal_volume
_citation_page_first
_citation_page_last
_citation_journal_id_ASTM
primary 'Journal of Solid State Chemistry' 1996 127 19 24 JSSCBI
_publ_author_name                  'Chen, X.-Z.;Eick, H.A.'
_cell_length_a                     5.984(4)
_cell_length_b                     5.984(4)
_cell_length_c                     25.4840(80)
_cell_angle_alpha                  90.
_cell_angle_beta                   90.
_cell_angle_gamma                  120.
_cell_volume                       790.28
_cell_formula_units_Z              3
_symmetry_space_group_name_H-M     'R -3 H'
_symmetry_Int_Tables_number        148
_refine_ls_R_factor_all            .024
loop_
_symmetry_equiv_pos_site_id
_symmetry_equiv_pos_as_xyz
  1	'x-y, x, -z'
  2	'y, -x+y, -z'
  3	'-x, -y, -z'
  4	'-x+y, -x, z'
  5	'-y, x-y, z'
  6	'x, y, z'
  7	'x-y+.6666, x+.3333, -z+.3333'
  8	'x-y+.3333, x+.6666, -z+.6666'
  9	'y+.6666, -x+y+.3333, -z+.3333'
 10	'y+.3333, -x+y+.6666, -z+.6666'
 11	'-x+.6666, -y+.3333, -z+.3333'
 12	'-x+.3333, -y+.6666, -z+.6666'
 13	'-x+y+.6666, -x+.3333, z+.3333'
 14	'-x+y+.3333, -x+.6666, z+.6666'
 15	'-y+.6666, x-y+.3333, z+.3333'
 16	'-y+.3333, x-y+.6666, z+.6666'
 17	'x+.6666, y+.3333, z+.3333'
 18	'x+.3333, y+.6666, z+.6666'
loop_
_atom_type_symbol
_atom_type_oxidation_number
Li1+	1
N3-	-3
Nb5+	5
O2-	-2
loop_
_atom_site_label
_atom_site_type_symbol
_atom_site_symmetry_multiplicity
_atom_site_Wyckoff_symbol
_atom_site_fract_x
_atom_site_fract_y
_atom_site_fract_z
_atom_site_occupancy
_atom_site_attached_hydrogens
Nb1 Nb5+ 6 c 0 0 0.24944(1) 1. 0 
N1 N3- 18 f 0.3089(4) 0.3110(4) 0.22491(7) 1. 0 
N2 N3- 6 c 0 0 0.3265(1) 1. 0 
O1 O2- 3 a 0 0 0 1. 0 
Li1 Li1+ 18 f 0.357(1) 0.303(1) 0.4747(1) 1. 0 
Li2 Li1+ 18 f 0.032(1) 0.340(1) 0.0233(2) 1. 0 
Li3 Li1+ 6 c 0 0 0.0769(3) 1. 0 
Li4 Li1+ 6 c 0 0 0.4165(3) 1. 0 

loop_
_atom_site_aniso_label
_atom_site_aniso_type_symbol
_atom_site_aniso_U_11
_atom_site_aniso_U_22
_atom_site_aniso_U_33
_atom_site_aniso_U_12
_atom_site_aniso_U_13
_atom_site_aniso_U_23
Nb1 Nb5+ 0.0034(1) 0.0034(1) 0.0034(2) 0.0017(1) 0 0
N1 N3- 0.0064(9) 0.0060(9) 0.0054(7) 0.0031(8) 0.0007(7) 0.0003(7)
N2 N3- 0.007(1) 0.007(1) 0.005(2) 0.003(1) 0 0
O1 O2- 0.006(1) 0.006(1) 0.006(2) 0.003(1) 0 0
Li1 Li1+ 0.012(2) 0.010(2) 0.010(2) 0.006(2) 0.001(1) 0.000(1)
Li2 Li1+ 0.012(2) 0.012(2) 0.012(2) 0.007(2) 0.003(1) -.001(1)
Li3 Li1+ 0.010(2) 0.010(2) 0.007(4) 0.005(1) 0 0
Li4 Li1+ 0.013(2) 0.013(2) 0.011(3) 0.007(1) 0 0
#End of data_82635-ICSD


