data_15921-ICSD
#?2014 by Fachinformationszentrum Karlsruhe, and the U.S. Secretary of 
#Commerce on behalf of the United States.  All rights reserved.
_database_code_ICSD                15921
_audit_creation_date               1984/09/04
_chemical_name_systematic          'Potassium Chromate *'
_chemical_formula_structural       'K Cr3 O8'
_chemical_formula_sum              'Cr3 K1 O8'
_publ_section_title                'Die Kristallstruktur von K Cr3 O8'
loop_
_citation_id
_citation_journal_abbrev
_citation_year
_citation_journal_volume
_citation_page_first
_citation_page_last
_citation_journal_id_ASTM
primary Naturwissenschaften 1957 44 580 581 NATWAY
_publ_author_name                  'Oelander, A.;Wilhelmi, K.A.'
_cell_length_a                     8.57
_cell_length_b                     5.47
_cell_length_c                     7.65
_cell_angle_alpha                  90.
_cell_angle_beta                   95.
_cell_angle_gamma                  90.
_cell_volume                       357.25
_cell_formula_units_Z              2
_symmetry_space_group_name_H-M     'C 1 2/m 1'
_symmetry_Int_Tables_number        12
loop_
_symmetry_equiv_pos_site_id
_symmetry_equiv_pos_as_xyz
  1	'-x, y, -z'
  2	'-x, -y, -z'
  3	'x, -y, z'
  4	'x, y, z'
  5	'-x+.5, y+.5, -z'
  6	'-x+.5, -y+.5, -z'
  7	'x+.5, -y+.5, z'
  8	'x+.5, y+.5, z'
loop_
_atom_type_symbol
_atom_type_oxidation_number
Cr5+	5
K1+	1
O2-	-2
loop_
_atom_site_label
_atom_site_type_symbol
_atom_site_symmetry_multiplicity
_atom_site_Wyckoff_symbol
_atom_site_fract_x
_atom_site_fract_y
_atom_site_fract_z
_atom_site_occupancy
_atom_site_attached_hydrogens
K1 K1+ 2 a 0 0 0 1. 0 
Cr1 Cr5+ 2 c 0 0 0.5 1. 0 
Cr2 Cr5+ 4 i -.38 0 0.29 1. 0 
O1 O2- 4 i 0.22 0 0.54 1. 0 
O2 O2- 4 i -.31 0 0.1 1. 0 
O3 O2- 8 j 0.02 0.25 0.32 1. 0 

#End of data_15921-ICSD


