data_261894-ICSD
#?2014 by Fachinformationszentrum Karlsruhe, and the U.S. Secretary of 
#Commerce on behalf of the United States.  All rights reserved.
_database_code_ICSD                261894
_audit_creation_date               2012/02/01
_chemical_name_systematic
;
Heptamagnesium Bis(phosphate(V)) Tetrakis(hydrogen Phosphate)
;
_chemical_formula_structural       'Mg7 (P O4)2 (P O3 O H)4'
_chemical_formula_sum              'H4 Mg7 O24 P6'
_publ_section_title
;
Heptamagnesium bis(phosphate) tetrakis(hydrogen phosphate) with 
strong hydrogen bonds: Mg7 (P O4)2 (H P O4)4
;
loop_
_citation_id
_citation_journal_abbrev
_citation_year
_citation_journal_volume
_citation_journal_issue
_citation_page_first
_citation_page_last
_citation_journal_id_ASTM
primary 'Acta Crystallographica, Section E. Structure Reports Online'
 2011 67 10 i52 i52 ACSEBH
_publ_author_name
;
Assani, A.;Saadi, M.;Zriouil, M.;El Ammari, L.
;
_cell_length_a                     6.4204(5)
_cell_length_b                     7.8489(4)
_cell_length_c                     9.4315(5)
_cell_angle_alpha                  104.442(3)
_cell_angle_beta                   108.505(5)
_cell_angle_gamma                  101.189(8)
_cell_volume                       416.7
_cell_formula_units_Z              1
_symmetry_space_group_name_H-M     'P -1'
_symmetry_Int_Tables_number        2
_refine_ls_R_factor_all            .0259
loop_
_symmetry_equiv_pos_site_id
_symmetry_equiv_pos_as_xyz
  1	'-x, -y, -z'
  2	'x, y, z'
loop_
_atom_type_symbol
_atom_type_oxidation_number
H1+	1
Mg2+	2
O2-	-2
P5+	5
loop_
_atom_site_label
_atom_site_type_symbol
_atom_site_symmetry_multiplicity
_atom_site_Wyckoff_symbol
_atom_site_fract_x
_atom_site_fract_y
_atom_site_fract_z
_atom_site_occupancy
_atom_site_attached_hydrogens
_atom_site_U_iso_or_equiv
Mg1 Mg2+ 2 i -0.38348(12) 0.54390(10) -0.10950(8) 1 0 0.00639(17) 
Mg2 Mg2+ 1 a 0.0000 0.0000 0.0000 1 0 0.0094(2) 
Mg3 Mg2+ 2 i -0.05324(13) 0.28758(10) -0.51536(9) 1 0 0.00821(17) 
Mg4 Mg2+ 2 i -0.27778(13) 0.19081(11) -0.28530(9) 1 0 0.00902(17) 
P1 P5+ 2 i 0.22691(9) 0.14512(8) -0.22413(6) 1 0 0.00561(13) 
P2 P5+ 2 i 0.08899(9) 0.58025(7) -0.17255(6) 1 0 0.00465(13) 
P3 P5+ 2 i -0.59090(9) 0.23141(8) -0.62865(7) 1 0 0.00658(14) 
O1 O2- 2 i 0.0189(3) 0.1762(2) -0.33779(18) 1 0 0.0081(3) 
O2 O2- 2 i 0.2208(3) 0.1877(2) -0.05694(18) 1 0 0.0074(3) 
O3 O2- 2 i 0.4517(3) 0.2446(2) -0.22968(18) 1 0 0.0077(3) 
O4 O2- 2 i 0.2013(3) -0.0667(2) -0.27972(18) 1 0 0.0091(3) 
H1 H1+ 2 i 0.1828 -0.1148 -0.2104 1 0 0.011 
O5 O2- 2 i 0.3069(3) 0.5385(2) -0.08555(18) 1 0 0.0068(3) 
O6 O2- 2 i 0.0589(3) 0.5452(2) -0.34643(18) 1 0 0.0073(3) 
O7 O2- 2 i 0.1098(3) 0.7857(2) -0.09645(19) 1 0 0.0094(3) 
O8 O2- 2 i -0.1240(3) 0.4602(2) -0.16487(18) 1 0 0.0070(3) 
O9 O2- 2 i -0.3803(3) 0.2112(2) -0.50853(19) 1 0 0.0104(3) 
O10 O2- 2 i -0.5267(3) 0.3827(2) -0.69363(19) 1 0 0.0106(3) 
O11 O2- 2 i -0.7360(3) 0.0488(2) -0.76029(19) 1 0 0.0097(3) 
O12 O2- 2 i -0.7344(3) 0.2950(2) -0.52719(19) 1 0 0.0111(3) 
H2 H1+ 2 i -0.6495 0.3935 -0.4485 1 0 0.013 

loop_
_atom_site_aniso_label
_atom_site_aniso_type_symbol
_atom_site_aniso_U_11
_atom_site_aniso_U_22
_atom_site_aniso_U_33
_atom_site_aniso_U_12
_atom_site_aniso_U_13
_atom_site_aniso_U_23
Mg1 Mg2+ 0.0064(4) 0.0077(4) 0.0058(4) 0.0022(3) 0.0028(3) 0.0028(3)
Mg2 Mg2+ 0.0120(5) 0.0086(5) 0.0095(5) 0.0035(4) 0.0061(4) 0.0034(4)
Mg3 Mg2+ 0.0091(4) 0.0083(4) 0.0076(4) 0.0021(3) 0.0037(3) 0.0029(3)
Mg4 Mg2+ 0.0093(4) 0.0082(4) 0.0104(4) 0.0027(3) 0.0047(3) 0.0031(3)
P1 P5+ 0.0055(3) 0.0055(3) 0.0056(3) 0.0011(2) 0.0024(2) 0.0016(2)
P2 P5+ 0.0045(3) 0.0052(3) 0.0047(3) 0.0017(2) 0.0019(2) 0.0020(2)
P3 P5+ 0.0058(3) 0.0073(3) 0.0067(3) 0.0019(2) 0.0023(2) 0.0025(2)
O1 O2- 0.0056(7) 0.0103(8) 0.0084(8) 0.0024(6) 0.0019(6) 0.0041(6)
O2 O2- 0.0086(7) 0.0070(7) 0.0056(7) 0.0010(6) 0.0031(6) 0.0008(6)
O3 O2- 0.0056(7) 0.0078(7) 0.0088(7) -0.0002(6) 0.0037(6) 0.0019(6)
O4 O2- 0.0133(8) 0.0067(7) 0.0085(8) 0.0025(6) 0.0057(6) 0.0030(6)
O5 O2- 0.0053(7) 0.0094(7) 0.0068(7) 0.0034(6) 0.0024(6) 0.0034(6)
O6 O2- 0.0097(7) 0.0081(7) 0.0053(7) 0.0036(6) 0.0035(6) 0.0030(6)
O7 O2- 0.0119(8) 0.0060(7) 0.0109(8) 0.0038(6) 0.0050(6) 0.0021(6)
O8 O2- 0.0049(7) 0.0071(7) 0.0091(7) 0.0010(6) 0.0037(6) 0.0020(6)
O9 O2- 0.0085(8) 0.0157(8) 0.0086(8) 0.0059(6) 0.0030(6) 0.0052(6)
O10 O2- 0.0117(8) 0.0093(8) 0.0087(8) -0.0002(6) 0.0018(6) 0.0048(6)
O11 O2- 0.0098(7) 0.0073(7) 0.0102(8) 0.0014(6) 0.0025(6) 0.0025(6)
O12 O2- 0.0084(8) 0.0137(8) 0.0099(8) 0.0037(6) 0.0042(6) 0.0010(6)
#End of data_261894-ICSD


