data_50926-ICSD
#?2014 by Fachinformationszentrum Karlsruhe, and the U.S. Secretary of 
#Commerce on behalf of the United States.  All rights reserved.
_database_code_ICSD                50926
_audit_creation_date               2000/12/16
_chemical_name_systematic
;
Potassium Magnesium Phosphate(V) - Alpha
;
_chemical_formula_structural       'K Mg (P O4)'
_chemical_formula_sum              'K1 Mg1 O4 P1'
_publ_section_title
;
Crystal chemistry and polymorphism of potassium-magnesium 
monophosphate
;
loop_
_citation_id
_citation_journal_abbrev
_citation_year
_citation_journal_volume
_citation_page_first
_citation_page_last
_citation_journal_id_ASTM
primary 'Journal of Solid State Chemistry' 1998 136 175 180 JSSCBI
_publ_author_name
;
Wallez, G.;Colbeau-Justin, C.;le Mercier, T.;Quarton, M.;Robert, F.
;
_cell_length_a                     8.549(2)
_cell_length_b                     5.078(1)
_cell_length_c                     18.9960(20)
_cell_angle_alpha                  90.
_cell_angle_beta                   91.68(1)
_cell_angle_gamma                  90.
_cell_volume                       824.3
_cell_formula_units_Z              8
_symmetry_space_group_name_H-M     'P 1 21/c 1'
_symmetry_Int_Tables_number        14
_refine_ls_R_factor_all            .026
loop_
_symmetry_equiv_pos_site_id
_symmetry_equiv_pos_as_xyz
  1	'x, -y+.5, z+.5'
  2	'-x, -y, -z'
  3	'-x, y+.5, -z+.5'
  4	'x, y, z'
loop_
_atom_type_symbol
_atom_type_oxidation_number
K1+	1
Mg2+	2
O2-	-2
P5+	5
loop_
_atom_site_label
_atom_site_type_symbol
_atom_site_symmetry_multiplicity
_atom_site_Wyckoff_symbol
_atom_site_fract_x
_atom_site_fract_y
_atom_site_fract_z
_atom_site_occupancy
_atom_site_attached_hydrogens
_atom_site_U_iso_or_equiv
K1 K1+ 4 e 0.00440(4) 0.72504(9) 0.09327(2) 1. 0 0.0209(2) 
K2 K1+ 4 e 0.48209(5) 0.23595(9) 0.34065(2) 1. 0 0.0232(2) 
Mg1 Mg2+ 4 e 0.84365(6) 0.2741(1) 0.23068(3) 1. 0 0.0092(2) 
Mg2 Mg2+ 4 e 0.32309(6) 0.2793(1) 0.03046(3) 1. 0 0.0111(2) 
P1 P5+ 4 e 0.20769(4) 0.20576(8) 0.18993(2) 1. 0 0.0096(1) 
P2 P5+ 4 e 0.70499(4) 0.24603(8) 0.06278(2) 1. 0 0.0093(1) 
O1 O2- 4 e 0.0509(1) 0.0941(2) 0.21765(6) 1. 0 0.0123(5) 
O2 O2- 4 e 0.3295(1) 0.0378(3) 0.22911(7) 1. 0 0.0159(6) 
O3 O2- 4 e 0.2264(2) 0.4983(3) 0.20557(8) 1. 0 0.0174(6) 
O4 O2- 4 e 0.2078(2) 0.1620(3) 0.11031(6) 1. 0 0.0198(7) 
O5 O2- 4 e 0.7864(2) 0.3169(3) 0.13250(6) 1. 0 0.0176(6) 
O6 O2- 4 e 0.5329(1) 0.3238(3) 0.06619(8) 1. 0 0.0219(7) 
O7 O2- 4 e 0.7806(2) 0.3998(2) 0.00310(6) 1. 0 0.0163(6) 
O8 O2- 4 e 0.7185(2) 0.9496(2) 0.04935(7) 1. 0 0.0176(6) 

#End of data_50926-ICSD


