data_409501-ICSD
#?2014 by Fachinformationszentrum Karlsruhe, and the U.S. Secretary of 
#Commerce on behalf of the United States.  All rights reserved.
_database_code_ICSD                409501
_audit_creation_date               2002/04/01
_chemical_name_systematic          'Heptalithium Tetranitridovanadate'
_chemical_formula_structural       'Li7 (V N4)'
_chemical_formula_sum              'Li7 N4 V1'
_publ_section_title
;
Redetermination of the crystal sructure of heptalithium 
tetranitridovanadate(V), Li7 (V N4)
;
loop_
_citation_id
_citation_journal_abbrev
_citation_year
_citation_journal_volume
_citation_page_first
_citation_page_last
_citation_journal_id_ASTM
primary 'Zeitschrift fuer Kristallographie - New Crystal Structures'
 2001 216 5 6 ZKNSFT
_publ_author_name                  'Niewa, R.;Kniep, R.'
_cell_length_a                     9.599(2)
_cell_length_b                     9.599(2)
_cell_length_c                     9.599(2)
_cell_angle_alpha                  90.
_cell_angle_beta                   90.
_cell_angle_gamma                  90.
_cell_volume                       884.46
_cell_formula_units_Z              8
_symmetry_space_group_name_H-M     'P a -3'
_symmetry_Int_Tables_number        205
_refine_ls_R_factor_all            .0557
loop_
_symmetry_equiv_pos_site_id
_symmetry_equiv_pos_as_xyz
  1	'-z+.5, x+.5, y'
  2	'z+.5, x, -y+.5'
  3	'z, -x+.5, y+.5'
  4	'-z, -x, -y'
  5	'y, -z+.5, x+.5'
  6	'-y+.5, z+.5, x'
  7	'y+.5, z, -x+.5'
  8	'-y, -z, -x'
  9	'x+.5, y, -z+.5'
 10	'x, -y+.5, z+.5'
 11	'-x+.5, y+.5, z'
 12	'-x, -y, -z'
 13	'z+.5, -x+.5, -y'
 14	'-z+.5, -x, y+.5'
 15	'-z, x+.5, -y+.5'
 16	'z, x, y'
 17	'-y, z+.5, -x+.5'
 18	'y+.5, -z+.5, -x'
 19	'-y+.5, -z, x+.5'
 20	'y, z, x'
 21	'-x+.5, -y, z+.5'
 22	'-x, y+.5, -z+.5'
 23	'x+.5, -y+.5, -z'
 24	'x, y, z'
loop_
_atom_type_symbol
_atom_type_oxidation_number
Li1+	1
N3-	-3
V5+	5
loop_
_atom_site_label
_atom_site_type_symbol
_atom_site_symmetry_multiplicity
_atom_site_Wyckoff_symbol
_atom_site_fract_x
_atom_site_fract_y
_atom_site_fract_z
_atom_site_occupancy
_atom_site_attached_hydrogens
V1 V5+ 8 c 0.36993(6) 0.36993(6) 0.36993(6) 1. 0 
N1 N3- 8 c 0.2609(3) 0.2609(3) 0.2609(3) 1. 0 
N2 N3- 24 d 0.4848(3) 0.2597(3) 0.4787(4) 1. 0 
Li1 Li1+ 8 c 0.1344(7) 0.1344(7) 0.1344(7) 1. 0 
Li2 Li1+ 24 d 0.1296(7) 0.3845(7) 0.1315(7) 1. 0 
Li3 Li1+ 24 d 0.3632(7) 0.3801(7) 0.1041(7) 1. 0 

loop_
_atom_site_aniso_label
_atom_site_aniso_type_symbol
_atom_site_aniso_U_11
_atom_site_aniso_U_22
_atom_site_aniso_U_33
_atom_site_aniso_U_12
_atom_site_aniso_U_13
_atom_site_aniso_U_23
V1 V5+ 0.0032(4) 0.0032(4) 0.0032(4) 0.0001(2) 0.0001(2) 0.0001(2)
N1 N3- 0.0104(12) 0.0104(12) 0.0104(12) -.0002(13) -.0002(13) -.0002(13)
N2 N3- 0.0097(16) 0.0099(16) 0.0144(16) 0.0003(12) 0.0001(13) -.0017(12)
Li1 Li1+ 0.015(2) 0.015(2) 0.015(2) 0.006(3) 0.006(3) 0.006(3)
Li2 Li1+ 0.017(3) 0.019(3) 0.019(4) -.006(3) 0.008(3) -.009(3)
Li3 Li1+ 0.018(3) 0.018(3) 0.014(3) 0.007(3) -.014(3) -.007(3)
#End of data_409501-ICSD


