data_415820-ICSD
#?2014 by Fachinformationszentrum Karlsruhe, and the U.S. Secretary of 
#Commerce on behalf of the United States.  All rights reserved.
_database_code_ICSD                415820
_audit_creation_date               2007/04/01
_audit_update_record               2013/02/01
_chemical_name_systematic          'Dimagnesium Tetrakis(iodate(V))'
_chemical_formula_structural       'Mg2 (I O3)4'
_chemical_formula_sum              'I4 Mg2 O12'
_publ_section_title
;
Crystal structure of M (I O3)2 metal iodates, twinned by pseudo-
merohedry, with MII: MgII, MnII, CoII, NiII and ZnII
;
loop_
_citation_id
_citation_journal_abbrev
_citation_year
_citation_journal_volume
_citation_journal_issue
_citation_page_first
_citation_page_last
_citation_journal_id_ASTM
primary 'Zeitschrift fuer Kristallographie (1979-2010)' 2006 221 9 635 642 ZEKRDZ
_publ_author_name
;
Phanon, D.;Bentria, B.;Jeanneau, E.;Benbertal, D.;Mosset, A.;Gautier 
Luneau, I.
;
_cell_length_a                     10.9520(10)
_cell_length_b                     5.1170(10)
_cell_length_c                     10.9590(10)
_cell_angle_alpha                  90
_cell_angle_beta                   120.004(5)
_cell_angle_gamma                  90
_cell_volume                       531.85
_cell_formula_units_Z              2
_symmetry_space_group_name_H-M     'P 1 21 1'
_symmetry_Int_Tables_number        4
_refine_ls_R_factor_all            .0581
loop_
_symmetry_equiv_pos_site_id
_symmetry_equiv_pos_as_xyz
  1	'-x, y+.5, -z'
  2	'x, y, z'
loop_
_atom_type_symbol
_atom_type_oxidation_number
I5+	5
Mg2+	2
O2-	-2
loop_
_atom_site_label
_atom_site_type_symbol
_atom_site_symmetry_multiplicity
_atom_site_Wyckoff_symbol
_atom_site_fract_x
_atom_site_fract_y
_atom_site_fract_z
_atom_site_occupancy
_atom_site_attached_hydrogens
_atom_site_U_iso_or_equiv
Mg1 Mg2+ 2 a 0.5080(11) 0.4256(16) 0.2599(11) 1 0 0.0034(14) 
Mg2 Mg2+ 2 a -0.0083(15) 0.920(4) 0.2471(13) 1 0 0.053(4) 
I1 I5+ 2 a 0.1587(4) 0.5031(4) 0.0828(6) 1 0 0.0185(7) 
I2 I5+ 2 a 0.3268(5) 0.0079(8) 0.4007(3) 1 0 0.0117(7) 
I3 I5+ 2 a 0.8261(5) 0.0137(3) 0.4189(7) 1 0 0.0216(8) 
I4 I5+ 2 a 0.6611(5) 0.5097(9) 0.0661(3) 1 0 0.0140(8) 
O1 O2- 2 a 0.3331(19) 0.655(3) 0.1439(18) 1 0 0.002(3) 
O2 O2- 2 a 0.057(3) 0.709(5) -0.067(2) 1 0 0.020(5) 
O3 O2- 2 a 0.127(4) 0.660(5) 0.214(3) 1 0 0.029(8) 
O4 O2- 2 a 0.361(3) 0.199(5) 0.281(3) 1 0 0.014(5) 
O5 O2- 2 a 0.176(4) 0.203(7) 0.385(4) 1 0 0.032(11) 
O6 O2- 2 a 0.444(2) 0.142(5) 0.565(2) 1 0 0.010(5) 
O7 O2- 2 a 0.683(2) 0.214(4) 0.4066(19) 1 0 0.005(3) 
O8 O2- 2 a 0.954(4) 0.166(6) 0.575(3) 1 0 0.031(8) 
O9 O2- 2 a 0.853(4) 0.160(5) 0.283(3) 1 0 0.016(6) 
O10 O2- 2 a 0.641(2) 0.628(4) 0.210(2) 1 0 0.015(5) 
O11 O2- 2 a 0.821(4) 0.705(8) 0.108(4) 1 0 0.030(11) 
O12 O2- 2 a 0.543(3) 0.696(5) -0.079(3) 1 0 0.018(6) 

loop_
_atom_site_aniso_label
_atom_site_aniso_type_symbol
_atom_site_aniso_U_11
_atom_site_aniso_U_22
_atom_site_aniso_U_33
_atom_site_aniso_U_12
_atom_site_aniso_U_13
_atom_site_aniso_U_23
I1 I5+ 0.0192(15) 0.0113(10) 0.0317(15) 0.0015(15) 0.0177(13) 0.0084(16)
I2 I5+ 0.0171(19) 0.0135(15) 0.0053(11) 0.0074(11) 0.0061(12) 0.0005(15)
I3 I5+ 0.0225(14) 0.0129(10) 0.0396(17) 0.0137(13) 0.0233(13) 0.0095(17)
I4 I5+ 0.0193(19) 0.0165(15) 0.0110(12) 0.0013(12) 0.0112(12) 0.0023(16)
#End of data_415820-ICSD


