data_281196-ICSD
#?2014 by Fachinformationszentrum Karlsruhe, and the U.S. Secretary of 
#Commerce on behalf of the United States.  All rights reserved.
_database_code_ICSD                281196
_audit_creation_date               2003/10/01
_audit_update_record               2013/02/01
_chemical_name_systematic
;
Dipotassium Hexaselenoargentotriindate
;
_chemical_formula_structural       'K2 (Ag In3 Se6)'
_chemical_formula_sum              'Ag1 In3 K2 Se6'
_publ_section_title
;
K2 M M'3 Se6 (M = Cu, Ag; M' = Ga, In), a new series of metal 
chalcogenides with chain-sublayer-chain slabs: (infty 1)(M' Se4) - 
(infty 2)((M Se4) (M' Se4)) - (infty 1)(M' Se4)
;
loop_
_citation_id
_citation_journal_abbrev
_citation_year
_citation_journal_volume
_citation_page_first
_citation_page_last
_citation_journal_id_ASTM
primary 'Inorganic Chemistry' 2003 42 1366 1370 INOCAJ
_publ_author_name
;
Ma, H.-W.;Guo, G.-C.;Wang, M.-S.;Zhou, G.-W.;Lin, S.-H.;Dong 
Zhenchao;Huang, J.-S.
;
_cell_length_a                     11.6329(10)
_cell_length_b                     11.587(1)
_cell_length_c                     21.3551(14)
_cell_angle_alpha                  90.
_cell_angle_beta                   98.010(8)
_cell_angle_gamma                  90.
_cell_volume                       2850.38
_cell_formula_units_Z              8
_symmetry_space_group_name_H-M     'C 1 2/c 1'
_symmetry_Int_Tables_number        15
_refine_ls_R_factor_all            .0471
loop_
_symmetry_equiv_pos_site_id
_symmetry_equiv_pos_as_xyz
  1	'x, -y, z+.5'
  2	'-x, -y, -z'
  3	'-x, y, -z+.5'
  4	'x, y, z'
  5	'x+.5, -y+.5, z+.5'
  6	'-x+.5, -y+.5, -z'
  7	'-x+.5, y+.5, -z+.5'
  8	'x+.5, y+.5, z'
loop_
_atom_type_symbol
_atom_type_oxidation_number
Ag1+	1
In3+	3
K1+	1
Se2-	-2
loop_
_atom_site_label
_atom_site_type_symbol
_atom_site_symmetry_multiplicity
_atom_site_Wyckoff_symbol
_atom_site_fract_x
_atom_site_fract_y
_atom_site_fract_z
_atom_site_occupancy
_atom_site_attached_hydrogens
_atom_site_U_iso_or_equiv
In1 In3+ 4 e 0 0.06487(10) 0.75 1. 0 0.0270(2) 
In2 In3+ 4 e 0.5 0.06198(10) 0.75 1. 0 0.0276(2) 
In3 In3+ 8 f 0.53451(4) -.18589(5) 0.88824(2) 1. 0 0.00962(12) 
In4 In3+ 8 f 0.21435(4) 0.06271(5) 0.61254(2) 1. 0 0.00939(12) 
Ag1 Ag1+ 8 f 0.25328(4) -.18693(5) 0.75000(2) 1. 0 0.00512(12) 
Se1 Se2- 8 f 0.36009(6) 0.20106(7) 0.67429(3) 1. 0 0.01066(17) 
Se2 Se2- 8 f 0.65554(6) -.31747(8) 0.82626(3) 1. 0 0.01181(17) 
Se3 Se2- 8 f 0.05173(8) 0.16860(9) 0.53980(4) 1. 0 0.0229(2) 
Se4 Se2- 8 f 0.38240(6) -.05441(7) 0.82624(3) 1. 0 0.01173(16) 
Se5 Se2- 8 f 0.34039(8) -.04180(9) 0.53932(4) 1. 0 0.0230(2) 
Se6 Se2- 8 f 0.10067(6) -.07502(8) 0.67459(3) 1. 0 0.01090(16) 
K1 K1+ 8 f -.15948(16) -.05434(18) 0.58222(9) 1. 0 0.0233(4) 
K2 K1+ 8 f 0.07372(16) -.31826(18) 0.58241(8) 1. 0 0.0235(4) 

loop_
_atom_site_aniso_label
_atom_site_aniso_type_symbol
_atom_site_aniso_U_11
_atom_site_aniso_U_22
_atom_site_aniso_U_33
_atom_site_aniso_U_12
_atom_site_aniso_U_13
_atom_site_aniso_U_23
In1 In3+ 0.0276(5) 0.0301(5) 0.0230(5) 0 0.0028(3) 0
In2 In3+ 0.0283(5) 0.0315(6) 0.0228(5) 0 0.0028(3) 0
In3 In3+ 0.0106(2) 0.0127(3) 0.0053(2) -0.0019(2) 0.00000(17) 0.00008(19)
In4 In3+ 0.0112(2) 0.0118(3) 0.0051(2) 0.0019(2) 0.00059(16) 0.00048(19)
Ag1 Ag1+ 0.0062(2) 0.0082(3) 0.0010(2) 0.0001(2) -0.00019(15) 0.00077(17)
Se1 Se2- 0.0110(3) 0.0143(4) 0.0066(4) 0.0009(3) 0.0008(2) -0.0001(3)
Se2 Se2- 0.0129(3) 0.0142(4) 0.0083(4) -0.0009(3) 0.0017(3) 0.0010(3)
Se3 Se2- 0.0289(4) 0.0277(5) 0.0118(4) 0.0116(4) 0.0017(3) 0.0000(3)
Se4 Se2- 0.0126(3) 0.0140(4) 0.0080(4) -0.0007(3) -0.0007(2) -0.0010(3)
Se5 Se2- 0.0279(5) 0.0300(6) 0.0110(4) 0.0116(4) 0.0021(3) 0.0000(3)
Se6 Se2- 0.0113(3) 0.0145(4) 0.0066(3) 0.0015(3) -0.0002(2) 0.0006(3)
K1 K1+ 0.0261(9) 0.0290(11) 0.0142(9) 0.0102(9) 0.0007(7) 0.0006(8)
K2 K1+ 0.0294(9) 0.0267(11) 0.0146(10) 0.0097(9) 0.0030(7) 0.0000(8)
#End of data_281196-ICSD


