data_186935-ICSD
#?2014 by Fachinformationszentrum Karlsruhe, and the U.S. Secretary of 
#Commerce on behalf of the United States.  All rights reserved.
_database_code_ICSD                186935
_audit_creation_date               2013/08/01
_chemical_name_systematic
;
Lithium Sodium Iron(II) Phosphate Fluoride
;
_chemical_formula_structural       'Li Na Fe (P O4) F'
_chemical_formula_sum              'F1 Fe1 Li1 Na1 O4 P1'
_publ_section_title
;
Synthesis and characterization of the crystal structure, the magnetic 
and the electrochemical properties of the new fluorophosphate Li Na 
Fe (P O4) F
;
loop_
_citation_id
_citation_journal_abbrev
_citation_year
_citation_journal_volume
_citation_journal_issue
_citation_page_first
_citation_page_last
_citation_journal_id_ASTM
primary 'Dalton Transactions' 2012 41 38 11692 11699 DTARAF
_publ_author_name
;
Ben Yahia, Hamdi;Shikano, Masahiro;Sakaebe, Hikari;Koike, 
Shinji;Tabuchi, Mitsuharu;Kobayashi, Hironori;Kawaji, Hitoshi;Avdeev, 
Maxim;Miiller, Wojciech;Ling, Christopher D.
;
_cell_length_a                     10.9851(4)
_cell_length_b                     6.3686(3)
_cell_length_c                     11.4343(4)
_cell_angle_alpha                  90.0
_cell_angle_beta                   90.0
_cell_angle_gamma                  90.0
_cell_volume                       799.94
_cell_formula_units_Z              8
_symmetry_space_group_name_H-M     'P n m a'
_symmetry_Int_Tables_number        62
_refine_ls_R_factor_all            .0192
loop_
_symmetry_equiv_pos_site_id
_symmetry_equiv_pos_as_xyz
  1	'x+.5, y, -z+.5'
  2	'x, -y+.5, z'
  3	'-x+.5, y+.5, z+.5'
  4	'-x, -y, -z'
  5	'-x+.5, -y, z+.5'
  6	'-x, y+.5, -z'
  7	'x+.5, -y+.5, -z+.5'
  8	'x, y, z'
loop_
_atom_type_symbol
_atom_type_oxidation_number
F1-	-1
Fe2+	2
Li1+	1
Na1+	1
O2-	-2
P5+	5
loop_
_atom_site_label
_atom_site_type_symbol
_atom_site_symmetry_multiplicity
_atom_site_Wyckoff_symbol
_atom_site_fract_x
_atom_site_fract_y
_atom_site_fract_z
_atom_site_occupancy
_atom_site_attached_hydrogens
_atom_site_U_iso_or_equiv
Na1 Na1+ 8 d 0.2273(11) 0.018(2) 0.3463(8) 1.0 0 0.021(4) 
Li1 Li1+ 4 c 0.286(3) 0.25 0.551(2) 1.0 0 0.021(4) 
Li2 Li1+ 4 c 0.444(3) 0.25 0.212(3) 1.0 0 0.021(4) 
Fe1 Fe2+ 4 a 0.0 0.0 0.0 1.0 0 0.0130(16) 
Fe2 Fe2+ 4 b 0.0 0.0 0.5 1.0 0 0.0023(18) 
P1 P5+ 4 c 0.0328(11) 0.25 0.7384(13) 1.0 0 0.030(4) 
P2 P5+ 4 c 0.2501(16) 0.25 0.0704(11) 1.0 0 0.034(4) 
O1 O2- 8 d 0.1798(6) 0.0527(10) 0.0375(5) 1.0 0 0.014(2) 
O2 O2- 4 c 0.2662(12) 0.25 0.2099(8) 1.0 0 0.039(4) 
O3 O2- 4 c 0.1756(11) 0.25 0.7397(14) 1.0 0 0.056(5) 
O4 O2- 4 c 0.3743(8) 0.25 0.0171(9) 1.0 0 0.006(3) 
O5 O2- 4 c 0.4942(11) 0.25 0.6317(9) 1.0 0 0.021(3) 
O6 O2- 8 d 0.0034(7) 0.5482(9) 0.3180(4) 1.0 0 0.0023(19) 
F1 F1- 4 c 0.1316(9) 0.25 0.4668(10) 1.0 0 0.026(4) 
F2 F1- 4 c 0.4345(9) 0.25 0.3987(9) 1.0 0 0.006(3) 

#End of data_186935-ICSD


