data_34079-ICSD
#?2014 by Fachinformationszentrum Karlsruhe, and the U.S. Secretary of 
#Commerce on behalf of the United States.  All rights reserved.
_database_code_ICSD                34079
_audit_creation_date               1980/01/01
_chemical_name_systematic          'Lithium Yttrium Silicate'
_chemical_formula_structural       'Li Y Si O4'
_chemical_formula_sum              'Li1 O4 Si1 Y1'
_publ_section_title
;
Kristallicheskaya struktura Li Y Si O4
;
loop_
_citation_id
_citation_journal_abbrev
_citation_year
_citation_journal_volume
_citation_page_first
_citation_page_last
_citation_journal_id_ASTM
primary 'Doklady Akademii Nauk SSSR' 1976 230 331 333 DANKAS
_publ_author_name
;
Nikol'skii, Yu.V.
;
_cell_length_a                     5.368(5)
_cell_length_b                     10.806(6)
_cell_length_c                     6.191(5)
_cell_angle_alpha                  90.
_cell_angle_beta                   90.
_cell_angle_gamma                  113.40(2)
_cell_volume                       329.58
_cell_formula_units_Z              4
_symmetry_space_group_name_H-M     'P 1 1 21/b'
_symmetry_Int_Tables_number        14
_refine_ls_R_factor_all            .117
loop_
_symmetry_equiv_pos_site_id
_symmetry_equiv_pos_as_xyz
  1	'x, y+.5, -z+.5'
  2	'-x, -y, -z'
  3	'-x, -y+.5, z+.5'
  4	'x, y, z'
loop_
_atom_type_symbol
_atom_type_oxidation_number
Li1+	1
O2-	-2
Si4+	4
Y3+	3
loop_
_atom_site_label
_atom_site_type_symbol
_atom_site_symmetry_multiplicity
_atom_site_Wyckoff_symbol
_atom_site_fract_x
_atom_site_fract_y
_atom_site_fract_z
_atom_site_occupancy
_atom_site_attached_hydrogens
Y1 Y3+ 4 e 0.4454(2) 0.1525(1) 0.1166(2) 1. 0 
Si1 Si4+ 4 e 0.0962(6) 0.8591(3) 0.1540(6) 1. 0 
O1 O2- 4 e 0.796(2) 0.277(1) 0.357(1) 1. 0 
O2 O2- 4 e 0.222(2) 0.444(2) 0.569(1) 1. 0 
O3 O2- 4 e 0.760(2) 0.748(1) 0.663(1) 1. 0 
O4 O2- 4 e 0.185(2) 0.975(1) 0.338(1) 1. 0 
Li1 Li1+ 4 e 0.915(6) 0.068(3) 0.369(2) 1. 0 

#End of data_34079-ICSD


