data_280307-ICSD
#?2014 by Fachinformationszentrum Karlsruhe, and the U.S. Secretary of 
#Commerce on behalf of the United States.  All rights reserved.
_database_code_ICSD                280307
_audit_creation_date               2002/04/01
_chemical_name_systematic          'Aluminum Phosphate(V)'
_chemical_formula_structural       'Al (P O4)'
_chemical_formula_sum              'Al1 O4 P1'
_publ_section_title
;
Two Forms of aluminium phosphate tridymite from X-ray powder data
;
loop_
_citation_id
_citation_journal_abbrev
_citation_year
_citation_journal_volume
_citation_page_first
_citation_page_last
_citation_journal_id_ASTM
primary 'Acta Crystallographica, Section C: Crystal Structure Communications'
 2000 56 401 403 ACSCEE
_publ_author_name                  'Graetsch, H.'
_cell_length_a                     10.0132(4)
_cell_length_b                     17.36349(60)
_cell_length_c                     82.4960(30)
_cell_angle_alpha                  90.006(8)
_cell_angle_beta                   90.026(4)
_cell_angle_gamma                  89.983(5)
_cell_volume                       14343.09
_cell_formula_units_Z              160
_symmetry_space_group_name_H-M     'F 1'
_symmetry_Int_Tables_number        1
_refine_ls_R_factor_all            .0332
loop_
_symmetry_equiv_pos_site_id
_symmetry_equiv_pos_as_xyz
  1	'x, y, z'
  2	'x, y+.5, z+.5'
  3	'x+.5, y, z+.5'
  4	'x+.5, y+.5, z'
loop_
_atom_type_symbol
_atom_type_oxidation_number
Al3+	3
O2-	-2
P5+	5
loop_
_atom_site_label
_atom_site_type_symbol
_atom_site_symmetry_multiplicity
_atom_site_Wyckoff_symbol
_atom_site_fract_x
_atom_site_fract_y
_atom_site_fract_z
_atom_site_occupancy
_atom_site_attached_hydrogens
_atom_site_U_iso_or_equiv
Al1 Al3+ 4 a 0.06049 0.03633 0.03414 1. 0 0.0232(4) 
Al2 Al3+ 4 a 0.5757(15) 0.0172(11) 0.03520(19) 1. 0 0.0232(4) 
Al3 Al3+ 4 a 0.2997(16) 0.2692(8) 0.03020(16) 1. 0 0.0232(4) 
Al4 Al3+ 4 a 0.7675(18) 0.2910(7) 0.02901(18) 1. 0 0.0232(4) 
Al5 Al3+ 4 a 0.0315(18) 0.1982(10) 0.07922(17) 1. 0 0.0232(4) 
Al6 Al3+ 4 a 0.5327(17) 0.1982(11) 0.08159(18) 1. 0 0.0232(4) 
Al7 Al3+ 4 a 0.3033(19) 0.4363(11) 0.08490(16) 1. 0 0.0232(4) 
Al8 Al3+ 4 a 0.807(2) 0.4374(11) 0.08388(17) 1. 0 0.0232(4) 
Al9 Al3+ 4 a 0.1286(19) 0.0435(11) 0.1293(2) 1. 0 0.0232(4) 
Al10 Al3+ 4 a 0.6316(18) 0.0425(12) 0.13086(18) 1. 0 0.0232(4) 
Al11 Al3+ 4 a 0.302(2) 0.2784(13) 0.13453(18) 1. 0 0.0232(4) 
Al12 Al3+ 4 a 0.8076(19) 0.2847(13) 0.13470(18) 1. 0 0.0232(4) 
Al13 Al3+ 4 a 0.030(2) 0.2075(12) 0.18569(19) 1. 0 0.0232(4) 
Al14 Al3+ 4 a 0.545(2) 0.1737(11) 0.18511(18) 1. 0 0.0232(4) 
Al15 Al3+ 4 a 0.334(2) 0.4367(10) 0.1783(2) 1. 0 0.0232(4) 
Al16 Al3+ 4 a 0.800(2) 0.4590(12) 0.17974(18) 1. 0 0.0232(4) 
Al17 Al3+ 4 a 0.125(2) 0.0270(12) 0.2322(2) 1. 0 0.0232(4) 
Al18 Al3+ 4 a 0.627(2) 0.0240(12) 0.2326(2) 1. 0 0.0232(4) 
Al19 Al3+ 4 a 0.289(2) 0.2938(11) 0.23313(19) 1. 0 0.0232(4) 
Al20 Al3+ 4 a 0.784(2) 0.2886(11) 0.2331(2) 1. 0 0.0232(4) 
Al21 Al3+ 4 a -.016(2) 0.1929(11) 0.2780(2) 1. 0 0.0232(4) 
Al22 Al3+ 4 a 0.479(2) 0.1909(11) 0.27885(19) 1. 0 0.0232(4) 
Al23 Al3+ 4 a 0.302(2) 0.4464(13) 0.28590(18) 1. 0 0.0232(4) 
Al24 Al3+ 4 a 0.810(2) 0.4431(12) 0.2849(2) 1. 0 0.0232(4) 
Al25 Al3+ 4 a 0.070(2) 0.0357(12) 0.3339(2) 1. 0 0.0232(4) 
Al26 Al3+ 4 a 0.595(2) 0.0239(13) 0.33441(18) 1. 0 0.0232(4) 
Al27 Al3+ 4 a 0.2997(19) 0.2516(11) 0.3308(2) 1. 0 0.0232(4) 
Al28 Al3+ 4 a 0.777(2) 0.2812(12) 0.3302(2) 1. 0 0.0232(4) 
Al29 Al3+ 4 a 0.0424(19) 0.2030(13) 0.38425(18) 1. 0 0.0232(4) 
Al30 Al3+ 4 a 0.546(2) 0.1977(13) 0.38475(19) 1. 0 0.0232(4) 
Al31 Al3+ 4 a 0.3750(18) 0.4405(12) 0.3798(2) 1. 0 0.0232(4) 
Al32 Al3+ 4 a 0.8739(19) 0.4441(12) 0.37885(18) 1. 0 0.0232(4) 
Al33 Al3+ 4 a 0.076(2) 0.0448(11) 0.42886(15) 1. 0 0.0232(4) 
Al34 Al3+ 4 a 0.5456(19) 0.0167(12) 0.4309(2) 1. 0 0.0232(4) 
Al35 Al3+ 4 a 0.296(2) 0.3053(11) 0.43474(17) 1. 0 0.0232(4) 
Al36 Al3+ 4 a 0.7721(19) 0.2763(13) 0.43386(17) 1. 0 0.0232(4) 
Al37 Al3+ 4 a 0.0122(19) 0.1853(12) 0.48152(17) 1. 0 0.0232(4) 
Al38 Al3+ 4 a 0.5269(19) 0.1965(12) 0.48214(16) 1. 0 0.0232(4) 
Al39 Al3+ 4 a 0.3650(17) 0.4484(12) 0.48345(17) 1. 0 0.0232(4) 
Al40 Al3+ 4 a 0.8579(17) 0.4527(12) 0.48264(17) 1. 0 0.0232(4) 
P1 P5+ 4 a 0.0202(15) 0.1969(5) 0.02014(17) 1. 0 0.0232(4) 
P2 P5+ 4 a 0.5389(18) 0.1795(10) 0.01865(17) 1. 0 0.0232(4) 
P3 P5+ 4 a 0.3268(10) 0.4356(7) 0.01971(15) 1. 0 0.0232(4) 
P4 P5+ 4 a 0.8122(11) 0.4635(9) 0.02071(17) 1. 0 0.0232(4) 
P5 P5+ 4 a 0.0537(19) 0.0241(10) 0.07248(9) 1. 0 0.0232(4) 
P6 P5+ 4 a 0.554(2) 0.0284(11) 0.0727(2) 1. 0 0.0232(4) 
P7 P5+ 4 a 0.2840(17) 0.2781(11) 0.06730(15) 1. 0 0.0232(4) 
P8 P5+ 4 a 0.7766(18) 0.2748(11) 0.06700(17) 1. 0 0.0232(4) 
P9 P5+ 4 a 0.053(2) 0.2092(13) 0.11674(17) 1. 0 0.0232(4) 
P10 P5+ 4 a 0.555(2) 0.2089(13) 0.11910(17) 1. 0 0.0232(4) 
P11 P5+ 4 a 0.3796(19) 0.4451(11) 0.12281(17) 1. 0 0.0232(4) 
P12 P5+ 4 a 0.8810(18) 0.4490(11) 0.12156(19) 1. 0 0.0232(4) 
P13 P5+ 4 a 0.058(2) 0.0523(11) 0.1671(2) 1. 0 0.0232(4) 
P14 P5+ 4 a 0.572(2) 0.0188(12) 0.16748(18) 1. 0 0.0232(4) 
P15 P5+ 4 a 0.3037(19) 0.2616(11) 0.1716(2) 1. 0 0.0232(4) 
P16 P5+ 4 a 0.777(2) 0.2862(11) 0.17296(19) 1. 0 0.0232(4) 
P17 P5+ 4 a 0.037(2) 0.1982(11) 0.2237(2) 1. 0 0.0232(4) 
P18 P5+ 4 a 0.530(2) 0.1936(11) 0.22307(19) 1. 0 0.0232(4) 
P19 P5+ 4 a 0.375(2) 0.4539(12) 0.21658(19) 1. 0 0.0232(4) 
P20 P5+ 4 a 0.875(2) 0.4505(12) 0.21783(17) 1. 0 0.0232(4) 
P21 P5+ 4 a 0.058(2) 0.0190(12) 0.2692(2) 1. 0 0.0232(4) 
P22 P5+ 4 a 0.560(2) 0.0203(12) 0.26936(19) 1. 0 0.0232(4) 
P23 P5+ 4 a 0.233(2) 0.2883(11) 0.27014(19) 1. 0 0.0232(4) 
P24 P5+ 4 a 0.733(2) 0.2842(11) 0.2703(2) 1. 0 0.0232(4) 
P25 P5+ 4 a 0.024(2) 0.1908(12) 0.31706(19) 1. 0 0.0232(4) 
P26 P5+ 4 a 0.549(2) 0.1759(12) 0.31664(17) 1. 0 0.0232(4) 
P27 P5+ 4 a 0.349(2) 0.4289(11) 0.3232(2) 1. 0 0.0232(4) 
P28 P5+ 4 a 0.826(2) 0.4564(13) 0.3227(2) 1. 0 0.0232(4) 
P29 P5+ 4 a 0.1209(19) 0.0377(12) 0.3718(2) 1. 0 0.0232(4) 
P30 P5+ 4 a 0.6275(19) 0.0375(12) 0.37072(19) 1. 0 0.0232(4) 
P31 P5+ 4 a 0.2964(19) 0.2727(13) 0.36849(19) 1. 0 0.0232(4) 
P32 P5+ 4 a 0.790(2) 0.2757(13) 0.36780(19) 1. 0 0.0232(4) 
P33 P5+ 4 a 0.0503(18) 0.2206(12) 0.42176(18) 1. 0 0.0232(4) 
P34 P5+ 4 a 0.5205(19) 0.1906(11) 0.4229(2) 1. 0 0.0232(4) 
P35 P5+ 4 a 0.322(2) 0.4603(12) 0.41716(17) 1. 0 0.0232(4) 
P36 P5+ 4 a 0.805(2) 0.4321(12) 0.41686(17) 1. 0 0.0232(4) 
P37 P5+ 4 a 0.1037(19) 0.0196(12) 0.46720(14) 1. 0 0.0232(4) 
P38 P5+ 4 a 0.6151(16) 0.0302(12) 0.46913(19) 1. 0 0.0232(4) 
P39 P5+ 4 a 0.2685(18) 0.2842(12) 0.47221(17) 1. 0 0.0232(4) 
P40 P5+ 4 a 0.775(2) 0.2855(12) 0.47118(17) 1. 0 0.0232(4) 
O1 O2- 4 a 0.0931(17) 0.0291(10) 0.05470(6) 1. 0 0.0232(4) 
O2 O2- 4 a 0.596(2) 0.0446(13) 0.0553(2) 1. 0 0.0232(4) 
O3 O2- 4 a 0.260(2) 0.2995(13) 0.04965(15) 1. 0 0.0232(4) 
O4 O2- 4 a 0.731(2) 0.2853(14) 0.04953(17) 1. 0 0.0232(4) 
O5 O2- 4 a 0.018(2) 0.2280(12) 0.09919(17) 1. 0 0.0232(4) 
O6 O2- 4 a 0.516(2) 0.2264(13) 0.10163(17) 1. 0 0.0232(4) 
O7 O2- 4 a 0.340(2) 0.4290(12) 0.10535(17) 1. 0 0.0232(4) 
O8 O2- 4 a 0.851(2) 0.4270(13) 0.10408(19) 1. 0 0.0232(4) 
O9 O2- 4 a 0.102(2) 0.0641(12) 0.1496(2) 1. 0 0.0232(4) 
O10 O2- 4 a 0.594(2) 0.0576(13) 0.15115(18) 1. 0 0.0232(4) 
O11 O2- 4 a 0.251(2) 0.2623(13) 0.1543(2) 1. 0 0.0232(4) 
O12 O2- 4 a 0.783(2) 0.2649(12) 0.15510(19) 1. 0 0.0232(4) 
O13 O2- 4 a 0.007(2) 0.1832(13) 0.20588(19) 1. 0 0.0232(4) 
O14 O2- 4 a 0.497(2) 0.1809(13) 0.20525(19) 1. 0 0.0232(4) 
O15 O2- 4 a 0.340(3) 0.4599(13) 0.19867(19) 1. 0 0.0232(4) 
O16 O2- 4 a 0.852(2) 0.4598(13) 0.19973(18) 1. 0 0.0232(4) 
O17 O2- 4 a 0.100(2) -.0031(12) 0.2520(2) 1. 0 0.0232(4) 
O18 O2- 4 a 0.620(2) -.0008(12) 0.2530(2) 1. 0 0.0232(4) 
O19 O2- 4 a 0.269(2) 0.3188(11) 0.25337(19) 1. 0 0.0232(4) 
O20 O2- 4 a 0.756(2) 0.3141(12) 0.25315(19) 1. 0 0.0232(4) 
O21 O2- 4 a -.002(2) 0.1900(14) 0.2989(2) 1. 0 0.0232(4) 
O22 O2- 4 a 0.489(2) 0.1803(13) 0.29970(19) 1. 0 0.0232(4) 
O23 O2- 4 a 0.352(2) 0.4589(13) 0.30589(19) 1. 0 0.0232(4) 
O24 O2- 4 a 0.861(2) 0.4578(14) 0.3047(2) 1. 0 0.0232(4) 
O25 O2- 4 a 0.082(3) 0.0566(13) 0.3544(2) 1. 0 0.0232(4) 
O26 O2- 4 a 0.599(2) 0.0657(13) 0.35351(19) 1. 0 0.0232(4) 
O27 O2- 4 a 0.254(2) 0.2579(14) 0.3510(2) 1. 0 0.0232(4) 
O28 O2- 4 a 0.746(2) 0.2594(13) 0.3504(2) 1. 0 0.0232(4) 
O29 O2- 4 a -.001(2) 0.2172(14) 0.40441(18) 1. 0 0.0232(4) 
O30 O2- 4 a 0.509(2) 0.2125(13) 0.4051(2) 1. 0 0.0232(4) 
O31 O2- 4 a 0.338(2) 0.4274(13) 0.40020(19) 1. 0 0.0232(4) 
O32 O2- 4 a 0.856(3) 0.4310(13) 0.39953(18) 1. 0 0.0232(4) 
O33 O2- 4 a 0.074(2) 0.0186(14) 0.44910(15) 1. 0 0.0232(4) 
O34 O2- 4 a 0.592(2) 0.0169(13) 0.4511(2) 1. 0 0.0232(4) 
O35 O2- 4 a 0.242(2) 0.3071(13) 0.45470(18) 1. 0 0.0232(4) 
O36 O2- 4 a 0.739(2) 0.3046(14) 0.45366(18) 1. 0 0.0232(4) 
O37 O2- 4 a -.026(2) 0.1780(13) 0.50199(16) 1. 0 0.0232(4) 
O38 O2- 4 a 0.494(2) 0.1783(13) 0.50240(16) 1. 0 0.0232(4) 
O39 O2- 4 a 0.3710(18) 0.4734(12) 0.50382(17) 1. 0 0.0232(4) 
O40 O2- 4 a 0.819(2) 0.4708(11) 0.50283(16) 1. 0 0.0232(4) 
O41 O2- 4 a -.0490(15) -.0358(7) 0.0284(2) 1. 0 0.0232(4) 
O42 O2- 4 a 0.2087(11) 0.0266(8) 0.0235(2) 1. 0 0.0232(4) 
O43 O2- 4 a 0.4236(13) -.0295(14) 0.0332(2) 1. 0 0.0232(4) 
O44 O2- 4 a 0.7037(15) -.0443(14) 0.0296(3) 1. 0 0.0232(4) 
O45 O2- 4 a -.0100(13) 0.1257(5) 0.0303(2) 1. 0 0.0232(4) 
O46 O2- 4 a 0.580(3) 0.0979(11) 0.0230(2) 1. 0 0.0232(4) 
O47 O2- 4 a -.069(2) 0.2630(6) 0.0256(3) 1. 0 0.0232(4) 
O48 O2- 4 a 0.1663(17) 0.2186(9) 0.0222(3) 1. 0 0.0232(4) 
O49 O2- 4 a 0.439(2) 0.2097(14) 0.03101(17) 1. 0 0.0232(4) 
O50 O2- 4 a 0.661(2) 0.2311(12) 0.0183(2) 1. 0 0.0232(4) 
O51 O2- 4 a 0.335(2) 0.3481(7) 0.01806(18) 1. 0 0.0232(4) 
O52 O2- 4 a 0.7463(19) 0.3850(8) 0.0223(3) 1. 0 0.0232(4) 
O53 O2- 4 a -.054(2) -.0371(11) 0.0744(3) 1. 0 0.0232(4) 
O54 O2- 4 a 0.177(2) 0.0033(14) 0.08230(14) 1. 0 0.0232(4) 
O55 O2- 4 a 0.445(3) -.0331(12) 0.0729(3) 1. 0 0.0232(4) 
O56 O2- 4 a 0.676(2) 0.0025(15) 0.0822(3) 1. 0 0.0232(4) 
O57 O2- 4 a -.005(2) 0.1007(10) 0.0780(2) 1. 0 0.0232(4) 
O58 O2- 4 a 0.494(2) 0.1012(11) 0.0800(3) 1. 0 0.0232(4) 
O59 O2- 4 a -.0770(18) 0.2512(14) 0.0673(2) 1. 0 0.0232(4) 
O60 O2- 4 a 0.1929(18) 0.2118(12) 0.0722(3) 1. 0 0.0232(4) 
O61 O2- 4 a 0.4281(18) 0.2527(14) 0.0694(2) 1. 0 0.0232(4) 
O62 O2- 4 a 0.6957(18) 0.2113(13) 0.0751(3) 1. 0 0.0232(4) 
O63 O2- 4 a 0.252(2) 0.3467(13) 0.0780(2) 1. 0 0.0232(4) 
O64 O2- 4 a 0.755(2) 0.3489(13) 0.0764(3) 1. 0 0.0232(4) 
O65 O2- 4 a 0.0262(18) -.0322(13) 0.1235(3) 1. 0 0.0232(4) 
O66 O2- 4 a 0.2938(19) 0.0170(13) 0.1265(3) 1. 0 0.0232(4) 
O67 O2- 4 a 0.5273(18) -.0282(14) 0.1231(3) 1. 0 0.0232(4) 
O68 O2- 4 a 0.7958(18) 0.0116(14) 0.1293(2) 1. 0 0.0232(4) 
O69 O2- 4 a 0.093(3) 0.1248(13) 0.1179(2) 1. 0 0.0232(4) 
O70 O2- 4 a 0.611(3) 0.1275(14) 0.1202(2) 1. 0 0.0232(4) 
O71 O2- 4 a -.066(3) 0.2254(17) 0.1275(2) 1. 0 0.0232(4) 
O72 O2- 4 a 0.170(3) 0.2607(17) 0.1216(3) 1. 0 0.0232(4) 
O73 O2- 4 a 0.433(3) 0.2167(16) 0.1300(2) 1. 0 0.0232(4) 
O74 O2- 4 a 0.662(2) 0.2669(16) 0.1241(3) 1. 0 0.0232(4) 
O75 O2- 4 a 0.355(3) 0.3731(13) 0.1329(2) 1. 0 0.0232(4) 
O76 O2- 4 a 0.852(3) 0.3805(13) 0.1325(2) 1. 0 0.0232(4) 
O77 O2- 4 a -.047(3) -.0108(15) 0.1679(3) 1. 0 0.0232(4) 
O78 O2- 4 a 0.179(3) 0.0295(12) 0.1773(3) 1. 0 0.0232(4) 
O79 O2- 4 a 0.435(2) -.0196(18) 0.1675(2) 1. 0 0.0232(4) 
O80 O2- 4 a 0.678(3) -.0427(12) 0.1703(3) 1. 0 0.0232(4) 
O81 O2- 4 a 0.002(3) 0.1276(14) 0.1736(3) 1. 0 0.0232(4) 
O82 O2- 4 a 0.584(3) 0.0784(12) 0.18091(19) 1. 0 0.0232(4) 
O83 O2- 4 a -.085(2) 0.2784(12) 0.1805(3) 1. 0 0.0232(4) 
O84 O2- 4 a 0.190(2) 0.2424(19) 0.1832(2) 1. 0 0.0232(4) 
O85 O2- 4 a 0.412(3) 0.2000(12) 0.1728(2) 1. 0 0.0232(4) 
O86 O2- 4 a 0.680(3) 0.2332(15) 0.1816(2) 1. 0 0.0232(4) 
O87 O2- 4 a 0.365(2) 0.3391(11) 0.1758(3) 1. 0 0.0232(4) 
O88 O2- 4 a 0.734(2) 0.3700(12) 0.1747(3) 1. 0 0.0232(4) 
O89 O2- 4 a 0.021(2) -.0241(16) 0.2193(3) 1. 0 0.0232(4) 
O90 O2- 4 a 0.290(2) 0.0088(14) 0.2269(2) 1. 0 0.0232(4) 
O91 O2- 4 a 0.522(2) -.0353(16) 0.2216(3) 1. 0 0.0232(4) 
O92 O2- 4 a 0.789(2) 0.0114(14) 0.2259(2) 1. 0 0.0232(4) 
O93 O2- 4 a 0.094(3) 0.1249(13) 0.2310(3) 1. 0 0.0232(4) 
O94 O2- 4 a 0.580(3) 0.1192(13) 0.2305(3) 1. 0 0.0232(4) 
O95 O2- 4 a -.093(2) 0.2185(13) 0.2323(3) 1. 0 0.0232(4) 
O96 O2- 4 a 0.137(2) 0.2638(13) 0.2253(3) 1. 0 0.0232(4) 
O97 O2- 4 a 0.404(2) 0.2192(13) 0.2319(2) 1. 0 0.0232(4) 
O98 O2- 4 a 0.638(2) 0.2550(15) 0.2246(3) 1. 0 0.0232(4) 
O99 O2- 4 a 0.349(3) 0.3726(13) 0.2225(2) 1. 0 0.0232(4) 
O100 O2- 4 a 0.837(3) 0.3691(13) 0.2226(2) 1. 0 0.0232(4) 
O101 O2- 4 a -.069(3) -.0262(18) 0.2732(3) 1. 0 0.0232(4) 
O102 O2- 4 a 0.169(3) -.0018(16) 0.2810(3) 1. 0 0.0232(4) 
O103 O2- 4 a 0.437(3) -.0300(18) 0.2719(3) 1. 0 0.0232(4) 
O104 O2- 4 a 0.663(3) 0.0039(16) 0.2824(2) 1. 0 0.0232(4) 
O105 O2- 4 a 0.031(3) 0.1050(13) 0.2699(3) 1. 0 0.0232(4) 
O106 O2- 4 a 0.521(3) 0.1048(13) 0.2695(3) 1. 0 0.0232(4) 
O107 O2- 4 a -.180(2) 0.2130(12) 0.2729(3) 1. 0 0.0232(4) 
O108 O2- 4 a 0.087(2) 0.2655(14) 0.2706(3) 1. 0 0.0232(4) 
O109 O2- 4 a 0.318(2) 0.2171(13) 0.2738(3) 1. 0 0.0232(4) 
O110 O2- 4 a 0.588(2) 0.2629(14) 0.2726(3) 1. 0 0.0232(4) 
O111 O2- 4 a 0.262(3) 0.3505(13) 0.2827(2) 1. 0 0.0232(4) 
O112 O2- 4 a 0.773(3) 0.3463(12) 0.2824(2) 1. 0 0.0232(4) 
O113 O2- 4 a -.021(3) -.0484(13) 0.3315(2) 1. 0 0.0232(4) 
O114 O2- 4 a 0.229(3) 0.0223(13) 0.3261(3) 1. 0 0.0232(4) 
O115 O2- 4 a 0.452(3) -.0310(18) 0.3326(2) 1. 0 0.0232(4) 
O116 O2- 4 a 0.733(3) -.0360(14) 0.3324(3) 1. 0 0.0232(4) 
O117 O2- 4 a -.006(2) 0.1115(13) 0.3240(3) 1. 0 0.0232(4) 
O118 O2- 4 a 0.600(3) 0.0946(15) 0.3197(2) 1. 0 0.0232(4) 
O119 O2- 4 a -.064(2) 0.2509(14) 0.3251(3) 1. 0 0.0232(4) 
O120 O2- 4 a 0.170(2) 0.2107(15) 0.3198(2) 1. 0 0.0232(4) 
O121 O2- 4 a 0.441(2) 0.1939(13) 0.3291(2) 1. 0 0.0232(4) 
O122 O2- 4 a 0.662(3) 0.2339(18) 0.3181(2) 1. 0 0.0232(4) 
O123 O2- 4 a 0.336(3) 0.3418(11) 0.3231(3) 1. 0 0.0232(4) 
O124 O2- 4 a 0.763(2) 0.3797(13) 0.3272(3) 1. 0 0.0232(4) 
O125 O2- 4 a 0.0400(18) -.0309(14) 0.3778(3) 1. 0 0.0232(4) 
O126 O2- 4 a 0.2686(18) 0.0177(14) 0.3725(3) 1. 0 0.0232(4) 
O127 O2- 4 a 0.5375(19) -.0307(14) 0.3746(3) 1. 0 0.0232(4) 
O128 O2- 4 a 0.7725(18) 0.0119(14) 0.3720(3) 1. 0 0.0232(4) 
O129 O2- 4 a 0.092(3) 0.1078(14) 0.3822(2) 1. 0 0.0232(4) 
O130 O2- 4 a 0.599(3) 0.1034(14) 0.3824(2) 1. 0 0.0232(4) 
O131 O2- 4 a -.094(2) 0.2228(17) 0.3721(2) 1. 0 0.0232(4) 
O132 O2- 4 a 0.175(2) 0.2633(17) 0.3794(3) 1. 0 0.0232(4) 
O133 O2- 4 a 0.405(2) 0.2152(16) 0.3732(3) 1. 0 0.0232(4) 
O134 O2- 4 a 0.673(2) 0.2604(17) 0.3791(3) 1. 0 0.0232(4) 
O135 O2- 4 a 0.350(3) 0.3545(13) 0.3697(2) 1. 0 0.0232(4) 
O136 O2- 4 a 0.833(3) 0.3594(13) 0.3689(2) 1. 0 0.0232(4) 
O137 O2- 4 a -.077(2) 0.0244(12) 0.4199(2) 1. 0 0.0232(4) 
O138 O2- 4 a 0.200(3) -.0053(17) 0.4188(2) 1. 0 0.0232(4) 
O139 O2- 4 a 0.422(3) -.0520(13) 0.4282(2) 1. 0 0.0232(4) 
O140 O2- 4 a 0.682(2) -.0071(19) 0.4190(2) 1. 0 0.0232(4) 
O141 O2- 4 a 0.105(3) 0.1430(12) 0.4271(3) 1. 0 0.0232(4) 
O142 O2- 4 a 0.485(2) 0.1061(12) 0.4253(3) 1. 0 0.0232(4) 
O143 O2- 4 a -.0638(19) 0.245(2) 0.4328(2) 1. 0 0.0232(4) 
O144 O2- 4 a 0.163(2) 0.2794(12) 0.4224(2) 1. 0 0.0232(4) 
O145 O2- 4 a 0.426(2) 0.2406(16) 0.4328(2) 1. 0 0.0232(4) 
O146 O2- 4 a 0.664(2) 0.2025(12) 0.4286(3) 1. 0 0.0232(4) 
O147 O2- 4 a 0.348(3) 0.3973(13) 0.4296(2) 1. 0 0.0232(4) 
O148 O2- 4 a 0.746(3) 0.3537(15) 0.4210(2) 1. 0 0.0232(4) 
O149 O2- 4 a 0.0240(19) -.0448(13) 0.47528(19) 1. 0 0.0232(4) 
O150 O2- 4 a 0.2517(19) 0.0053(16) 0.4703(2) 1. 0 0.0232(4) 
O151 O2- 4 a 0.5219(18) -.0206(15) 0.4790(3) 1. 0 0.0232(4) 
O152 O2- 4 a 0.7591(17) 0.0108(16) 0.4733(3) 1. 0 0.0232(4) 
O153 O2- 4 a 0.062(3) 0.0966(13) 0.4743(3) 1. 0 0.0232(4) 
O154 O2- 4 a 0.587(2) 0.1141(13) 0.4730(3) 1. 0 0.0232(4) 
O155 O2- 4 a -.130(2) 0.2172(13) 0.4714(2) 1. 0 0.0232(4) 
O156 O2- 4 a 0.141(2) 0.2509(15) 0.4793(2) 1. 0 0.0232(4) 
O157 O2- 4 a 0.380(2) 0.2250(15) 0.4727(2) 1. 0 0.0232(4) 
O158 O2- 4 a 0.647(2) 0.2678(13) 0.4805(3) 1. 0 0.0232(4) 
O159 O2- 4 a 0.308(3) 0.3547(13) 0.4819(2) 1. 0 0.0232(4) 
O160 O2- 4 a 0.842(3) 0.3551(13) 0.4788(2) 1. 0 0.0232(4) 

#End of data_280307-ICSD


