data_249966-ICSD
#?2014 by Fachinformationszentrum Karlsruhe, and the U.S. Secretary of 
#Commerce on behalf of the United States.  All rights reserved.
_database_code_ICSD                249966
_audit_creation_date               2010/08/01
_chemical_name_systematic
;
Potassium Copper(I) Neptunium(IV) Trisulfide
;
_chemical_formula_structural       'K Cu Np S3'
_chemical_formula_sum              'Cu1 K1 Np1 S3'
_publ_section_title
;
Quaternary neptunium compounds: Syntheses and characterization of K 
Cu Np S3, Rb Cu Np S3, Cs Cu Np S3, K Ag Np S3, and Cs Ag Np S3
;
loop_
_citation_id
_citation_journal_abbrev
_citation_year
_citation_journal_volume
_citation_journal_issue
_citation_page_first
_citation_page_last
_citation_journal_id_ASTM
primary 'Inorganic Chemistry' 2009 48 24 11513 11517 INOCAJ
_publ_author_name
;
Wells, D.M.;Jin Geng Bang;Skanthakumar, S.;Haire, R.G.;Soderholm, 
L.;Ibers, J.
;
_cell_length_a                     3.9616(8)
_cell_length_b                     13.862(3)
_cell_length_c                     10.234(2)
_cell_angle_alpha                  90.00
_cell_angle_beta                   90.00
_cell_angle_gamma                  90.00
_cell_volume                       562.01
_cell_formula_units_Z              4
_symmetry_space_group_name_H-M     'C m c m'
_symmetry_Int_Tables_number        63
_refine_ls_R_factor_all            .0157
loop_
_symmetry_equiv_pos_site_id
_symmetry_equiv_pos_as_xyz
  1	'-x, y, -z+.5'
  2	'-x, -y, z+.5'
  3	'-x, y, z'
  4	'-x, -y, -z'
  5	'x, -y, z+.5'
  6	'x, y, -z+.5'
  7	'x, -y, -z'
  8	'x, y, z'
  9	'-x+.5, y+.5, -z+.5'
 10	'-x+.5, -y+.5, z+.5'
 11	'-x+.5, y+.5, z'
 12	'-x+.5, -y+.5, -z'
 13	'x+.5, -y+.5, z+.5'
 14	'x+.5, y+.5, -z+.5'
 15	'x+.5, -y+.5, -z'
 16	'x+.5, y+.5, z'
loop_
_atom_type_symbol
_atom_type_oxidation_number
Cu1+	1
K1+	1
Np4+	4
S2-	-2
loop_
_atom_site_label
_atom_site_type_symbol
_atom_site_symmetry_multiplicity
_atom_site_Wyckoff_symbol
_atom_site_fract_x
_atom_site_fract_y
_atom_site_fract_z
_atom_site_occupancy
_atom_site_attached_hydrogens
_atom_site_U_iso_or_equiv
K1 K1+ 4 c 0.0000 0.74280(8) 0.2500 1 0 0.0239(2) 
Cu1 Cu1+ 4 c 0.0000 0.46573(5) 0.2500 1 0 0.01525(13) 
Np1 Np4+ 4 a 0.0000 0.0000 0.0000 1 0 0.00878(7) 
S1 S2- 4 c 0.0000 0.06312(8) 0.2500 1 0 0.01074(19) 
S2 S2- 8 f 0.0000 0.37473(5) 0.06011(7) 1 0 0.01155(15) 

loop_
_atom_site_aniso_label
_atom_site_aniso_type_symbol
_atom_site_aniso_U_11
_atom_site_aniso_U_22
_atom_site_aniso_U_33
_atom_site_aniso_U_12
_atom_site_aniso_U_13
_atom_site_aniso_U_23
K1 K1+ 0.0177(5) 0.0170(5) 0.0370(6) 0.000 0.000 0.000
Cu1 Cu1+ 0.0161(3) 0.0193(3) 0.0103(3) 0.000 0.000 0.000
Np1 Np4+ 0.00674(10) 0.01294(10) 0.00667(9) 0.000 0.000 -0.00006(5)
S1 S2- 0.0102(5) 0.0139(5) 0.0081(4) 0.000 0.000 0.000
S2 S2- 0.0108(3) 0.0120(3) 0.0119(3) 0.000 0.000 -0.0002(3)
#End of data_249966-ICSD


