data_200742-ICSD
#?2014 by Fachinformationszentrum Karlsruhe, and the U.S. Secretary of 
#Commerce on behalf of the United States.  All rights reserved.
_database_code_ICSD                200742
_audit_creation_date               1980/01/01
_audit_update_record               2012/02/01
_chemical_name_systematic
;
Potassium Hydrogenbis(iodate(V)) - Alpha
;
_chemical_formula_structural       'K (H (I O3)2)'
_chemical_formula_sum              'H1 I2 K1 O6'
_publ_section_title
;
Neutron-diffraction study of the crystal structure of potassium acid 
iodate alpha-K I O3 H I O3
;
loop_
_citation_id
_citation_journal_abbrev
_citation_year
_citation_journal_volume
_citation_page_first
_citation_page_last
_citation_journal_id_ASTM
primary 'Koordinatsionnaya Khimiya (= Coordination Chemistry (USSR))'
 1979 5 263 267 KOKHDC
2 'Doklady Akademii Nauk SSSR' 1978 243 354 357 DANKAS
3 'Golden Book of Phase Transitions, Wroclaw' 2002 1 1 123 GBOPT5
_publ_author_name
;
Treushnikov, E.N.;Loshmanov, A.A.;Kalinin, V.R.;Ilyukhin, 
V.V.;Yamzin, I.I.;Fukin, L.E.;Dudarev, V.Ya.;Solov'ev, S.P.
;
_cell_length_a                     10.583(1)
_cell_length_b                     8.626(1)
_cell_length_c                     7.747(1)
_cell_angle_alpha                  90.
_cell_angle_beta                   90.
_cell_angle_gamma                  112.19(1)
_cell_volume                       654.84
_cell_formula_units_Z              4
_symmetry_space_group_name_H-M     'P 1 1 21/b'
_symmetry_Int_Tables_number        14
loop_
_symmetry_equiv_pos_site_id
_symmetry_equiv_pos_as_xyz
  1	'x, y+.5, -z+.5'
  2	'-x, -y, -z'
  3	'-x, -y+.5, z+.5'
  4	'x, y, z'
loop_
_atom_type_symbol
_atom_type_oxidation_number
H1+	1
I5+	5
K1+	1
O2-	-2
loop_
_atom_site_label
_atom_site_type_symbol
_atom_site_symmetry_multiplicity
_atom_site_Wyckoff_symbol
_atom_site_fract_x
_atom_site_fract_y
_atom_site_fract_z
_atom_site_occupancy
_atom_site_attached_hydrogens
I1 I5+ 4 e 0.1261(3) 0.0731(3) 0.1968(3) 1. 0 
I2 I5+ 4 e 0.4934(2) 0.2956(3) 0.4349(5) 1. 0 
K1 K1+ 4 e 0.7977(4) 0.1596(5) 0.2478(7) 1. 0 
O1 O2- 4 e 0.0589(3) 0.1854(4) 0.0474(4) 1. 0 
O2 O2- 4 e 0.2277(3) 0.2335(4) 0.3479(4) 1. 0 
O3 O2- 4 e -.0301(2) -.0125(3) 0.3371(3) 1. 0 
O4 O2- 4 e 0.6735(2) 0.3487(3) 0.4574(3) 1. 0 
O5 O2- 4 e 0.4604(3) 0.3875(3) 0.6406(3) 1. 0 
O6 O2- 4 e 0.4270(3) 0.0823(3) 0.5293(4) 1. 0 
H1 H1+ 2 c 0 0.5 0 1. 0 
H2 H1+ 2 b 0.5 0.5 0 1. 0 

#End of data_200742-ICSD


