data_171379-ICSD
#?2014 by Fachinformationszentrum Karlsruhe, and the U.S. Secretary of 
#Commerce on behalf of the United States.  All rights reserved.
_database_code_ICSD                171379
_audit_creation_date               2006/10/01
_audit_update_record               2011/02/01
_chemical_name_systematic          'Potassium Lead Tetrathiophosphate'
_chemical_formula_structural       'K Pb P S4'
_chemical_formula_sum              'K1 P1 Pb1 S4'
_publ_section_title
;
Synthesis and crystal structure of the new quaternary thiophosphate K 
Pb P S4
;
loop_
_citation_id
_citation_journal_abbrev
_citation_year
_citation_journal_volume
_citation_page_first
_citation_page_last
_citation_journal_id_ASTM
primary 'Solid State Sciences' 2006 8 59 63 SSSCFJ
_publ_author_name
;
Belkyal, I.;El Azhari, M.;Wu, Y.-D.;Bensch, W.;Hesse, K.F.;Depmeier, 
W.
;
_cell_length_a                     17.045(3)
_cell_length_b                     6.660(1)
_cell_length_c                     6.473(1)
_cell_angle_alpha                  90.
_cell_angle_beta                   90.
_cell_angle_gamma                  90.
_cell_volume                       734.81
_cell_formula_units_Z              4
_symmetry_space_group_name_H-M     'P n m a'
_symmetry_Int_Tables_number        62
_refine_ls_R_factor_all            .0537
loop_
_symmetry_equiv_pos_site_id
_symmetry_equiv_pos_as_xyz
  1	'x+.5, y, -z+.5'
  2	'x, -y+.5, z'
  3	'-x+.5, y+.5, z+.5'
  4	'-x, -y, -z'
  5	'-x+.5, -y, z+.5'
  6	'-x, y+.5, -z'
  7	'x+.5, -y+.5, -z+.5'
  8	'x, y, z'
loop_
_atom_type_symbol
_atom_type_oxidation_number
K1+	1
P5+	5
Pb2+	2
S2-	-2
loop_
_atom_site_label
_atom_site_type_symbol
_atom_site_symmetry_multiplicity
_atom_site_Wyckoff_symbol
_atom_site_fract_x
_atom_site_fract_y
_atom_site_fract_z
_atom_site_occupancy
_atom_site_attached_hydrogens
_atom_site_U_iso_or_equiv
K1 K1+ 4 c 0.2908(3) 0.25 0.4997(9) 1. 0 0.0043(1) 
Pb1 Pb2+ 4 c 0.0203(1) 0.25 0.7139(1) 1. 0 0.0032(1) 
P1 P5+ 4 c 0.0991(2) 0.25 0.2179(6) 1. 0 0.0016(1) 
S1 S2- 4 c 0.1650(2) 0.25 0.9565(6) 1. 0 0.0026(1) 
S2 S2- 4 c 0.9800(2) 0.25 0.1535(7) 1. 0 0.0029(1) 
S3 S2- 8 d 0.1240(2) 0.0034(4) 0.3939(5) 1. 0 0.0024(1) 

#End of data_171379-ICSD


