data_200081-ICSD
#?2014 by Fachinformationszentrum Karlsruhe, and the U.S. Secretary of 
#Commerce on behalf of the United States.  All rights reserved.
_database_code_ICSD                200081
_audit_creation_date               1980/01/01
_audit_update_record               1987/11/03
_chemical_name_systematic          'Calcium Heptaoxotetraborate'
_chemical_formula_structural       'Ca B4 O7'
_chemical_formula_sum              'B4 Ca1 O7'
_publ_section_title                'Crystal structure of Ca B4 O7'
loop_
_citation_id
_citation_journal_abbrev
_citation_year
_citation_journal_volume
_citation_page_first
_citation_page_last
_citation_journal_id_ASTM
primary Kristallografiya 1977 22 275 280 KRISAJ
2 'Soviet Physics, Crystallography (= Kristallografiya)'
 1977 22 156 158 SPHCA6
_publ_author_name                  'Zayakina, N.V.;Brovkin, A.A.'
_cell_length_a                     12.34(2)
_cell_length_b                     9.95(1)
_cell_length_c                     7.85(1)
_cell_angle_alpha                  90.
_cell_angle_beta                   92.1(1)
_cell_angle_gamma                  90.
_cell_volume                       963.2
_cell_formula_units_Z              8
_symmetry_space_group_name_H-M     'P 1 21/n 1'
_symmetry_Int_Tables_number        14
_refine_ls_R_factor_all            .13
loop_
_symmetry_equiv_pos_site_id
_symmetry_equiv_pos_as_xyz
  1	'-x+.5, y+.5, -z+.5'
  2	'-x, -y, -z'
  3	'x+.5, -y+.5, z+.5'
  4	'x, y, z'
loop_
_atom_type_symbol
_atom_type_oxidation_number
B3+	3
Ca2+	2
O2-	-2
loop_
_atom_site_label
_atom_site_type_symbol
_atom_site_symmetry_multiplicity
_atom_site_Wyckoff_symbol
_atom_site_fract_x
_atom_site_fract_y
_atom_site_fract_z
_atom_site_occupancy
_atom_site_attached_hydrogens
Ca1 Ca2+ 4 e 0.4333(1) 0.0809(2) 0.2966(5) 1. 0 
Ca2 Ca2+ 4 e 0.6524(1) 0.3821(2) 0.1700(5) 1. 0 
B1 B3+ 4 e 0.035(1) 0.086(1) 0.245(2) 1. 0 
B2 B3+ 4 e 0.698(1) 0.108(1) 0.419(2) 1. 0 
B3 B3+ 4 e 0.681(1) 0.068(1) 0.098(2) 1. 0 
B4 B3+ 4 e 0.041(1) 0.293(1) 0.105(2) 1. 0 
B5 B3+ 4 e 0.346(1) 0.394(1) 0.149(2) 1. 0 
B6 B3+ 4 e 0.292(1) 0.180(1) 0.016(2) 1. 0 
B7 B3+ 4 e 0.869(1) 0.173(1) 0.091(2) 1. 0 
B8 B3+ 4 e 0.051(1) 0.291(1) 0.420(2) 1. 0 
O1 O2- 4 e 0.275(1) 0.463(1) 0.047(2) 1. 0 
O2 O2- 4 e 0.926(1) 0.281(1) 0.040(2) 1. 0 
O3 O2- 4 e 0.430(1) 0.446(1) 0.240(2) 1. 0 
O4 O2- 4 e 0.916(1) 0.077(1) 0.197(2) 1. 0 
O5 O2- 4 e 0.588(1) 0.110(1) 0.485(2) 1. 0 
O6 O2- 4 e 0.574(1) 0.147(1) 0.082(2) 1. 0 
O7 O2- 4 e 0.698(1) 0.025(1) 0.267(2) 1. 0 
O8 O2- 4 e 0.761(1) 0.168(1) 0.040(2) 1. 0 
O9 O2- 4 e 0.093(1) 0.165(1) 0.122(2) 1. 0 
O10 O2- 4 e 0.038(1) 0.363(1) 0.279(2) 1. 0 
O11 O2- 4 e 0.044(1) 0.154(1) 0.423(2) 1. 0 
O12 O2- 4 e 0.322(1) 0.049(1) 0.019(2) 1. 0 
O13 O2- 4 e 0.337(1) 0.252(1) 0.154(2) 1. 0 
O14 O2- 4 e 0.739(1) 0.250(1) 0.388(2) 1. 0 

#End of data_200081-ICSD


