data_40450-ICSD
#?2014 by Fachinformationszentrum Karlsruhe, and the U.S. Secretary of 
#Commerce on behalf of the United States.  All rights reserved.
_database_code_ICSD                40450
_audit_creation_date               1999/06/02
_audit_update_record               2006/04/01
_chemical_name_systematic          'Potassium Dierbium Fluoride - Beta'
_chemical_formula_structural       'K Er2 F7'
_chemical_formula_sum              'Er2 F7 K1'
_publ_section_title                'More space group changes'
loop_
_citation_id
_citation_journal_abbrev
_citation_year
_citation_journal_volume
_citation_page_first
_citation_page_last
_citation_journal_id_ASTM
primary 'Acta Crystallographica, Section B: Structural Science'
 1988 44 77 88 ASBSDK
2 'Journal of Solid State Chemistry' 1980 34 79 89 JSSCBI
3 'Golden Book of Phase Transitions, Wroclaw' 2002 1 1 123 GBOPT5
_publ_author_name                  'Marsh, R.E.;Herbstein, F.H.'
_cell_length_a                     11.82
_cell_length_b                     13.333
_cell_length_c                     7.816
_cell_angle_alpha                  90.
_cell_angle_beta                   90.
_cell_angle_gamma                  90.
_cell_volume                       1231.77
_cell_formula_units_Z              8
_symmetry_space_group_name_H-M     'P n a m'
_symmetry_Int_Tables_number        62
loop_
_symmetry_equiv_pos_site_id
_symmetry_equiv_pos_as_xyz
  1	'x+.5, -y+.5, z'
  2	'x, y, -z+.5'
  3	'-x+.5, y+.5, z+.5'
  4	'-x, -y, -z'
  5	'-x+.5, y+.5, -z'
  6	'-x, -y, z+.5'
  7	'x+.5, -y+.5, -z+.5'
  8	'x, y, z'
loop_
_atom_type_symbol
_atom_type_oxidation_number
Er3+	3
F1-	-1
K1+	1
loop_
_atom_site_label
_atom_site_type_symbol
_atom_site_symmetry_multiplicity
_atom_site_Wyckoff_symbol
_atom_site_fract_x
_atom_site_fract_y
_atom_site_fract_z
_atom_site_occupancy
_atom_site_attached_hydrogens
_atom_site_B_iso_or_equiv
Er1 Er3+ 4 c -.0058 0.742 0.25 1. 0 0.55 
Er2 Er3+ 8 d 0.2563(6) 0.3365(7) 0.0238(2) 1. 0 0.48 
Er3 Er3+ 4 c 0.2096 0.0622 0.75 1. 0 0.49 
K1 K1+ 4 c 0.0839 0.095 0.25 1. 0 1.57 
K2 K1+ 4 c 0.4343 0.0687 0.25 1. 0 3.44 
F1 F1- 4 c 0.1616 0.4204 0.25 1. 0 0.87 
F2 F1- 8 d 0.1692(52) 0.1992(29) 0.9138(98) 1. 0 0.87 
F3 F1- 8 d 0.2814(17) 0.5022(6) 0.5150(17) 1. 0 1.14 
F4 F1- 4 c 0.2431 0.2388 0.25 1. 0 0.99 
F5 F1- 4 c 0.3647 0.4044 0.25 1. 0 0.98 
F6 F1- 4 c 0.3124 0.3374 0.75 1. 0 1.22 
F7 F1- 8 d 0.4270(18) 0.267(1) 0.0034(44) 1. 0 1.66 
F8 F1- 8 d 0.0869(18) 0.3777(72) 0.923(2) 1. 0 0.85 
F9 F1- 4 c 0.3764 0.1245 0.75 1. 0 1.05 
F10 F1- 4 c 0.0245 0.0886 0.75 1. 0 1.14 

#End of data_40450-ICSD


