data_409792-ICSD
#?2014 by Fachinformationszentrum Karlsruhe, and the U.S. Secretary of 
#Commerce on behalf of the United States.  All rights reserved.
_database_code_ICSD                409792
_audit_creation_date               2005/10/01
_chemical_name_systematic          'Hexapotassium Dicobaltae(II)'
_chemical_formula_structural       'Co0.25 K0.75 O0.63'
_chemical_formula_sum              'Co0.25 K0.75 O0.63'
_publ_section_title
;
Crystal structure of hexapotassium dicobaltae(II), K6 Co2 O5
;
loop_
_citation_id
_citation_journal_abbrev
_citation_year
_citation_journal_volume
_citation_page_first
_citation_page_last
_citation_journal_id_ASTM
primary 'Zeitschrift fuer Kristallographie - New Crystal Structures'
 2004 219 339 340 ZKNSFT
_publ_author_name                  'Sofin, M.;Peters, E.M.;Jansen, M.'
_cell_length_a                     6.6119(9)
_cell_length_b                     6.6119(9)
_cell_length_c                     11.844(2)
_cell_angle_alpha                  90.00
_cell_angle_beta                   90.00
_cell_angle_gamma                  90.00
_cell_volume                       517.79
_cell_formula_units_Z              16
_symmetry_space_group_name_H-M     'P 42/m n m'
_symmetry_Int_Tables_number        136
_refine_ls_R_factor_all            .0408
loop_
_symmetry_equiv_pos_site_id
_symmetry_equiv_pos_as_xyz
  1	'-y+.5, x+.5, -z+.5'
  2	'y+.5, -x+.5, -z+.5'
  3	'y, x, -z'
  4	'-y, -x, -z'
  5	'y+.5, -x+.5, z+.5'
  6	'-y+.5, x+.5, z+.5'
  7	'-y, -x, z'
  8	'y, x, z'
  9	'x+.5, -y+.5, -z+.5'
 10	'-x+.5, y+.5, -z+.5'
 11	'x, y, -z'
 12	'-x, -y, -z'
 13	'-x+.5, y+.5, z+.5'
 14	'x+.5, -y+.5, z+.5'
 15	'-x, -y, z'
 16	'x, y, z'
loop_
_atom_type_symbol
_atom_type_oxidation_number
Co2+	2
K1+	1
O2-	-2
loop_
_atom_site_label
_atom_site_type_symbol
_atom_site_symmetry_multiplicity
_atom_site_Wyckoff_symbol
_atom_site_fract_x
_atom_site_fract_y
_atom_site_fract_z
_atom_site_occupancy
_atom_site_attached_hydrogens
_atom_site_U_iso_or_equiv
Co1 Co2+ 4 g 0.79611(12) 0.20389(12) 0.0000 1 0 0.0267(3) 
K1 K1+ 4 e 0.0000 0.0000 0.22041(13) 1 0 0.0293(4) 
K2 K1+ 4 d 0.5000 0.0000 0.2500 1 0 0.0375(4) 
K3 K1+ 4 f 0.3213(2) 0.3213(2) 0.0000 1 0 0.0478(6) 
O1 O2- 8 j 0.2136(5) 0.2136(5) 0.3621(3) 1 0 0.0387(9) 
O2 O2- 2 a 0.0000 0.0000 0.0000 1 0 0.057(3) 

loop_
_atom_site_aniso_label
_atom_site_aniso_type_symbol
_atom_site_aniso_U_11
_atom_site_aniso_U_22
_atom_site_aniso_U_33
_atom_site_aniso_U_12
_atom_site_aniso_U_13
_atom_site_aniso_U_23
Co1 Co2+ 0.0249(4) 0.0249(4) 0.0304(5) 0.0033(5) 0.000 0.000
K1 K1+ 0.0294(5) 0.0294(5) 0.0291(8) -0.0014(8) 0.000 0.000
K2 K1+ 0.0313(5) 0.0313(5) 0.0499(9) 0.000 0.000 0.000
K3 K1+ 0.0405(8) 0.0405(8) 0.0625(12) 0.0022(9) 0.000 0.000
O1 O2- 0.0384(14) 0.0384(14) 0.039(2) -0.007(2) -0.0038(13) -0.0038(13)
O2 O2- 0.069(4) 0.069(4) 0.033(4) 0.041(6) 0.000 0.000
#End of data_409792-ICSD


