data_416586-ICSD
#?2014 by Fachinformationszentrum Karlsruhe, and the U.S. Secretary of 
#Commerce on behalf of the United States.  All rights reserved.
_database_code_ICSD                416586
_audit_creation_date               2008/02/01
_chemical_name_systematic
;
Pentadecasilver Tetrakis(tetrathiophosphate) Trichloride
;
_chemical_formula_structural       'Ag15 (P S4)4 Cl3'
_chemical_formula_sum              'Ag15 Cl3 P4 S16'
_publ_section_title
;
Ag5 P S4 Cl2 and Ag15 (P S4)4 Cl3 - crystal structures and their 
relation to Ag3 P S4
;
loop_
_citation_id
_citation_journal_abbrev
_citation_year
_citation_journal_volume
_citation_journal_issue
_citation_page_first
_citation_page_last
_citation_journal_id_ASTM
primary 'Solid State Sciences' 2007 9 2 213 217 SSSCFJ
_publ_author_name                  'Joergens, S.;Mewis, A.'
_cell_length_a                     14.838(4)
_cell_length_b                     14.838(4)
_cell_length_c                     14.838(4)
_cell_angle_alpha                  90.00
_cell_angle_beta                   90.00
_cell_angle_gamma                  90.00
_cell_volume                       3266.83
_cell_formula_units_Z              4
_symmetry_space_group_name_H-M     'I -4 3 d'
_symmetry_Int_Tables_number        220
_refine_ls_R_factor_all            .0544
loop_
_symmetry_equiv_pos_site_id
_symmetry_equiv_pos_as_xyz
  1	'-y+.25, -x+.75, z+.75'
  2	'y+.75, -x+.25, -z+.75'
  3	'-y+.75, x+.75, -z+.25'
  4	'y+.25, x+.25, z+.25'
  5	'z+.5, -x+.5, -y'
  6	'-z+.5, -x, y+.5'
  7	'-z, x+.5, -y+.5'
  8	'z, x, y'
  9	'z+.75, -y+.25, -x+.75'
 10	'-z+.75, y+.75, -x+.25'
 11	'-z+.25, -y+.75, x+.75'
 12	'z+.25, y+.25, x+.25'
 13	'-y, z+.5, -x+.5'
 14	'y+.5, -z+.5, -x'
 15	'-y+.5, -z, x+.5'
 16	'y, z, x'
 17	'-x+.75, z+.75, -y+.25'
 18	'-x+.25, -z+.75, y+.75'
 19	'x+.75, -z+.25, -y+.75'
 20	'x+.25, z+.25, y+.25'
 21	'-x+.5, -y, z+.5'
 22	'-x, y+.5, -z+.5'
 23	'x+.5, -y+.5, -z'
 24	'x, y, z'
 25	'-y+.75, -x+.25, z+.25'
 26	'y+.25, -x+.75, -z+.25'
 27	'-y+.25, x+.25, -z+.75'
 28	'y+.75, x+.75, z+.75'
 29	'z, -x, -y+.5'
 30	'-z, -x+.5, y'
 31	'-z+.5, x, -y'
 32	'z+.5, x+.5, y+.5'
 33	'z+.25, -y+.75, -x+.25'
 34	'-z+.25, y+.25, -x+.75'
 35	'-z+.75, -y+.25, x+.25'
 36	'z+.75, y+.75, x+.75'
 37	'-y+.5, z, -x'
 38	'y, -z, -x+.5'
 39	'-y, -z+.5, x'
 40	'y+.5, z+.5, x+.5'
 41	'-x+.25, z+.25, -y+.75'
 42	'-x+.75, -z+.25, y+.25'
 43	'x+.25, -z+.75, -y+.25'
 44	'x+.75, z+.75, y+.75'
 45	'-x, -y+.5, z'
 46	'-x+.5, y, -z'
 47	'x, -y, -z+.5'
 48	'x+.5, y+.5, z+.5'
loop_
_atom_type_symbol
_atom_type_oxidation_number
Ag1+	1
Cl1-	-1
P5+	5
S2-	-2
loop_
_atom_site_label
_atom_site_type_symbol
_atom_site_symmetry_multiplicity
_atom_site_Wyckoff_symbol
_atom_site_fract_x
_atom_site_fract_y
_atom_site_fract_z
_atom_site_occupancy
_atom_site_attached_hydrogens
_atom_site_U_iso_or_equiv
Ag1 Ag1+ 12 a 0.0000 0.2500 0.3750 1 0 0.0600(7) 
Ag2 Ag1+ 48 e 0.12922(11) 0.21633(7) 0.58938(9) 1 0 0.0636(5) 
S1 S2- 16 c 0.02814(17) 0.02814(17) 0.02814(17) 1 0 0.0364(11) 
S2 S2- 48 e 0.10409(18) 0.34456(16) 0.47804(17) 1 0 0.0288(5) 
Cl1 Cl1- 12 b 0.0000 0.2500 0.8750 1 0 0.0402(13) 
P1 P5+ 16 c 0.19962(15) 0.19962(15) 0.19962(15) 1 0 0.0163(7) 

loop_
_atom_site_aniso_label
_atom_site_aniso_type_symbol
_atom_site_aniso_U_11
_atom_site_aniso_U_22
_atom_site_aniso_U_33
_atom_site_aniso_U_12
_atom_site_aniso_U_13
_atom_site_aniso_U_23
Ag1 Ag1+ 0.0586(9) 0.0586(9) 0.0630(15) 0.000 0.000 0.000
Ag2 Ag1+ 0.0685(8) 0.0412(6) 0.0810(9) -0.0026(5) 0.0019(7) 0.0039(6)
S1 S2- 0.0364(11) 0.0364(11) 0.0364(11) -0.0084(11) -0.0084(11) -0.0084(11)
S2 S2- 0.0324(13) 0.0226(11) 0.0314(13) 0.0061(10) 0.0043(11) -0.0087(10)
Cl1 Cl1- 0.0399(18) 0.0399(18) 0.041(3) 0.000 0.000 0.000
P1 P5+ 0.0163(7) 0.0163(7) 0.0163(7) 0.0013(8) 0.0013(8) 0.0013(8)
#End of data_416586-ICSD


