data_79453-ICSD
#?2014 by Fachinformationszentrum Karlsruhe, and the U.S. Secretary of 
#Commerce on behalf of the United States.  All rights reserved.
_database_code_ICSD                79453
_audit_creation_date               1996/10/14
_audit_update_record               2012/02/01
_chemical_name_systematic
;
Tricalcium Zirconium Disilicate Dioxide
;
_chemical_formula_structural       'Ca3 Zr (Si2 O7) O2'
_chemical_formula_sum              'Ca3 O9 Si2 Zr1'
_chemical_name_mineral             Baghdadite
_publ_section_title
;
Structure determination of Ca3 Hf Si2 O9 and Ca3 Zr Si2 O9 from 
powder diffraction
;
loop_
_citation_id
_citation_journal_abbrev
_citation_year
_citation_journal_volume
_citation_page_first
_citation_page_last
_citation_journal_id_ASTM
primary 'Journal of Solid State Chemistry' 1995 115 464 468 JSSCBI
_publ_author_name
;
Plaisier, J.R.;Jansen, J.;de Graaff, R.A.G.;Ijdo, D.J.W.
;
_cell_length_a                     7.3603(1)
_cell_length_b                     10.1766(3)
_cell_length_c                     10.4514(3)
_cell_angle_alpha                  90.
_cell_angle_beta                   90.875(2)
_cell_angle_gamma                  90.
_cell_volume                       782.75
_cell_formula_units_Z              4
_symmetry_space_group_name_H-M     'P 1 21/c 1'
_symmetry_Int_Tables_number        14
_refine_ls_R_factor_all            .021
loop_
_symmetry_equiv_pos_site_id
_symmetry_equiv_pos_as_xyz
  1	'x, -y+.5, z+.5'
  2	'-x, -y, -z'
  3	'-x, y+.5, -z+.5'
  4	'x, y, z'
loop_
_atom_type_symbol
_atom_type_oxidation_number
Ca2+	2
O2-	-2
Si4+	4
Zr4+	4
loop_
_atom_site_label
_atom_site_type_symbol
_atom_site_symmetry_multiplicity
_atom_site_Wyckoff_symbol
_atom_site_fract_x
_atom_site_fract_y
_atom_site_fract_z
_atom_site_occupancy
_atom_site_attached_hydrogens
_atom_site_B_iso_or_equiv
Zr1 Zr4+ 4 e 0.1245(8) 0.0629(4) 0.1148(5) 1. 0 0.71(5) 
Ca1 Ca2+ 4 e 0.6247(8) 0.8070(5) 0.5994(8) 1. 0 0.71(5) 
Ca2 Ca2+ 4 e 0.1198(9) 0.8256(5) 0.5884(6) 1. 0 0.71(5) 
Ca3 Ca2+ 4 e 0.6301(11) 0.4193(6) 0.6155(6) 1. 0 0.71(5) 
Si1 Si4+ 4 e 0.8340(9) 0.6240(8) 0.8189(7) 1. 0 0.71(5) 
Si2 Si4+ 4 e 0.4000(11) 0.6350(9) 0.8074(7) 1. 0 0.71(5) 
O1 O2- 4 e 0.6176(7) 0.6058(5) 0.7757(4) 1. 0 0.71(5) 
O2 O2- 4 e 0.0825(9) -.0033(6) 0.7541(5) 1. 0 0.71(5) 
O3 O2- 4 e 0.1391(8) 0.3794(5) 0.0310(5) 1. 0 0.71(5) 
O4 O2- 4 e 0.1069(10) 0.2634(5) 0.7432(5) 1. 0 0.71(5) 
O5 O2- 4 e 0.3557(8) 0.7356(5) 0.2253(5) 1. 0 0.71(5) 
O6 O2- 4 e 0.3119(6) 0.4990(6) 0.7603(5) 1. 0 0.71(5) 
O7 O2- 4 e 0.3791(8) 0.6636(5) 0.9566(5) 1. 0 0.71(5) 
O8 O2- 4 e 0.0976(6) 0.6113(5) 0.5056(5) 1. 0 0.71(5) 
O9 O2- 4 e 0.6596(7) 0.8910(6) -.0117(5) 1. 0 0.71(5) 

#End of data_79453-ICSD


