data_156649-ICSD
#?2014 by Fachinformationszentrum Karlsruhe, and the U.S. Secretary of 
#Commerce on behalf of the United States.  All rights reserved.
_database_code_ICSD                156649
_audit_creation_date               2007/08/01
_chemical_name_systematic
;
Tricopper(I) Disilver Trilead Heptabismuth Sulfide
;
_chemical_formula_structural       'Cu3 Ag2 Pb3 Bi7 S16'
_chemical_formula_sum              'Ag2 Bi7 Cu3 Pb3 S16'
_chemical_name_mineral             Berryite
_publ_section_title
;
The crystal structure of berryite, Cu3 Ag2 Pb3 Bi7 S16
;
loop_
_citation_id
_citation_journal_abbrev
_citation_year
_citation_journal_volume
_citation_page_first
_citation_page_last
_citation_journal_id_ASTM
primary 'Canadian Mineralogist' 2006 44 465 480 CAMIA6
_publ_author_name
;
Topa, D.;Makovicky, E.;Putz, H.;Mumme, W.G.
;
_cell_length_a                     12.703(2)
_cell_length_b                     4.0305(7)
_cell_length_c                     28.925(5)
_cell_angle_alpha                  90
_cell_angle_beta                   102.484(2)
_cell_angle_gamma                  90
_cell_volume                       1445.93
_cell_formula_units_Z              2
_symmetry_space_group_name_H-M     'P 1 21/m 1'
_symmetry_Int_Tables_number        11
_refine_ls_R_factor_all            .064
loop_
_symmetry_equiv_pos_site_id
_symmetry_equiv_pos_as_xyz
  1	'x, -y+.5, z'
  2	'-x, -y, -z'
  3	'-x, y+.5, -z'
  4	'x, y, z'
loop_
_atom_type_symbol
_atom_type_oxidation_number
Ag1+	1
Bi3+	3
Cu1+	1
Pb2+	2
S2-	-2
loop_
_atom_site_label
_atom_site_type_symbol
_atom_site_symmetry_multiplicity
_atom_site_Wyckoff_symbol
_atom_site_fract_x
_atom_site_fract_y
_atom_site_fract_z
_atom_site_occupancy
_atom_site_attached_hydrogens
_atom_site_U_iso_or_equiv
Cu1 Cu1+ 2 e 0.2212(4) 0.25000 0.7650(2) 1. 0 0.021(1) 
Cu2 Cu1+ 2 e 0.5349(4) 0.25000 0.2603(2) 1. 0 0.024(1) 
Cu3 Cu1+ 2 e 0.7355(4) 0.25000 0.7580(2) 1. 0 0.019(1) 
Ag1 Ag1+ 2 e 0.3872(3) 0.25000 0.4502(1) 1. 0 0.043(1) 
Ag2 Ag1+ 2 e 0.5636(3) 0.25000 0.9483(1) 1. 0 0.044(1) 
Pb1 Pb2+ 2 e 0.18898(13) 0.25000 0.66000(6) 1. 0 0.0177(4) 
Pb2 Pb2+ 2 e 0.32335(14) 0.25000 0.16151(6) 1. 0 0.0197(4) 
Pb3 Pb2+ 2 e 0.86159(13) 0.25000 0.67228(6) 1. 0 0.0159(4) 
Bi1 Bi3+ 2 e 0.01029(12) 0.25000 0.19285(5) 1. 0 0.0129(4) 
Bi2 Bi3+ 2 e 0.05234(12) 0.25000 0.44385(5) 1. 0 0.0113(4) 
Bi3 Bi3+ 2 e 0.23842(12) 0.25000 0.95422(5) 1. 0 0.0111(4) 
Bi4 Bi3+ 2 e 0.52225(12) 0.25000 0.64744(5) 1. 0 0.0100(4) 
Bi5 Bi3+ 2 e 0.63580(12) 0.25000 0.14436(5) 1. 0 0.0106(4) 
Bi6 Bi3+ 2 e 0.71532(12) 0.25000 0.45283(5) 1. 0 0.0119(4) 
Bi7 Bi3+ 2 e 0.89915(12) 0.25000 0.94336(5) 1. 0 0.0123(4) 
S1 S2- 2 e 0.0397(7) 0.25000 0.7526(3) 1. 0 0.008(2) 
S2 S2- 2 e 0.1232(8) 0.25000 0.5587(4) 1. 0 0.013(2) 
S3 S2- 2 e 0.1872(8) 0.25000 0.2548(4) 1. 0 0.012(2) 
S4 S2- 2 e 0.2082(9) 0.25000 0.8606(3) 1. 0 0.012(2) 
S5 S2- 2 e 0.2545(8) 0.25000 0.0613(3) 1. 0 0.010(2) 
S6 S2- 2 e 0.3434(8) 0.25000 0.3637(3) 1. 0 0.008(2) 
S7 S2- 2 e 0.4228(9) 0.25000 0.5368(4) 1. 0 0.017(2) 
S8 S2- 2 e 0.5215(8) 0.25000 0.8613(4) 1. 0 0.015(2) 
S9 S2- 2 e 0.5542(8) 0.25000 0.7393(4) 1. 0 0.013(2) 
S10 S2- 2 e 0.6118(9) 0.25000 0.0359(4) 1. 0 0.017(2) 
S11 S2- 2 e 0.6562(7) 0.25000 0.3562(4) 1. 0 0.010(2) 
S12 S2- 2 e 0.6965(8) 0.25000 0.2368(4) 1. 0 0.013(2) 
S13 S2- 2 e 0.8022(8) 0.25000 0.5574(3) 1. 0 0.010(2) 
S14 S2- 2 e 0.8568(9) 0.25000 0.8470(4) 1. 0 0.014(2) 
S15 S2- 2 e 0.9326(9) 0.25000 0.0492(4) 1. 0 0.015(2) 
S16 S2- 2 e 0.9918(9) 0.25000 0.3526(4) 1. 0 0.012(2) 

loop_
_atom_site_aniso_label
_atom_site_aniso_type_symbol
_atom_site_aniso_U_11
_atom_site_aniso_U_22
_atom_site_aniso_U_33
_atom_site_aniso_U_12
_atom_site_aniso_U_13
_atom_site_aniso_U_23
Cu1 Cu1+ 0.021(3) 0.012(3) 0.031(3) 0.00000 0.007(2) 0.00000
Cu2 Cu1+ 0.025(3) 0.013(3) 0.040(4) 0.00000 0.016(3) 0.00000
Cu3 Cu1+ 0.014(3) 0.008(3) 0.038(3) 0.00000 0.009(2) 0.00000
Ag1 Ag1+ 0.039(3) 0.076(3) 0.014(2) 0.00000 0.005(2) 0.00000
Ag2 Ag1+ 0.037(2) 0.078(3) 0.016(2) 0.00000 0.001(2) 0.00000
Pb1 Pb2+ 0.0220(9) 0.0098(8) 0.0210(9) 0.00000 0.0045(7) 0.00000
Pb2 Pb2+ 0.0251(9) 0.0105(8) 0.0233(9) 0.00000 0.0048(7) 0.00000
Pb3 Pb2+ 0.0176(8) 0.0110(8) 0.0203(9) 0.00000 0.0068(7) 0.00000
Bi1 Bi3+ 0.0149(9) 0.0070(8) 0.0160(8) 0.00000 0.0015(6) 0.00000
Bi2 Bi3+ 0.0138(9) 0.0070(8) 0.0130(8) 0.00000 0.0033(6) 0.00000
Bi3 Bi3+ 0.0143(8) 0.0051(7) 0.0147(8) 0.00000 0.0053(6) 0.00000
Bi4 Bi3+ 0.0117(8) 0.0036(7) 0.0153(8) 0.00000 0.0043(6) 0.00000
Bi5 Bi3+ 0.0138(8) 0.0051(7) 0.0124(8) 0.00000 0.0018(6) 0.00000
Bi6 Bi3+ 0.0148(9) 0.0045(7) 0.0167(8) 0.00000 0.0038(7) 0.00000
Bi7 Bi3+ 0.0147(9) 0.0067(8) 0.0162(8) 0.00000 0.0054(6) 0.00000
S1 S2- 0.007(5) 0.007(5) 0.010(5) 0.00000 0.005(4) 0.00000
S2 S2- 0.004(5) 0.012(5) 0.024(6) 0.00000 0.003(4) 0.00000
S3 S2- 0.008(5) 0.006(5) 0.022(6) 0.00000 0.004(4) 0.00000
S4 S2- 0.022(6) 0.011(5) 0.003(5) 0.00000 0.007(7) 0.00000
S5 S2- 0.008(5) 0.014(5) 0.006(5) 0.00000 0.001(4) 0.00000
S6 S2- 0.007(5) 0.003(5) 0.013(5) 0.00000 -0.001(4) 0.00000
S7 S2- 0.025(6) 0.008(5) 0.019(6) 0.00000 0.008(5) 0.00000
S8 S2- 0.012(6) 0.010(5) 0.023(6) 0.00000 0.005(5) 0.00000
S9 S2- 0.010(5) 0.014(5) 0.016(5) 0.00000 0.006(4) 0.00000
S10 S2- 0.017(6) 0.019(6) 0.014(5) 0.00000 -0.001(5) 0.00000
S11 S2- 0.004(5) 0.004(5) 0.020(5) 0.00000 0.001(4) 0.00000
S12 S2- 0.016(6) 0.005(5) 0.017(5) 0.00000 0.002(4) 0.00000
S13 S2- 0.006(5) 0.012(5) 0.010(5) 0.00000 -0.005(4) 0.00000
S14 S2- 0.022(6) 0.011(5) 0.011(5) 0.00000 0.008(4) 0.00000
S15 S2- 0.019(6) 0.008(5) 0.021(6) 0.00000 0.013(4) 0.00000
S16 S2- 0.022(6) 0.001(4) 0.017(5) 0.00000 0.011(4) 0.00000
#End of data_156649-ICSD


