data_167332-ICSD
#?2014 by Fachinformationszentrum Karlsruhe, and the U.S. Secretary of 
#Commerce on behalf of the United States.  All rights reserved.
_database_code_ICSD                167332
_audit_creation_date               2011/02/01
_chemical_name_systematic          'Disilver Metagermanate'
_chemical_formula_structural       'Ag2 (Ge O3)'
_chemical_formula_sum              'Ag2 Ge1 O3'
_publ_section_title
;
The crystal structure of silver metagermanate, Ag2 (Ge O3)
;
loop_
_citation_id
_citation_journal_abbrev
_citation_year
_citation_journal_volume
_citation_journal_issue
_citation_page_first
_citation_page_last
_citation_journal_id_ASTM
primary 'Powder Diffraction' 2010 25 1 15 18 PODIE2
_publ_author_name
;
Kurachi, H.;Iwata, T.;Ouyang Shuxin;Ye Jinhua;Fukuda, K.
;
_cell_length_a                     4.6309(1)
_cell_length_b                     7.1393(2)
_cell_length_c                     10.4079(3)
_cell_angle_alpha                  90.
_cell_angle_beta                   90.
_cell_angle_gamma                  90.
_cell_volume                       344.1
_cell_formula_units_Z              4
_symmetry_space_group_name_H-M     'P 21 21 21'
_symmetry_Int_Tables_number        19
_refine_ls_R_factor_all            .0067
loop_
_symmetry_equiv_pos_site_id
_symmetry_equiv_pos_as_xyz
  1	'-x, y+.5, -z+.5'
  2	'x+.5, -y+.5, -z'
  3	'-x+.5, -y, z+.5'
  4	'x, y, z'
loop_
_atom_type_symbol
_atom_type_oxidation_number
Ag1+	1
Ge4+	4
O2-	-2
loop_
_atom_site_label
_atom_site_type_symbol
_atom_site_symmetry_multiplicity
_atom_site_Wyckoff_symbol
_atom_site_fract_x
_atom_site_fract_y
_atom_site_fract_z
_atom_site_occupancy
_atom_site_attached_hydrogens
_atom_site_B_iso_or_equiv
Ag1 Ag1+ 4 a 0.0734(3) 0.6293(2) 0.1178(1) 1. 0 1.30(5) 
Ag2 Ag1+ 4 a 0.4800(3) 0.3971(2) 0.2741(1) 1. 0 1.34(5) 
Ge1 Ge4+ 4 a 0.0311(4) 0.1344(3) 0.0629(2) 1. 0 0.71(6) 
O1 O2- 4 a 0.124(2) 0.406(1) 0.4534(9) 1. 0 0.7(1) 
O2 O2- 4 a 0.208(2) 0.136(1) 0.2173(9) 1. 0 0.7(1) 
O3 O2- 4 a 0.786(2) 0.320(2) 0.052(1) 1. 0 0.7 

#End of data_167332-ICSD


