data_59938-ICSD
#?2014 by Fachinformationszentrum Karlsruhe, and the U.S. Secretary of 
#Commerce on behalf of the United States.  All rights reserved.
_database_code_ICSD                59938
_audit_creation_date               2005/10/01
_audit_update_record               2007/08/01
_chemical_name_systematic          'Calcium Zincodigermanate'
_chemical_formula_structural       'Ca (Zn Ge2 O6)'
_chemical_formula_sum              'Ca1 Ge2 O6 Zn1'
_publ_section_title
;
A comparison of the clinopyroxene compunds Ca Zn Si2 O6 and Ca Zn Ge2 
O6
;
loop_
_citation_id
_citation_journal_abbrev
_citation_year
_citation_journal_volume
_citation_page_first
_citation_page_last
_citation_journal_id_ASTM
primary 'Acta Crystallographica, Section C: Crystal Structure Communications'
 2005 61 i20 i22 ACSCEE
2 'Powder Diffraction' 1987 2 41 52 PODIE2
_publ_author_name                  'Redhammer, G.J.;Roth, G.'
_cell_length_a                     10.1659(8)
_cell_length_b                     9.0096(7)
_cell_length_c                     5.4369(4)
_cell_angle_alpha                  90
_cell_angle_beta                   105.181(4)
_cell_angle_gamma                  90
_cell_volume                       480.59
_cell_formula_units_Z              4
_symmetry_space_group_name_H-M     'C 1 2/c 1'
_symmetry_Int_Tables_number        15
_refine_ls_R_factor_all            .025
loop_
_symmetry_equiv_pos_site_id
_symmetry_equiv_pos_as_xyz
  1	'x, -y, z+.5'
  2	'-x, -y, -z'
  3	'-x, y, -z+.5'
  4	'x, y, z'
  5	'x+.5, -y+.5, z+.5'
  6	'-x+.5, -y+.5, -z'
  7	'-x+.5, y+.5, -z+.5'
  8	'x+.5, y+.5, z'
loop_
_atom_type_symbol
_atom_type_oxidation_number
Ca2+	2
Ge4+	4
O2-	-2
Zn2+	2
loop_
_atom_site_label
_atom_site_type_symbol
_atom_site_symmetry_multiplicity
_atom_site_Wyckoff_symbol
_atom_site_fract_x
_atom_site_fract_y
_atom_site_fract_z
_atom_site_occupancy
_atom_site_attached_hydrogens
_atom_site_U_iso_or_equiv
Ca1 Ca2+ 4 e 0 0.30391(9) 0.25 1 0 0.00883(19) 
Zn1 Zn2+ 4 e 0.5 0.40829(5) 0.25 1 0 0.00854(16) 
Ge1 Ge4+ 8 f 0.28474(3) 0.09791(3) 0.22624(5) 1 0 0.00586(15) 
O1 O2- 8 f 0.1094(2) 0.0924(2) 0.1355(4) 1 0 0.0077(4) 
O2 O2- 8 f 0.36254(19) 0.2616(2) 0.3414(4) 1 0 0.0110(4) 
O3 O2- 8 f 0.35821(18) 0.0286(2) -0.0161(4) 1 0 0.0091(4) 

loop_
_atom_site_aniso_label
_atom_site_aniso_type_symbol
_atom_site_aniso_U_11
_atom_site_aniso_U_22
_atom_site_aniso_U_33
_atom_site_aniso_U_12
_atom_site_aniso_U_13
_atom_site_aniso_U_23
Ca1 Ca2+ 0.0095(4) 0.0084(4) 0.0078(3) 0 0.0009(3) 0
Zn1 Zn2+ 0.0086(3) 0.0093(3) 0.0071(3) 0 0.00108(19) 0
Ge1 Ge4+ 0.0051(2) 0.0067(2) 0.00540(19) -0.00012(8) 0.00073(13) 
-0.00014(9)
O1 O2- 0.0058(9) 0.0086(10) 0.0087(9) -0.0005(6) 0.0016(7) 0.0001(7)
O2 O2- 0.0135(9) 0.0083(9) 0.0107(9) -0.0050(8) 0.0026(8) -0.0019(8)
O3 O2- 0.0075(9) 0.0124(10) 0.0079(9) -0.0014(7) 0.0030(7) -0.0033(7)
#End of data_59938-ICSD


