data_34113-ICSD
#?2014 by Fachinformationszentrum Karlsruhe, and the U.S. Secretary of 
#Commerce on behalf of the United States.  All rights reserved.
_database_code_ICSD                34113
_audit_creation_date               1986/10/02
_audit_update_record               2006/04/01
_chemical_name_systematic          'Disodium Tetrafluoroberyllate'
_chemical_formula_structural       'Na2 (Be F4)'
_chemical_formula_sum              'Be1 F4 Na2'
_publ_section_title
;
Beitraege zu Kristallstrukturen vom Olivin-Typ
;
loop_
_citation_id
_citation_journal_abbrev
_citation_year
_citation_journal_volume
_citation_page_first
_citation_page_last
_citation_journal_id_ASTM
primary 'Beitraege zur Mineralogie und Petrographie (-11,1965)'
 1965 11 535 558 BMUPA4
2 'Phase Transition' 1992 38 127 220 PHTRDP
_publ_author_name                  'Hanke, K.'
_cell_length_a                     4.89(2)
_cell_length_b                     10.90(4)
_cell_length_c                     6.56(2)
_cell_angle_alpha                  90.
_cell_angle_beta                   90.
_cell_angle_gamma                  90.
_cell_volume                       349.65
_cell_formula_units_Z              4
_symmetry_space_group_name_H-M     'P b n m'
_symmetry_Int_Tables_number        62
_refine_ls_R_factor_all            .075
loop_
_symmetry_equiv_pos_site_id
_symmetry_equiv_pos_as_xyz
  1	'-x+.5, y+.5, z'
  2	'x, y, -z+.5'
  3	'x+.5, -y+.5, z+.5'
  4	'-x, -y, -z'
  5	'x+.5, -y+.5, -z'
  6	'-x, -y, z+.5'
  7	'-x+.5, y+.5, -z+.5'
  8	'x, y, z'
loop_
_atom_type_symbol
_atom_type_oxidation_number
Be2+	2
F1-	-1
Na1+	1
loop_
_atom_site_label
_atom_site_type_symbol
_atom_site_symmetry_multiplicity
_atom_site_Wyckoff_symbol
_atom_site_fract_x
_atom_site_fract_y
_atom_site_fract_z
_atom_site_occupancy
_atom_site_attached_hydrogens
_atom_site_B_iso_or_equiv
Na1 Na1+ 4 a 0 0 0 1. 0 0.95 
Na2 Na1+ 4 c 0.0115(17) 0.2805(7) 0.75 1. 0 0.95 
Be1 Be2+ 4 c 0.0700(39) 0.4050(18) 0.25 1. 0 0.7 
F1 F1- 4 c 0.2590(22) 0.094(1) 0.75 1. 0 0.9 
F2 F1- 4 c 0.3040(22) 0.0365(10) 0.25 1. 0 0.9 
F3 F1- 8 d 0.1940(22) 0.339(1) 0.4400(17) 1. 0 0.9 

#End of data_34113-ICSD


