data_300168-ICSD
#?2014 by Fachinformationszentrum Karlsruhe, and the U.S. Secretary of 
#Commerce on behalf of the United States.  All rights reserved.
_database_code_ICSD                300168
_audit_creation_date               1991/07/10
_audit_update_record               2008/02/01
_chemical_name_systematic
;
Hexapotassium Di-mue-tellurido-bis(ditelluridoaluminate)
;
_chemical_formula_structural       'K6 (Te2 (Al Te2)2)'
_chemical_formula_sum              'Al2 K6 Te6'
_publ_section_title
;
Crystal structure of hexapotassium di-mue-
telluridobis(telluridoaluminate)
;
loop_
_citation_id
_citation_journal_abbrev
_citation_year
_citation_journal_volume
_citation_page_first
_citation_page_last
_citation_journal_id_ASTM
primary 'Zeitschrift fuer Kristallographie (1979-2010)' 1991 197 157 158 ZEKRDZ
_publ_author_name                  'Eisenmann, B.;Hofmann, A.'
_cell_length_a                     8.632(3)
_cell_length_b                     13.723(6)
_cell_length_c                     11.264(4)
_cell_angle_alpha                  90.
_cell_angle_beta                   127.707(60)
_cell_angle_gamma                  90.
_cell_volume                       1055.63
_cell_formula_units_Z              2
_symmetry_space_group_name_H-M     'P 1 21/c 1'
_symmetry_Int_Tables_number        14
_refine_ls_R_factor_all            .044
loop_
_symmetry_equiv_pos_site_id
_symmetry_equiv_pos_as_xyz
  1	'x, -y+.5, z+.5'
  2	'-x, -y, -z'
  3	'-x, y+.5, -z+.5'
  4	'x, y, z'
loop_
_atom_type_symbol
_atom_type_oxidation_number
Al3+	3
K1+	1
Te2-	-2
loop_
_atom_site_label
_atom_site_type_symbol
_atom_site_symmetry_multiplicity
_atom_site_Wyckoff_symbol
_atom_site_fract_x
_atom_site_fract_y
_atom_site_fract_z
_atom_site_occupancy
_atom_site_attached_hydrogens
K1 K1+ 4 e 0.3391(4) 0.0902(3) 0.6033(3) 1. 0 
K2 K1+ 4 e 0.1254(4) 0.8119(2) 0.4134(3) 1. 0 
K3 K1+ 4 e 0.3724(3) 0.3792(2) 0.5245(2) 1. 0 
Al1 Al3+ 4 e 0.0642(3) 0.0617(2) 0.1617(3) 1. 0 
Te1 Te2- 4 e 0.1630(1) 0.6122 0.6276(1) 1. 0 
Te2 Te2- 4 e 0.3573(1) 0.3189 0.8151(1) 1. 0 
Te3 Te2- 4 e 0.8695(1) 0.4473 0.7660(1) 1. 0 

#End of data_300168-ICSD


