data_152071-ICSD
#?2014 by Fachinformationszentrum Karlsruhe, and the U.S. Secretary of 
#Commerce on behalf of the United States.  All rights reserved.
_database_code_ICSD                152071
_audit_creation_date               2006/10/01
_chemical_name_systematic
;
Lithium Chromium Catena-disilicate - Ht
;
_chemical_formula_structural       'Li Cr (Si2 O6)'
_chemical_formula_sum              'Cr1 Li1 O6 Si2'
_chemical_name_mineral             Clinopyroxene
_publ_section_title
;
Structural changes upon the temperature dependent C2/c - P21/c phase 
transition in Li Me(3+) Si2 O6 clinopyroxenes, Me = Cr, Ga, Fe, V, Sc 
and In
;
loop_
_citation_id
_citation_journal_abbrev
_citation_year
_citation_journal_volume
_citation_page_first
_citation_page_last
_citation_journal_id_ASTM
primary 'Zeitschrift fuer Kristallographie (1979-2010)' 2004 219 585 605 ZEKRDZ
_publ_author_name                  'Redhammer, G.J.;Roth, G.'
_cell_length_a                     9.555(3)
_cell_length_b                     8.585(4)
_cell_length_c                     5.261(2)
_cell_angle_alpha                  90.
_cell_angle_beta                   110.07(4)
_cell_angle_gamma                  90.
_cell_volume                       405.35
_cell_formula_units_Z              4
_symmetry_space_group_name_H-M     'C 1 2/c 1'
_symmetry_Int_Tables_number        15
_refine_ls_R_factor_all            .0318
loop_
_symmetry_equiv_pos_site_id
_symmetry_equiv_pos_as_xyz
  1	'x, -y, z+.5'
  2	'-x, -y, -z'
  3	'-x, y, -z+.5'
  4	'x, y, z'
  5	'x+.5, -y+.5, z+.5'
  6	'-x+.5, -y+.5, -z'
  7	'-x+.5, y+.5, -z+.5'
  8	'x+.5, y+.5, z'
loop_
_atom_type_symbol
_atom_type_oxidation_number
Cr3+	3
Li1+	1
O2-	-2
Si4+	4
loop_
_atom_site_label
_atom_site_type_symbol
_atom_site_symmetry_multiplicity
_atom_site_Wyckoff_symbol
_atom_site_fract_x
_atom_site_fract_y
_atom_site_fract_z
_atom_site_occupancy
_atom_site_attached_hydrogens
_atom_site_U_iso_or_equiv
Li1 Li1+ 4 e 0 0.2660(9) 0.250 1. 0 0.022(2) 
Cr1 Cr3+ 4 e 0 0.9087(1) 0.250 1. 0 0.0073(3) 
Si1 Si4+ 8 f 0.2981(1) 0.0915(1) 0.2618(2) 1. 0 0.0075(3) 
O1 O2- 8 f 0.1154(2) 0.0847(2) 0.1475(5) 1. 0 0.0085(6) 
O2 O2- 8 f 0.3674(2) 0.2618(3) 0.3236(4) 1. 0 0.0124(5) 
O3 O2- 8 f 0.3575(2) -0.0012(3) 0.0516(5) 1. 0 0.0143(5) 

#End of data_152071-ICSD


