data_31316-ICSD
#?2014 by Fachinformationszentrum Karlsruhe, and the U.S. Secretary of 
#Commerce on behalf of the United States.  All rights reserved.
_database_code_ICSD                31316
_audit_creation_date               1983/12/31
_audit_update_record               2006/04/01
_chemical_name_systematic          'Lithium Scandium Oxide'
_chemical_formula_structural       'Li Sc O2'
_chemical_formula_sum              'Li1 O2 Sc1'
_publ_section_title
;
To the knowledge of the alpha-Li Fe O2 type: An examination of Li Sc 
O2 and Na Nd O2
;
loop_
_citation_id
_citation_journal_abbrev
_citation_year
_citation_journal_volume
_citation_page_first
_citation_page_last
_citation_journal_id_ASTM
primary 'Zeitschrift fuer Kristallographie (1979-2010)' 1983 164 121 127 ZEKRDZ
2 'Zeitschrift fuer Anorganische und Allgemeine Chemie (1950) (DE)'
 1965 339 130 143 ZAACAB
_publ_author_name                  'Kuo, Y.B.;Scheld, W.;Hoppe, R.'
_cell_length_a                     4.1828(4)
_cell_length_b                     4.1828(4)
_cell_length_c                     9.331(2)
_cell_angle_alpha                  90.
_cell_angle_beta                   90.
_cell_angle_gamma                  90.
_cell_volume                       163.25
_cell_formula_units_Z              4
_symmetry_space_group_name_H-M     'I 41/a m d S'
_symmetry_Int_Tables_number        141
_refine_ls_R_factor_all            .026
loop_
_symmetry_equiv_pos_site_id
_symmetry_equiv_pos_as_xyz
  1	'y, -x+.5, z+.25'
  2	'-y, x+.5, z+.25'
  3	'y, -x, -z'
  4	'-y, x, -z'
  5	'-y, -x+.5, z+.25'
  6	'y, x+.5, z+.25'
  7	'-y, -x, -z'
  8	'y, x, -z'
  9	'x, -y+.5, -z+.25'
 10	'-x, y+.5, -z+.25'
 11	'x, -y, z'
 12	'-x, y, z'
 13	'-x, -y+.5, -z+.25'
 14	'x, y+.5, -z+.25'
 15	'-x, -y, z'
 16	'x, y, z'
 17	'y+.5, -x, z+.75'
 18	'-y+.5, x, z+.75'
 19	'y+.5, -x+.5, -z+.5'
 20	'-y+.5, x+.5, -z+.5'
 21	'-y+.5, -x, z+.75'
 22	'y+.5, x, z+.75'
 23	'-y+.5, -x+.5, -z+.5'
 24	'y+.5, x+.5, -z+.5'
 25	'x+.5, -y, -z+.75'
 26	'-x+.5, y, -z+.75'
 27	'x+.5, -y+.5, z+.5'
 28	'-x+.5, y+.5, z+.5'
 29	'-x+.5, -y, -z+.75'
 30	'x+.5, y, -z+.75'
 31	'-x+.5, -y+.5, z+.5'
 32	'x+.5, y+.5, z+.5'
loop_
_atom_type_symbol
_atom_type_oxidation_number
Li1+	1
O2-	-2
Sc3+	3
loop_
_atom_site_label
_atom_site_type_symbol
_atom_site_symmetry_multiplicity
_atom_site_Wyckoff_symbol
_atom_site_fract_x
_atom_site_fract_y
_atom_site_fract_z
_atom_site_occupancy
_atom_site_attached_hydrogens
Li1 Li1+ 4 b 0 0 0.5 1. 0 
Sc1 Sc3+ 4 a 0 0 0 1. 0 
O1 O2- 8 e 0 0 0.2282(2) 1. 0 

loop_
_atom_site_aniso_label
_atom_site_aniso_type_symbol
_atom_site_aniso_U_11
_atom_site_aniso_U_22
_atom_site_aniso_U_33
_atom_site_aniso_U_12
_atom_site_aniso_U_13
_atom_site_aniso_U_23
Li1 Li1+ 0.0147(18) 0.0147(18) 0.0348(22) 0 0 0
Sc1 Sc3+ 0.0026(2) 0.0026(2) 0.0037(3) 0 0 0
O1 O2- 0.0063(10) 0.0049(10) 0.0067(10) 0 0 0
#End of data_31316-ICSD


