data_27117-ICSD
#?2014 by Fachinformationszentrum Karlsruhe, and the U.S. Secretary of 
#Commerce on behalf of the United States.  All rights reserved.
_database_code_ICSD                27117
_audit_creation_date               1980/01/01
_audit_update_record               2006/04/01
_chemical_name_systematic          'Sodium Ferrate(III) - Beta, Ht'
_chemical_formula_structural       'Na (Fe O2)'
_chemical_formula_sum              'Fe1 Na1 O2'
_publ_section_title
;
Structure d'une nouvelle variete de ferrite de sodium (Fe Na O2)
;
loop_
_citation_id
_citation_journal_abbrev
_citation_year
_citation_journal_volume
_citation_page_first
_citation_page_last
_citation_journal_id_ASTM
primary
;
Comptes Rendus Hebdomadaires des Seances de l`Academie des Sciences 
(1884 - 1965)
;
 1954 239 429 431 COREAF
2 'Phase Transition' 1992 38 127 220 PHTRDP
_publ_author_name                  'Bertaut, F.;Blum, P.'
_cell_length_a                     5.672
_cell_length_b                     7.136
_cell_length_c                     5.377
_cell_angle_alpha                  90.
_cell_angle_beta                   90.
_cell_angle_gamma                  90.
_cell_volume                       217.64
_cell_formula_units_Z              4
_symmetry_space_group_name_H-M     'P n a 21'
_symmetry_Int_Tables_number        33
loop_
_symmetry_equiv_pos_site_id
_symmetry_equiv_pos_as_xyz
  1	'x+.5, -y+.5, z'
  2	'-x+.5, y+.5, z+.5'
  3	'-x, -y, z+.5'
  4	'x, y, z'
loop_
_atom_type_symbol
_atom_type_oxidation_number
Fe3+	3
Na1+	1
O2-	-2
loop_
_atom_site_label
_atom_site_type_symbol
_atom_site_symmetry_multiplicity
_atom_site_Wyckoff_symbol
_atom_site_fract_x
_atom_site_fract_y
_atom_site_fract_z
_atom_site_occupancy
_atom_site_attached_hydrogens
Fe1 Fe3+ 4 a 0.075 0.128 0 1. 0 
Na1 Na1+ 4 a 0.4 0.135 0.5 1. 0 
O1 O2- 4 a 0.05 0.1 0.33 1. 0 
O2 O2- 4 a 0.38 0.125 -.1 1. 0 

#End of data_27117-ICSD


