data_31027-ICSD
#?2014 by Fachinformationszentrum Karlsruhe, and the U.S. Secretary of 
#Commerce on behalf of the United States.  All rights reserved.
_database_code_ICSD                31027
_audit_creation_date               1980/01/01
_audit_update_record               2010/02/01
_chemical_name_systematic          'Disilver Dimolybdate'
_chemical_formula_structural       'Ag2 (Mo2 O7)'
_chemical_formula_sum              'Ag2 Mo2 O7'
_publ_section_title
;
Crystal structures of silver dimolybdate, Ag2 Mo2 O7, and silver 
ditungstate, Ag2 W2 O7
;
loop_
_citation_id
_citation_journal_abbrev
_citation_year
_citation_journal_volume
_citation_page_first
_citation_page_last
_citation_journal_id_ASTM
primary
;
Journal of the Chemical Society. Dalton Transactions, Inorganic 
Chemistry (1972-)
;
 1976 1976 1316 1320 JCDTBI
_publ_author_name                  'Gatehouse, B.M.;Leverett, P.'
_cell_length_a                     6.095(3)
_cell_length_b                     7.501(3)
_cell_length_c                     7.681(3)
_cell_angle_alpha                  110.4(1)
_cell_angle_beta                   93.3(1)
_cell_angle_gamma                  113.5(1)
_cell_volume                       293.84
_cell_formula_units_Z              2
_symmetry_space_group_name_H-M     'P -1'
_symmetry_Int_Tables_number        2
_refine_ls_R_factor_all            .045
loop_
_symmetry_equiv_pos_site_id
_symmetry_equiv_pos_as_xyz
  1	'-x, -y, -z'
  2	'x, y, z'
loop_
_atom_type_symbol
_atom_type_oxidation_number
Ag1+	1
Mo6+	6
O2-	-2
loop_
_atom_site_label
_atom_site_type_symbol
_atom_site_symmetry_multiplicity
_atom_site_Wyckoff_symbol
_atom_site_fract_x
_atom_site_fract_y
_atom_site_fract_z
_atom_site_occupancy
_atom_site_attached_hydrogens
_atom_site_B_iso_or_equiv
Mo1 Mo6+ 2 i 0.7579(3) 0.2716(2) 0.4556(2) 1. 0 0 
Mo2 Mo6+ 2 i 0.3292(3) 0.3298(2) 0.2517(2) 1. 0 0 
Ag1 Ag1+ 2 i 0.7727(3) 0.2625(3) 0.9622(2) 1. 0 0 
Ag2 Ag1+ 2 i 0.2155(3) 0.2216(3) 0.7331(2) 1. 0 0 
O1 O2- 2 i 0.6264(26) 0.0151(22) 0.2777(20) 1. 0 0.9 
O2 O2- 2 i 0.1593(25) 0.0566(21) 0.1684(19) 1. 0 0.8 
O3 O2- 2 i 0.8526(27) 0.2393(23) 0.6578(20) 1. 0 1. 
O4 O2- 2 i 0.4912(23) 0.3297(20) 0.5300(17) 1. 0 0.4 
O5 O2- 2 i 0.6409(25) 0.3672(21) 0.2347(18) 1. 0 0.7 
O6 O2- 2 i 0.0767(23) 0.3845(19) 0.3954(17) 1. 0 0.4 
O7 O2- 2 i 0.2477(27) 0.4015(23) 0.0714(20) 1. 0 0.9 

loop_
_atom_site_aniso_label
_atom_site_aniso_type_symbol
_atom_site_aniso_U_11
_atom_site_aniso_U_22
_atom_site_aniso_U_33
_atom_site_aniso_U_12
_atom_site_aniso_U_13
_atom_site_aniso_U_23
Mo1 Mo6+ 0.0049(5) 0.0066(7) 0.0085(7) 0.0030(6) 0.0028(5) 0.0045(5)
Mo2 Mo6+ 0.0056(7) 0.0080(7) 0.0046(6) 0.0037(6) 0.0018(5) 0.0018(5)
Ag1 Ag1+ 0.0243(9) 0.0271(9) 0.0118(7) 0.0153(7) 0.0088(6) 0.0044(6)
Ag2 Ag1+ 0.0206(8) 0.0234(8) 0.0221(8) 0.0164(7) 0.0120(6) 0.0137(6)
#End of data_31027-ICSD


