data_8274-ICSD
#?2014 by Fachinformationszentrum Karlsruhe, and the U.S. Secretary of 
#Commerce on behalf of the United States.  All rights reserved.
_database_code_ICSD                8274
_audit_creation_date               1980/01/01
_audit_update_record               2012/02/01
_chemical_name_systematic
;
Tripotassium Neodymium Bis(phosphate(V))
;
_chemical_formula_structural       'K3 Nd (P O4)2'
_chemical_formula_sum              'K3 Nd1 O8 P2'
_publ_section_title
;
Crystal structure and fluorescence lifetime of potassium neodymium 
orthophosphate, K3 Nd (P O4)2, a new laser material
;
loop_
_citation_id
_citation_journal_abbrev
_citation_year
_citation_journal_volume
_citation_page_first
_citation_page_last
_citation_journal_id_ASTM
primary 'Materials Research Bulletin' 1976 11 421 428 MRBUAC
_publ_author_name                  'Hong, Y.P.;Chinn, S.R.'
_cell_length_a                     9.532(2)
_cell_length_b                     5.631(3)
_cell_length_c                     7.444(3)
_cell_angle_alpha                  90.
_cell_angle_beta                   90.95(2)
_cell_angle_gamma                  90.
_cell_volume                       399.5
_cell_formula_units_Z              2
_symmetry_space_group_name_H-M     'P 1 21/m 1'
_symmetry_Int_Tables_number        11
_refine_ls_R_factor_all            .07
loop_
_symmetry_equiv_pos_site_id
_symmetry_equiv_pos_as_xyz
  1	'x, -y+.5, z'
  2	'-x, -y, -z'
  3	'-x, y+.5, -z'
  4	'x, y, z'
loop_
_atom_type_symbol
_atom_type_oxidation_number
K1+	1
Nd3+	3
O2-	-2
P5+	5
loop_
_atom_site_label
_atom_site_type_symbol
_atom_site_symmetry_multiplicity
_atom_site_Wyckoff_symbol
_atom_site_fract_x
_atom_site_fract_y
_atom_site_fract_z
_atom_site_occupancy
_atom_site_attached_hydrogens
K1 K1+ 2 e 0.310(1) 0.25 0.493(1) 1. 0 
K2 K1+ 2 e 0.581(1) 0.25 0.202(1) 1. 0 
K3 K1+ 2 e 0.905(1) 0.25 0.639(1) 1. 0 
Nd1 Nd3+ 2 e 0.2085(2) 0.25 0.0916(2) 1. 0 
P1 P5+ 2 e 0.926(1) 0.25 0.194(1) 1. 0 
P2 P5+ 2 e 0.586 0.25 0.763(1) 1. 0 
O1 O2- 2 e 0.430(2) 0.25 0.827(3) 1. 0 
O2 O2- 2 e 0.603(3) 0.25 0.566(3) 1. 0 
O3 O2- 2 e 0.080(2) 0.25 0.284(3) 1. 0 
O4 O2- 2 e 0.947(3) 0.25 0.004(3) 1. 0 
O5 O2- 4 f 0.343(2) 0.535(4) 0.154(2) 1. 0 
O6 O2- 4 f 0.154(2) 0.532(3) 0.752(2) 1. 0 

#End of data_8274-ICSD


