data_34764-ICSD
#?2014 by Fachinformationszentrum Karlsruhe, and the U.S. Secretary of 
#Commerce on behalf of the United States.  All rights reserved.
_database_code_ICSD                34764
_audit_creation_date               1980/01/01
_audit_update_record               2004/10/01
_chemical_name_systematic
;
Potassium Dihydrogendiphosphate(V) Hemihydrate
;
_chemical_formula_structural       'K2 (H2 P2 O7) (H2 O)0.5'
_chemical_formula_sum              'H3 K2 O7.5 P2'
_publ_section_title
;
Structure cristalline du dihydrogeno-pyrophosphate dipotassique 
hemihydrate K2 H2 P2 O7 (H2 O)0.5
;
loop_
_citation_id
_citation_journal_abbrev
_citation_year
_citation_journal_volume
_citation_page_first
_citation_page_last
_citation_journal_id_ASTM
primary 'Acta Crystallographica B (24,1968-38,1982)' 1973 29 2913 2918 ACBCAR
_publ_author_name
;
Dumas, Y.;Galigne, J.L.;Falgueirettes, J.
;
_cell_length_a                     17.96(1)
_cell_length_b                     6.958(5)
_cell_length_c                     14.24(1)
_cell_angle_alpha                  90.
_cell_angle_beta                   120.9(1)
_cell_angle_gamma                  90.
_cell_volume                       1526.94
_cell_formula_units_Z              8
_symmetry_space_group_name_H-M     'C 1 2/c 1'
_symmetry_Int_Tables_number        15
_refine_ls_R_factor_all            .036
loop_
_symmetry_equiv_pos_site_id
_symmetry_equiv_pos_as_xyz
  1	'x, -y, z+.5'
  2	'-x, -y, -z'
  3	'-x, y, -z+.5'
  4	'x, y, z'
  5	'x+.5, -y+.5, z+.5'
  6	'-x+.5, -y+.5, -z'
  7	'-x+.5, y+.5, -z+.5'
  8	'x+.5, y+.5, z'
loop_
_atom_type_symbol
_atom_type_oxidation_number
H1+	1
K1+	1
O2-	-2
P5+	5
loop_
_atom_site_label
_atom_site_type_symbol
_atom_site_symmetry_multiplicity
_atom_site_Wyckoff_symbol
_atom_site_fract_x
_atom_site_fract_y
_atom_site_fract_z
_atom_site_occupancy
_atom_site_attached_hydrogens
_atom_site_B_iso_or_equiv
K1 K1+ 8 f 0.22552(6) 0.4114(1) 0.37395(7) 1. 0 0 
K2 K1+ 8 f 0.48429(6) 0.2801(1) 0.60312(8) 1. 0 0 
P1 P5+ 8 f 0.35717(6) 0.4091(1) 0.21334(7) 1. 0 0 
P2 P5+ 8 f 0.16802(6) 0.4477(1) 0.09332(7) 1. 0 0 
O1 O2- 8 f 0.4154(2) 0.3473(4) 0.3372(2) 1. 0 0 
O2 O2- 8 f 0.3542(2) 0.2497(4) 0.1401(2) 1. 0 0 
O3 O2- 8 f 0.3837(2) 0.6021(4) 0.1982(3) 1. 0 0 
O4 O2- 8 f 0.2629(2) 0.4184(4) 0.2020(2) 1. 0 0 
O5 O2- 8 f 0.1098(2) 0.4904(4) 0.1374(2) 1. 0 0 
O6 O2- 8 f 0.1736(2) 0.5960(4) 0.0217(2) 1. 0 0 
O7 O2- 8 f 0.1443(2) 0.2441(4) 0.0378(2) 1. 0 0 
O8 O2- 4 e 0.5 0.9981(7) 0.25 1. 0 0 
H1 H1+ 8 f 0.4048 0.1981 0.3478 1. 0 1.8 
H2 H1+ 8 f 0.1449 0.2467 0.9624 1. 0 1.9 
H3 H1+ 8 f 0.449 0.0861 0.2115 1. 0 2.4 

#End of data_34764-ICSD


