data_260423-ICSD
#?2014 by Fachinformationszentrum Karlsruhe, and the U.S. Secretary of 
#Commerce on behalf of the United States.  All rights reserved.
_database_code_ICSD                260423
_audit_creation_date               2009/08/01
_chemical_name_systematic          'Cesium Magnesium Orthophosphate'
_chemical_formula_structural       'Cs Mg (P O4)'
_chemical_formula_sum              'Cs1 Mg1 O4 P1'
_publ_section_title                'Cs Mg P O4'
loop_
_citation_id
_citation_journal_abbrev
_citation_year
_citation_journal_volume
_citation_journal_issue
_citation_page_first
_citation_page_last
_citation_journal_id_ASTM
primary 'Acta Crystallographica, Section E. Structure Reports Online'
 2009 65 8 i58 i58 ACSEBH
_publ_author_name
;
Strutynska, N.Yu.;Zatovsky, I.V.;Baumer, V.N.;Slobodyanik, N.S.
;
_cell_length_a                     8.9327(2)
_cell_length_b                     5.5277(2)
_cell_length_c                     9.6487(3)
_cell_angle_alpha                  90
_cell_angle_beta                   90
_cell_angle_gamma                  90
_cell_volume                       476.43
_cell_formula_units_Z              4
_symmetry_space_group_name_H-M     'P n m a'
_symmetry_Int_Tables_number        62
_refine_ls_R_factor_all            .021
loop_
_symmetry_equiv_pos_site_id
_symmetry_equiv_pos_as_xyz
  1	'x+.5, y, -z+.5'
  2	'x, -y+.5, z'
  3	'-x+.5, y+.5, z+.5'
  4	'-x, -y, -z'
  5	'-x+.5, -y, z+.5'
  6	'-x, y+.5, -z'
  7	'x+.5, -y+.5, -z+.5'
  8	'x, y, z'
loop_
_atom_type_symbol
_atom_type_oxidation_number
Cs1+	1
Mg2+	2
O2-	-2
P5+	5
loop_
_atom_site_label
_atom_site_type_symbol
_atom_site_symmetry_multiplicity
_atom_site_Wyckoff_symbol
_atom_site_fract_x
_atom_site_fract_y
_atom_site_fract_z
_atom_site_occupancy
_atom_site_attached_hydrogens
_atom_site_U_iso_or_equiv
Cs1 Cs1+ 4 c 0.497176(11) 0.25 0.703332(10) 1 0 0.02472(2) 
Mg1 Mg2+ 4 c 0.32166(5) 0.25 0.08109(5) 1 0 0.01434(11) 
P1 P5+ 4 c 0.20302(4) 0.25 0.41474(4) 1 0 0.01345(7) 
O1 O2- 4 c 0.26034(19) 0.25 0.26799(13) 1 0 0.0590(6) 
O2 O2- 8 d 0.26291(11) 0.02604(13) 0.48850(9) 1 0 0.0328(2) 
O3 O2- 4 c 0.03356(14) 0.25 0.41501(19) 1 0 0.0345(4) 

loop_
_atom_site_aniso_label
_atom_site_aniso_type_symbol
_atom_site_aniso_U_11
_atom_site_aniso_U_22
_atom_site_aniso_U_33
_atom_site_aniso_U_12
_atom_site_aniso_U_13
_atom_site_aniso_U_23
Cs1 Cs1+ 0.02161(4) 0.02632(5) 0.02623(4) 0 -0.00031(4) 0
Mg1 Mg2+ 0.01301(19) 0.0133(2) 0.0168(2) 0 0.00166(17) 0
P1 P5+ 0.01272(13) 0.01259(14) 0.01505(14) 0 0.00207(12) 0
O1 O2- 0.0594(11) 0.1014(17) 0.0162(7) 0 0.0121(7) 0
O2 O2- 0.0239(4) 0.0190(4) 0.0555(6) -0.0002(3) -0.0016(4) 0.0156(4)
O3 O2- 0.0121(4) 0.0286(6) 0.0629(10) 0 -0.0003(6) 0
#End of data_260423-ICSD


