data_422263-ICSD
#?2014 by Fachinformationszentrum Karlsruhe, and the U.S. Secretary of 
#Commerce on behalf of the United States.  All rights reserved.
_database_code_ICSD                422263
_audit_creation_date               2011/08/01
_chemical_name_systematic          'Magnesium Difluoride - Beta Phase'
_chemical_formula_structural       'Mg F2'
_chemical_formula_sum              'F2 Mg1'
_publ_section_title
;
Structural evolution of magnesium difluoride: from an amorphous 
deposit to a new polymorph
;
loop_
_citation_id
_citation_journal_abbrev
_citation_year
_citation_journal_volume
_citation_journal_issue
_citation_page_first
_citation_page_last
_citation_journal_id_ASTM
primary 'Inorganic Chemistry' 2011 50 4 1563 1569 INOCAJ
_publ_author_name
;
Bach, A.;Fischer, D.;Mu Xiaoke;Sigle, W.;van Aken, P.A.;Jansen, M.
;
_cell_length_a                     4.59242(187)
_cell_length_b                     4.93828(323)
_cell_length_c                     2.95934(310)
_cell_angle_alpha                  90
_cell_angle_beta                   90
_cell_angle_gamma                  90
_cell_volume                       67.11
_cell_formula_units_Z              2
_symmetry_space_group_name_H-M     'P n n m'
_symmetry_Int_Tables_number        58
_refine_ls_R_factor_all            .046
loop_
_symmetry_equiv_pos_site_id
_symmetry_equiv_pos_as_xyz
  1	'x+.5, -y+.5, z+.5'
  2	'-x+.5, y+.5, z+.5'
  3	'x, y, -z'
  4	'-x, -y, -z'
  5	'-x+.5, y+.5, -z+.5'
  6	'x+.5, -y+.5, -z+.5'
  7	'-x, -y, z'
  8	'x, y, z'
loop_
_atom_type_symbol
_atom_type_oxidation_number
F1-	-1
Mg2+	2
loop_
_atom_site_label
_atom_site_type_symbol
_atom_site_symmetry_multiplicity
_atom_site_Wyckoff_symbol
_atom_site_fract_x
_atom_site_fract_y
_atom_site_fract_z
_atom_site_occupancy
_atom_site_attached_hydrogens
_atom_site_B_iso_or_equiv
Mg1 Mg2+ 2 a 0 0 0 1 0 3.4 
F1 F1- 4 g 0.275 0.325 0 1 0 3.4 

#End of data_422263-ICSD


