data_16874-ICSD
#?2014 by Fachinformationszentrum Karlsruhe, and the U.S. Secretary of 
#Commerce on behalf of the United States.  All rights reserved.
_database_code_ICSD                16874
_audit_creation_date               1986/10/02
_audit_update_record               2013/08/01
_chemical_name_systematic
;
Dipotassium Heptafluoroprotactinate(V)
;
_chemical_formula_structural       'K2 (Pa F7)'
_chemical_formula_sum              'F7 K2 Pa1'
_publ_section_title
;
The crystal structure of potassium heptafluoroprotactinate(V) and 
bonding in M L9 complexes
;
loop_
_citation_id
_citation_journal_abbrev
_citation_year
_citation_journal_volume
_citation_page_first
_citation_page_last
_citation_journal_id_ASTM
primary
;
Journal of the Chemical Society A: Inorganic, Physical, Theoretical 
(1966-1971)
;
 1967 1967 1429 1434 JCSIAP
_publ_author_name
;
Brown, D.;Kettle, S.F.A.;Smith, A.J.
;
_cell_length_a                     13.760(4)
_cell_length_b                     6.742(2)
_cell_length_c                     8.145(2)
_cell_angle_alpha                  90.
_cell_angle_beta                   125.17(2)
_cell_angle_gamma                  90.
_cell_volume                       617.67
_cell_formula_units_Z              4
_symmetry_space_group_name_H-M     'C 1 2/c 1'
_symmetry_Int_Tables_number        15
_refine_ls_R_factor_all            .0675
loop_
_symmetry_equiv_pos_site_id
_symmetry_equiv_pos_as_xyz
  1	'x, -y, z+.5'
  2	'-x, -y, -z'
  3	'-x, y, -z+.5'
  4	'x, y, z'
  5	'x+.5, -y+.5, z+.5'
  6	'-x+.5, -y+.5, -z'
  7	'-x+.5, y+.5, -z+.5'
  8	'x+.5, y+.5, z'
loop_
_atom_type_symbol
_atom_type_oxidation_number
F1-	-1
K1+	1
Pa5+	5
loop_
_atom_site_label
_atom_site_type_symbol
_atom_site_symmetry_multiplicity
_atom_site_Wyckoff_symbol
_atom_site_fract_x
_atom_site_fract_y
_atom_site_fract_z
_atom_site_occupancy
_atom_site_attached_hydrogens
_atom_site_B_iso_or_equiv
Pa1 Pa5+ 4 e 0 0.0231(2) 0.25 1. 0 0.7374 
K1 K1+ 8 f 0.3268(5) 0.0076(8) 0.2604(10) 1. 0 2.12 
F1 F1- 8 f 0.8236(16) 0.1180(25) 0.1478(31) 1. 0 2.773 
F2 F1- 8 f 0.0744(14) 0.1339(22) 0.5697(28) 1. 0 2.05 
F3 F1- 8 f 0.8898(13) 0.7785(21) 0.0716(26) 1. 0 1.933 
F4 F1- 4 e 0 0.3485(35) 0.25 1. 0 2.724 

#End of data_16874-ICSD


