data_413059-ICSD
#?2014 by Fachinformationszentrum Karlsruhe, and the U.S. Secretary of 
#Commerce on behalf of the United States.  All rights reserved.
_database_code_ICSD                413059
_audit_creation_date               2004/10/01
_chemical_name_systematic          'Tetracalcium Pentatellurate'
_chemical_formula_structural       'Ca4 (Te5 O14)'
_chemical_formula_sum              'Ca4 O14 Te5'
_publ_section_title
;
New phases in the systems Ca - Te - O and Cd - Te - O : the calcium 
tellurite(IV) Ca4 Te5 O14 and the cadmium compounds Cd2 Te3 O9 and 
Cd2 Te2 O7 with mixed-valent oxotellurium(IV/VI) anions
;
loop_
_citation_id
_citation_journal_abbrev
_citation_year
_citation_journal_volume
_citation_page_first
_citation_page_last
_citation_journal_id_ASTM
primary 'Solid State Sciences' 2004 6 29 37 SSSCFJ
_publ_author_name                  'Weil, M.'
_cell_length_a                     10.9536(16)
_cell_length_b                     16.556(2)
_cell_length_c                     15.779(2)
_cell_angle_alpha                  90.
_cell_angle_beta                   90.
_cell_angle_gamma                  90.
_cell_volume                       2861.49
_cell_formula_units_Z              8
_symmetry_space_group_name_H-M     'P b c a'
_symmetry_Int_Tables_number        61
_refine_ls_R_factor_all            .022
loop_
_symmetry_equiv_pos_site_id
_symmetry_equiv_pos_as_xyz
  1	'x+.5, y, -z+.5'
  2	'x, -y+.5, z+.5'
  3	'-x+.5, y+.5, z'
  4	'-x, -y, -z'
  5	'-x+.5, -y, z+.5'
  6	'-x, y+.5, -z+.5'
  7	'x+.5, -y+.5, -z'
  8	'x, y, z'
loop_
_atom_type_symbol
_atom_type_oxidation_number
Ca2+	2
O2-	-2
Te4+	4
loop_
_atom_site_label
_atom_site_type_symbol
_atom_site_symmetry_multiplicity
_atom_site_Wyckoff_symbol
_atom_site_fract_x
_atom_site_fract_y
_atom_site_fract_z
_atom_site_occupancy
_atom_site_attached_hydrogens
_atom_site_U_iso_or_equiv
Ca1 Ca2+ 8 c 0.11615(4) 0.35440(3) 0.24400(3) 1. 0 0.01039(10) 
Ca2 Ca2+ 8 c 0.12329(4) 0.01002(3) 0.26409(4) 1. 0 0.01031(10) 
Ca3 Ca2+ 8 c 0.38035(4) 0.18133(3) 0.23761(3) 1. 0 0.00944(10) 
Ca4 Ca2+ 8 c 0.38527(5) 0.01233(3) 0.41043(3) 1. 0 0.01066(10) 
Te1 Te4+ 8 c 0.102704(15) 0.158717(10) 0.090344(10) 1. 0 0.00837(4) 
Te2 Te4+ 8 c 0.136511(14) 0.176225(10) 0.407596(10) 1. 0 0.00852(4) 
Te3 Te4+ 8 c 0.372404(13) 0.346397(10) 0.414636(10) 1. 0 0.00870(4) 
Te4 Te4+ 8 c 0.375695(13) 0.012757(10) 0.102563(11) 1. 0 0.00797(4) 
Te5 Te4+ 8 c 0.387208(14) 0.346282(10) 0.092312(10) 1. 0 0.00842(4) 
O1 O2- 8 c 0.00519(16) 0.42860(11) 0.13005(12) 1. 0 0.0158(4) 
O2 O2- 8 c 0.01531(16) 0.10527(11) 0.17522(11) 1. 0 0.0124(3) 
O3 O2- 8 c 0.05856(17) 0.08065(11) 0.01153(12) 1. 0 0.0148(4) 
O4 O2- 8 c 0.07042(17) 0.23945(11) 0.32146(12) 1. 0 0.0151(4) 
O5 O2- 8 c 0.19062(16) 0.48586(11) 0.20662(12) 1. 0 0.0138(4) 
O6 O2- 8 c 0.24382(15) 0.11417(11) 0.34203(11) 1. 0 0.0119(3) 
O7 O2- 8 c 0.24957(16) 0.25924(12) 0.44670(12) 1. 0 0.0171(4) 
O8 O2- 8 c 0.25717(17) 0.12351(12) 0.12251(13) 1. 0 0.0191(4) 
O9 O2- 8 c 0.25934(16) 0.41070(11) 0.35660(12) 1. 0 0.0120(3) 
O10 O2- 8 c 0.27848(16) 0.29942(11) 0.16953(11) 1. 0 0.0132(4) 
O11 O2- 8 c 0.28562(17) 0.41810(11) 0.03405(12) 1. 0 0.0161(4) 
O12 O2- 8 c 0.43814(17) 0.28276(11) 0.33005(12) 1. 0 0.0148(4) 
O13 O2- 8 c 0.46856(16) 0.41957(11) 0.16540(11) 1. 0 0.0110(3) 
O14 O2- 8 c 0.49030(15) 0.08726(10) 0.14747(12) 1. 0 0.0116(3) 

loop_
_atom_site_aniso_label
_atom_site_aniso_type_symbol
_atom_site_aniso_U_11
_atom_site_aniso_U_22
_atom_site_aniso_U_33
_atom_site_aniso_U_12
_atom_site_aniso_U_13
_atom_site_aniso_U_23
Ca1 Ca2+ 0.0101(2) 0.0091(2) 0.0119(2) 0.00030(16) 0.00147(17) 0.00083(17)
Ca2 Ca2+ 0.0080(2) 0.0120(2) 0.0110(2) 0.00074(16) -.00020(17) -.00186(18)
Ca3 Ca2+ 0.0095(2) 0.0096(2) 0.0092(2) 0.00020(16) -.00049(17) -.00026(17)
Ca4 Ca2+ 0.0097(2) 0.0118(2) 0.0105(2) 0.00003(16) -.00057(17) 0.00102(17)
Te1 Te4+ 0.00812(7) 0.00813(8) 0.00884(8) 0.00108(5) -.00052(5) 0.00011(5)
Te2 Te4+ 0.00889(7) 0.00858(8) 0.00810(8) 0.00024(5) 0.00070(5) 0.00044(5)
Te3 Te4+ 0.00909(8) 0.00938(8) 0.00763(8) 0.00018(5) -.00088(5) -.00033(5)
Te4 Te4+ 0.00736(7) 0.00852(8) 0.00802(8) -.00020(5) 0.00009(5) 0.00043(5)
Te5 Te4+ 0.00827(7) 0.00905(8) 0.00794(8) 0.00013(5) -.00032(5) 0.00010(5)
O1 O2- 0.0135(8) 0.0150(9) 0.0188(10) -.0060(7) -.0027(7) 0.0000(8)
O2 O2- 0.0150(8) 0.0120(9) 0.0103(9) 0.0008(6) 0.0025(7) 0.0009(7)
O3 O2- 0.0175(9) 0.0157(9) 0.0111(9) -.0023(7) -.0008(7) -.0041(7)
O4 O2- 0.0176(9) 0.0116(9) 0.0160(9) -.0016(7) -.0053(7) 0.0045(7)
O5 O2- 0.0136(8) 0.0150(9) 0.0128(9) -.0024(7) -.0054(7) 0.0041(7)
O6 O2- 0.0112(8) 0.0122(9) 0.0122(9) 0.0013(6) 0.0026(7) -.0007(7)
O7 O2- 0.0182(9) 0.0169(9) 0.0161(10) -.0088(7) -.0007(7) -.0004(7)
O8 O2- 0.0136(8) 0.0167(10) 0.0270(11) 0.0046(7) -.0081(8) -.0030(8)
O9 O2- 0.0110(8) 0.0109(8) 0.0142(9) 0.0018(6) -.0007(7) 0.0019(7)
O10 O2- 0.0129(8) 0.0134(9) 0.0133(9) 0.0000(7) 0.0034(7) 0.0026(7)
O11 O2- 0.0150(9) 0.0165(9) 0.0167(10) 0.0025(7) -.0024(7) 0.0048(7)
O12 O2- 0.0158(9) 0.0121(9) 0.0165(10) 0.0003(7) 0.0029(7) -.0048(7)
O13 O2- 0.0109(8) 0.0120(8) 0.0100(8) -.0009(6) -.0014(6) -.0026(6)
O14 O2- 0.0089(8) 0.0112(8) 0.0148(9) -.0028(6) -.0021(6) -.0002(7)
#End of data_413059-ICSD


