data_71218-ICSD
#?2014 by Fachinformationszentrum Karlsruhe, and the U.S. Secretary of 
#Commerce on behalf of the United States.  All rights reserved.
_database_code_ICSD                71218
_audit_creation_date               1993/01/06
_audit_update_record               2011/02/01
_chemical_name_systematic          'Potassium Niobium Oxide (1/8/14)'
_chemical_formula_structural       'K Nb8 O14'
_chemical_formula_sum              'K1 Nb8 O14'
_publ_section_title
;
Oxoniobates with 13 and 15 electrons in (Nb6 O12) clusters: the 
structures of K Nb8 O14 and La Nb8 O14
;
loop_
_citation_id
_citation_journal_abbrev
_citation_year
_citation_journal_volume
_citation_page_first
_citation_page_last
_citation_journal_id_ASTM
primary
;
Journal of the Chemical Society. Dalton Transactions, Inorganic 
Chemistry (1972-)
;
 1991 1991 829 832 JCDTBI
_publ_author_name                  'Koehler, J.;Tischtau, R.;Simon, A.'
_cell_length_a                     9.352(1)
_cell_length_b                     10.268(2)
_cell_length_c                     5.929(1)
_cell_angle_alpha                  90.
_cell_angle_beta                   90.
_cell_angle_gamma                  90.
_cell_volume                       569.34
_cell_formula_units_Z              2
_symmetry_space_group_name_H-M     'P b a m'
_symmetry_Int_Tables_number        55
_refine_ls_R_factor_all            .075
loop_
_symmetry_equiv_pos_site_id
_symmetry_equiv_pos_as_xyz
  1	'x+.5, -y+.5, z'
  2	'-x+.5, y+.5, z'
  3	'x, y, -z'
  4	'-x, -y, -z'
  5	'-x+.5, y+.5, -z'
  6	'x+.5, -y+.5, -z'
  7	'-x, -y, z'
  8	'x, y, z'
loop_
_atom_type_symbol
_atom_type_oxidation_number
K1+	1
Nb2.833+	2.833
Nb5+	5
O2-	-2
loop_
_atom_site_label
_atom_site_type_symbol
_atom_site_symmetry_multiplicity
_atom_site_Wyckoff_symbol
_atom_site_fract_x
_atom_site_fract_y
_atom_site_fract_z
_atom_site_occupancy
_atom_site_attached_hydrogens
_atom_site_U_iso_or_equiv
Nb1 Nb2.833+ 8 i 0.1259(2) 0.9241(1) 0.7312(3) 1. 0 0 
Nb2 Nb2.833+ 4 h 0.1194(4) 0.1675(2) 0.5 1. 0 0 
Nb3 Nb5+ 4 g 0.1188(4) 0.6616(2) 0 1. 0 0 
K1 K1+ 2 d 0 0.5 0.5 1. 0 0 
O1 O2- 4 g 0.237(2) 0.818(2) 0 1. 0 0.0177(42) 
O2 O2- 4 h 0.245(2) 0.343(2) 0.5 1. 0 0.0190(46) 
O3 O2- 2 a 0 0 0 1. 0 0.0195(53) 
O4 O2- 2 c 0 0.5 0 1. 0 0.0264(60) 
O5 O2- 8 i 0.248(1) 0.590(1) 0.246(2) 1. 0 0.0182(30) 
O6 O2- 8 i 0.004(1) 0.7496(9) 0.756(2) 1. 0 0.0162(27) 

loop_
_atom_site_aniso_label
_atom_site_aniso_type_symbol
_atom_site_aniso_U_11
_atom_site_aniso_U_22
_atom_site_aniso_U_33
_atom_site_aniso_U_12
_atom_site_aniso_U_13
_atom_site_aniso_U_23
Nb1 Nb2.833+ 0.0177(8) 0.0196(7) 0.0186(7) -.0006(8) 0.0003(10) 0.0001(7)
Nb2 Nb2.833+ 0.0114(11) 0.0195(10) 0.0198(10) 0.0025(11) 0 0
Nb3 Nb5+ 0.0242(14) 0.0303(12) 0.0188(11) 0.0019(14) 0 0
K1 K1+ 0.0190(42) 0.0297(41) 0.0284(42) 0.0013(37) 0 0
#End of data_71218-ICSD


