data_260745-ICSD
#?2014 by Fachinformationszentrum Karlsruhe, and the U.S. Secretary of 
#Commerce on behalf of the United States.  All rights reserved.
_database_code_ICSD                260745
_audit_creation_date               2010/08/01
_chemical_name_systematic          'Calcium Distrontium Tungstate(VI)'
_chemical_formula_structural       'Ca Sr2 (W O6)'
_chemical_formula_sum              'Ca1 O6 Sr2 W1'
_publ_section_title
;
Crystal growth and twinned crystal structure of Sr2 Ca W O6
;
loop_
_citation_id
_citation_journal_abbrev
_citation_year
_citation_journal_volume
_citation_journal_issue
_citation_page_first
_citation_page_last
_citation_journal_id_ASTM
primary 'Acta Crystallographica, Section B: Structural Science'
 2010 66 2 109 116 ASBSDK
_publ_author_name
;
Madariaga, G.;Faik, A.;Breczewski, T.;Igartua, J.M.
;
_cell_length_a                     5.800(2)
_cell_length_b                     5.813(2)
_cell_length_c                     8.207(5)
_cell_angle_alpha                  90.00
_cell_angle_beta                   89.966(5)
_cell_angle_gamma                  90.00
_cell_volume                       276.7
_cell_formula_units_Z              2
_symmetry_space_group_name_H-M     'P 1 21/n 1'
_symmetry_Int_Tables_number        14
_refine_ls_R_factor_all            .042
loop_
_symmetry_equiv_pos_site_id
_symmetry_equiv_pos_as_xyz
  1	'-x+.5, y+.5, -z+.5'
  2	'-x, -y, -z'
  3	'x+.5, -y+.5, z+.5'
  4	'x, y, z'
loop_
_atom_type_symbol
_atom_type_oxidation_number
Ca2+	2
O2-	-2
Sr2+	2
W6+	6
loop_
_atom_site_label
_atom_site_type_symbol
_atom_site_symmetry_multiplicity
_atom_site_Wyckoff_symbol
_atom_site_fract_x
_atom_site_fract_y
_atom_site_fract_z
_atom_site_occupancy
_atom_site_attached_hydrogens
_atom_site_U_iso_or_equiv
Sr1 Sr2+ 4 e 0.0010(19) 0.5358(10) 0.2502(10) 1 0 0.0086(16) 
Ca1 Ca2+ 2 b 0 0 0.5 1 0 0.0053(11) 
W1 W6+ 2 a 0 0 0 1 0 0.0027(4) 
O1 O2- 4 e 0.079(5) 0.018(4) -0.224(5) 1 0 0.038(4) 
O2 O2- 4 e 0.277(3) -0.169(4) 0.042(3) 1 0 0.038(4) 
O3 O2- 4 e 0.161(4) 0.283(3) 0.040(3) 1 0 0.038(4) 

loop_
_atom_site_aniso_label
_atom_site_aniso_type_symbol
_atom_site_aniso_U_11
_atom_site_aniso_U_22
_atom_site_aniso_U_33
_atom_site_aniso_U_12
_atom_site_aniso_U_13
_atom_site_aniso_U_23
Sr1 Sr2+ 0.013(3) 0.012(2) 0.001(3) 0 0 0
#End of data_260745-ICSD


