data_66570-ICSD
#?2014 by Fachinformationszentrum Karlsruhe, and the U.S. Secretary of 
#Commerce on behalf of the United States.  All rights reserved.
_database_code_ICSD                66570
_audit_creation_date               1994/01/19
_audit_update_record               2003/04/01
_chemical_name_systematic          'Potassium Oxotitanium Phosphate(V)'
_chemical_formula_structural       'K (Ti O) (P O4)'
_chemical_formula_sum              'K1 O5 P1 Ti1'
_publ_section_title
;
The electron-density distribution in K Ti O P O4
;
loop_
_citation_id
_citation_journal_abbrev
_citation_year
_citation_journal_volume
_citation_page_first
_citation_page_last
_citation_journal_id_ASTM
primary 'Acta Crystallographica, Section B: Structural Science'
 1991 47 660 672 ASBSDK
2 'Phase Transition' 1992 38 127 220 PHTRDP
_publ_author_name
;
Hansen, N.K.;Protas, J.;Marnier, G.
;
_cell_length_a                     12.8209(9)
_cell_length_b                     6.4052(6)
_cell_length_c                     10.5932(9)
_cell_angle_alpha                  90.
_cell_angle_beta                   90.
_cell_angle_gamma                  90.
_cell_volume                       869.92
_cell_formula_units_Z              8
_symmetry_space_group_name_H-M     'P n a 21'
_symmetry_Int_Tables_number        33
_refine_ls_R_factor_all            .018
loop_
_symmetry_equiv_pos_site_id
_symmetry_equiv_pos_as_xyz
  1	'x+.5, -y+.5, z'
  2	'-x+.5, y+.5, z+.5'
  3	'-x, -y, z+.5'
  4	'x, y, z'
loop_
_atom_type_symbol
_atom_type_oxidation_number
K1+	1
O2-	-2
P5+	5
Ti4+	4
loop_
_atom_site_label
_atom_site_type_symbol
_atom_site_symmetry_multiplicity
_atom_site_Wyckoff_symbol
_atom_site_fract_x
_atom_site_fract_y
_atom_site_fract_z
_atom_site_occupancy
_atom_site_attached_hydrogens
Ti1 Ti4+ 4 a 0.37293(1) 0.50001(2) 0 1. 0 
O1 O2- 4 a 0.27623(4) 0.54109(9) -.11024 1. 0 
Ti2 Ti4+ 4 a 0.24666(1) 0.26941(2) 0.25129(2) 1. 0 
O2 O2- 4 a 0.27529(4) 0.46681(8) 0.14324(5) 1. 0 
P1 P5+ 4 a 0.49805(1) 0.33625(2) 0.25987(2) 1. 0 
O3 O2- 4 a 0.48570(4) 0.48655(8) 0.14995(5) 1. 0 
O4 O2- 4 a 0.50992(4) 0.46518(9) 0.38292(5) 1. 0 
O5 O2- 4 a 0.40031(4) 0.19910(8) 0.27915(5) 1. 0 
O6 O2- 4 a 0.59353(4) 0.19344(8) 0.24046(5) 1. 0 
P2 P5+ 4 a 0.18083(1) 0.50209(3) 0.51241(2) 1. 0 
O7 O2- 4 a 0.11248(4) 0.31096(8) 0.54089(5) 1. 0 
O8 O2- 4 a 0.11145(4) 0.69164(8) 0.48694(5) 1. 0 
O9 O2- 4 a 0.25276(4) 0.53953(8) 0.62766(5) 1. 0 
O10 O2- 4 a 0.25294(4) 0.46089(9) 0.39915(5) 1. 0 
K1 K1+ 4 a 0.37709(6) 0.77988(7) 0.31023(8) 1. 0 
K2 K1+ 4 a 0.10569(4) 0.7004(1) 0.06486(8) 1. 0 

loop_
_atom_site_aniso_label
_atom_site_aniso_type_symbol
_atom_site_aniso_U_11
_atom_site_aniso_U_22
_atom_site_aniso_U_33
_atom_site_aniso_U_12
_atom_site_aniso_U_13
_atom_site_aniso_U_23
Ti1 Ti4+ 0.0493(3) 0.0453(3) 0.0426(3) -0.0013(3) -0.0027(3) 0.0061(3)
O1 O2- 0.0825(16) 0.0824(16) 0.0747(15) -0.0067(14) -0.0292(13) 0.0170(13)
Ti2 Ti4+ 0.0453(3) 0.0501(3) 0.0402(3) -0.0027(3) 0.0051(3) -0.0012(3)
O2 O2- 0.0755(16) 0.0786(16) 0.0688(15) 0.0039(13) 0.0207(12) 0.0228(13)
P1 P5+ 0.0367(4) 0.0538(5) 0.0478(5) -0.0004(4) -0.0068(4) 0.0024(4)
O3 O2- 0.0822(15) 0.0963(17) 0.0786(14) -0.0150(13) -0.0209(12) 0.0388(13)
O4 O2- 0.0766(15) 0.1018(16) 0.0767(15) 0.0132(13) -0.0268(12) -0.0324(13)
O5 O2- 0.0443(13) 0.0754(14) 0.0959(15) -0.0117(11) 0.0027(11) 0.0105(12)
O6 O2- 0.0442(12) 0.0866(14) 0.1094(17) 0.0140(11) 0.0010(11) -0.0091(13)
P2 P5+ 0.0614(5) 0.0390(4) 0.0435(5) -0.0027(4) 0.0033(4) -0.0065(4)
O7 O2- 0.0910(15) 0.0464(13) 0.0955(16) -0.0134(12) 0.0208(12) 0.0003(12)
O8 O2- 0.1054(16) 0.0473(13) 0.1123(18) 0.0134(12) -0.0218(13) 0.0021(12)
O9 O2- 0.0947(16) 0.0891(16) 0.0707(14) 0.0203(14) -0.0270(13) -0.0336(12)
O10 O2- 0.1007(17) 0.0959(16) 0.0675(14) -0.0263(14) 0.0339(12) -0.0331(12)
K1 K1+ 0.2266(18) 0.1028(13) 0.2024(18) 0.0433(15) 0.0551(17) 0.0104(14)
K2 K1+ 0.1264(15) 0.2047(19) 0.2338(20) 0.0516(14) -0.0016(16) -0.0141(19)
#End of data_66570-ICSD


