data_62527-ICSD
#?2014 by Fachinformationszentrum Karlsruhe, and the U.S. Secretary of 
#Commerce on behalf of the United States.  All rights reserved.
_database_code_ICSD                62527
_audit_creation_date               1988/02/22
_audit_update_record               1998/06/26
_chemical_name_systematic          'Magnesium Silicate'
_chemical_formula_structural       'Mg2 (Si O4)'
_chemical_formula_sum              'Mg2 O4 Si1'
_chemical_name_mineral             Forsterite
_publ_section_title
;
Conflicting results for the deformation properties of Forsterite, 
Mg2SiO4
;
loop_
_citation_id
_citation_journal_abbrev
_citation_year
_citation_journal_volume
_citation_page_first
_citation_page_last
_citation_journal_id_ASTM
primary 'Acta Crystallographica, Section B: Structural Science'
 1987 43 132 143 ASBSDK
_publ_author_name
;
van der Wal, R.J.;Vos, A.;Kirfel, A.
;
_cell_length_a                     4.7550(3)
_cell_length_b                     10.1960(6)
_cell_length_c                     5.9809(3)
_cell_angle_alpha                  90.
_cell_angle_beta                   90.
_cell_angle_gamma                  90.
_cell_volume                       289.97
_cell_formula_units_Z              4
_symmetry_space_group_name_H-M     'P b n m'
_symmetry_Int_Tables_number        62
_refine_ls_R_factor_all            .034
loop_
_symmetry_equiv_pos_site_id
_symmetry_equiv_pos_as_xyz
  1	'-x+.5, y+.5, z'
  2	'x, y, -z+.5'
  3	'x+.5, -y+.5, z+.5'
  4	'-x, -y, -z'
  5	'x+.5, -y+.5, -z'
  6	'-x, -y, z+.5'
  7	'-x+.5, y+.5, -z+.5'
  8	'x, y, z'
loop_
_atom_type_symbol
_atom_type_oxidation_number
Mg2+	2
O2-	-2
Si4+	4
loop_
_atom_site_label
_atom_site_type_symbol
_atom_site_symmetry_multiplicity
_atom_site_Wyckoff_symbol
_atom_site_fract_x
_atom_site_fract_y
_atom_site_fract_z
_atom_site_occupancy
_atom_site_attached_hydrogens
Si1 Si4+ 4 c 0.07356(2) 0.59404(1) 0.25 1. 0 
Mg1 Mg2+ 4 a 0.5 0.5 0.5 1. 0 
Mg2 Mg2+ 4 c 0.50842(3) 0.77737(2) 0.25 1. 0 
O1 O2- 4 c 0.73422(6) 0.59161(3) 0.25 1. 0 
O2 O2- 4 c 0.22175(6) 0.44701(3) 0.25 1. 0 
O3 O2- 8 d 0.22270(4) 0.66312(2) 0.46699(4) 1. 0 

loop_
_atom_site_aniso_label
_atom_site_aniso_type_symbol
_atom_site_aniso_U_11
_atom_site_aniso_U_22
_atom_site_aniso_U_33
_atom_site_aniso_U_12
_atom_site_aniso_U_13
_atom_site_aniso_U_23
Si1 Si4+ 0.00266(4) 0.00383(4) 0.00359(4) 0.00005(2) 0 0
Mg1 Mg2+ 0.00437(5) 0.00664(6) 0.00432(5) 0.00014(3) -.00053(3) 0.00111(3)
Mg2 Mg2+ 0.00532(5) 0.00457(5) 0.00530(5) -.00016(3) 0 0
O1 O2- 0.00300(7) 0.00627(9) 0.00514(8) -.00019(6) 0 0
O2 O2- 0.00460(8) 0.00392(8) 0.00562(8) -.00017(6) 0 0
O3 O2- 0.00489(6) 0.00607(6) 0.00460(6) -.00005(4) -.00020(4) -.00142(4)
#End of data_62527-ICSD


