data_187821-ICSD
#?2014 by Fachinformationszentrum Karlsruhe, and the U.S. Secretary of 
#Commerce on behalf of the United States.  All rights reserved.
_database_code_ICSD                187821
_audit_creation_date               2013/08/01
_chemical_name_systematic
;
Disodium Phyllo-heptaoxotrititanate
;
_chemical_formula_structural       'Na2 (Ti3 O7)'
_chemical_formula_sum              'Na2 O7 Ti3'
_publ_section_title
;
Na2 Ti3 O7: an intercalation based anode for sodium-ion battery
;
loop_
_citation_id
_citation_journal_abbrev
_citation_year
_citation_journal_volume
_citation_journal_issue
_citation_page_first
_citation_page_last
_citation_journal_id_ASTM
primary 'Journal of Materials Chemistry A' 2013 1 7 2653 2662 JMCAET
2 'Acta Crystallographica (1,1948-23,1967)' 1961 14- 1245 1249 ACCRA9
_publ_author_name
;
Rudola, A.;Saravanan, K.;Masona, C.W.;Balaya, P.
;
_cell_length_a                     8.565
_cell_length_b                     3.802
_cell_length_c                     9.128
_cell_angle_alpha                  90.
_cell_angle_beta                   101.589
_cell_angle_gamma                  90.
_cell_volume                       291.19
_cell_formula_units_Z              2
_symmetry_space_group_name_H-M     'P 1 21/m 1'
_symmetry_Int_Tables_number        11
_refine_ls_R_factor_all            .0355
loop_
_symmetry_equiv_pos_site_id
_symmetry_equiv_pos_as_xyz
  1	'x, -y+.5, z'
  2	'-x, -y, -z'
  3	'-x, y+.5, -z'
  4	'x, y, z'
loop_
_atom_type_symbol
_atom_type_oxidation_number
Na1+	1
O2-	-2
Ti4+	4
loop_
_atom_site_label
_atom_site_type_symbol
_atom_site_symmetry_multiplicity
_atom_site_Wyckoff_symbol
_atom_site_fract_x
_atom_site_fract_y
_atom_site_fract_z
_atom_site_occupancy
_atom_site_attached_hydrogens
Na1 Na1+ 2 e 0.682 0.25 0.595 1. 0 
Na2 Na1+ 2 e 0.508 0.25 0.154 1. 0 
Ti1 Ti4+ 2 e 0.028 0.25 0.281 1. 0 
Ti2 Ti4+ 2 e 0.247 0.25 0.673 1. 0 
Ti3 Ti4+ 2 e 0.142 0.25 0.981 1. 0 
O1 O2- 2 e 0.221 0.25 0.195 1. 0 
O2 O2- 2 e 0.14 0.25 0.473 1. 0 
O3 O2- 2 e 0.438 0.25 0.645 1. 0 
O4 O2- 2 e 0.314 0.25 0.885 1. 0 
O5 O2- 2 e 0.997 0.25 0.745 1. 0 
O6 O2- 2 e 0.791 0.25 0.313 1. 0 
O7 O2- 2 e 0.905 0.25 0.031 1. 0 

#End of data_187821-ICSD


