data_165991-ICSD
#?2014 by Fachinformationszentrum Karlsruhe, and the U.S. Secretary of 
#Commerce on behalf of the United States.  All rights reserved.
_database_code_ICSD                165991
_audit_creation_date               2010/08/01
_chemical_name_systematic          'Trisodium Nitride - Iii'
_chemical_formula_structural       'Na3 N'
_chemical_formula_sum              'N1 Na3'
_publ_section_title
;
Structural phase transitions of sodium nitride at high pressure
;
loop_
_citation_id
_citation_journal_abbrev
_citation_year
_citation_journal_volume
_citation_page_first
_citation_page_last
_citation_journal_id_ASTM
primary 'Physical Review, Serie 3. B - Condensed Matter (18,1978-)'
 2009 79 224107-1 224107-8 PRBMDO
_publ_author_name
;
Vajenine, G.V.;Wang, X.;Efthimiopoulos, I.;Karmakar, S.;Syassen, 
K.;Hanfland, M.
;
_cell_length_a                     7.090
_cell_length_b                     7.518
_cell_length_c                     4.794
_cell_angle_alpha                  90.
_cell_angle_beta                   90.
_cell_angle_gamma                  90.
_cell_volume                       255.53
_cell_formula_units_Z              4
_symmetry_space_group_name_H-M     'P n m a'
_symmetry_Int_Tables_number        62
loop_
_symmetry_equiv_pos_site_id
_symmetry_equiv_pos_as_xyz
  1	'x+.5, y, -z+.5'
  2	'x, -y+.5, z'
  3	'-x+.5, y+.5, z+.5'
  4	'-x, -y, -z'
  5	'-x+.5, -y, z+.5'
  6	'-x, y+.5, -z'
  7	'x+.5, -y+.5, -z+.5'
  8	'x, y, z'
loop_
_atom_type_symbol
_atom_type_oxidation_number
N3-	-3
Na1+	1
loop_
_atom_site_label
_atom_site_type_symbol
_atom_site_symmetry_multiplicity
_atom_site_Wyckoff_symbol
_atom_site_fract_x
_atom_site_fract_y
_atom_site_fract_z
_atom_site_occupancy
_atom_site_attached_hydrogens
N1 N3- 4 c 0.3643 0.250 0.0592 1. 0 
Na1 Na1+ 4 c 0.0252 0.250 0.9185 1. 0 
Na2 Na1+ 8 d 0.1597 0.0659 0.3888 1. 0 

#End of data_165991-ICSD


