data_98356-ICSD
#?2014 by Fachinformationszentrum Karlsruhe, and the U.S. Secretary of 
#Commerce on behalf of the United States.  All rights reserved.
_database_code_ICSD                98356
_audit_creation_date               2005/04/01
_chemical_name_systematic
;
Dipotassium Thorium Nonaselenotriphosphate(IV) - Beta
;
_chemical_formula_structural       'K2 Th (P3 Se9)'
_chemical_formula_sum              'K2 P3 Se9 Th1'
_publ_section_title
;
The synthesis and structural characterization of a new beta phase of 
K2 Th P3 Se9
;
loop_
_citation_id
_citation_journal_abbrev
_citation_year
_citation_journal_volume
_citation_page_first
_citation_page_last
_citation_journal_id_ASTM
primary 'Journal of Nuclear Science and Technology' 2002 3 611 615 JNSTAX
_publ_author_name
;
Briggs Piccoli, P.M.;Abney, K.D.;Dorhout, P.K.
;
_cell_length_a                     10.2697(7)
_cell_length_b                     7.7765(5)
_cell_length_c                     20.472(1)
_cell_angle_alpha                  90
_cell_angle_beta                   92.877(1)
_cell_angle_gamma                  90
_cell_volume                       1632.88
_cell_formula_units_Z              4
_symmetry_space_group_name_H-M     'P 1 21/n 1'
_symmetry_Int_Tables_number        14
_refine_ls_R_factor_all            .021
loop_
_symmetry_equiv_pos_site_id
_symmetry_equiv_pos_as_xyz
  1	'-x+.5, y+.5, -z+.5'
  2	'-x, -y, -z'
  3	'x+.5, -y+.5, z+.5'
  4	'x, y, z'
loop_
_atom_type_symbol
_atom_type_oxidation_number
K1+	1
P4+	4
Se2-	-2
Th4+	4
loop_
_atom_site_label
_atom_site_type_symbol
_atom_site_symmetry_multiplicity
_atom_site_Wyckoff_symbol
_atom_site_fract_x
_atom_site_fract_y
_atom_site_fract_z
_atom_site_occupancy
_atom_site_attached_hydrogens
_atom_site_U_iso_or_equiv
Th1 Th4+ 4 e 0.2498(1) 0.0925(1) 0.1443(1) 1. 0 0.009(1) 
K1 K1+ 4 e 0.7389(2) 0.8998(2) 0.1778(1) 1. 0 0.024(1) 
K2 K1+ 4 e 0.2455(2) 0.5856(2) -0.0002(1) 1. 0 0.021(1) 
P1 P4+ 4 e 0.0567(2) 0.1128(2) -0.0150(1) 1. 0 0.011(1) 
P2 P4+ 4 e 0.5449(2) 0.3760(2) 0.1571(1) 1. 0 0.011(1) 
P3 P4+ 4 e 0.4198(2) 0.5888(2) 0.1917(1) 1. 0 0.010(1) 
Se1 Se2- 4 e 0.0468(1) 0.2988(1) 0.0648(1) 1. 0 0.013(1) 
Se2 Se2- 4 e 0.4195(1) 0.7827(1) 0.1141(1) 1. 0 0.013(1) 
Se3 Se2- 4 e 0.0346(1) 0.7997(1) 0.1073(1) 1. 0 0.013(1) 
Se4 Se2- 4 e 0.4413(1) 0.2875(1) 0.0661(1) 1. 0 0.013(1) 
Se5 Se2- 4 e 0.2574(1) 0.0197(1) -0.0111(1) 1. 0 0.013(1) 
Se6 Se2- 4 e -0.0006(1) 0.1799(1) 0.2144(1) 1. 0 0.012(1) 
Se7 Se2- 4 e 0.5077(1) 0.1703(1) 0.2258(1) 1. 0 0.013(1) 
Se8 Se2- 4 e 0.2607(1) 0.5292(1) 0.8443(1) 1. 0 0.018(1) 
Se9 Se2- 4 e 0.2693(1) -0.0393(1) 0.2920(1) 1. 0 0.012(1) 

#End of data_98356-ICSD


