data_84791-ICSD
#?2014 by Fachinformationszentrum Karlsruhe, and the U.S. Secretary of 
#Commerce on behalf of the United States.  All rights reserved.
_database_code_ICSD                84791
_audit_creation_date               1999/01/19
_chemical_name_systematic          'Tricalcium Rhenate'
_chemical_formula_structural       'Ca3 (Re O6)'
_chemical_formula_sum              'Ca3 O6 Re1'
_publ_section_title                'The crystal structure of Ca3 Re O6'
loop_
_citation_id
_citation_journal_abbrev
_citation_year
_citation_journal_volume
_citation_page_first
_citation_page_last
_citation_journal_id_ASTM
primary 'Journal of Solid State Chemistry' 1997 131 305 309 JSSCBI
_publ_author_name
;
Abakumov, A.M.;Shpanchenko, R.V.;Antipov, E.V.;Lebedev, O.I.;van 
Tendeloo, G.
;
_cell_length_a                     5.53664(5)
_cell_length_b                     5.80322(5)
_cell_length_c                     7.98492(7)
_cell_angle_alpha                  90.
_cell_angle_beta                   90.073(1)
_cell_angle_gamma                  90.
_cell_volume                       256.56
_cell_formula_units_Z              2
_symmetry_space_group_name_H-M     'P 1 21/n 1'
_symmetry_Int_Tables_number        14
_refine_ls_R_factor_all            .032
loop_
_symmetry_equiv_pos_site_id
_symmetry_equiv_pos_as_xyz
  1	'-x+.5, y+.5, -z+.5'
  2	'-x, -y, -z'
  3	'x+.5, -y+.5, z+.5'
  4	'x, y, z'
loop_
_atom_type_symbol
_atom_type_oxidation_number
Ca2+	2
O2-	-2
Re6+	6
loop_
_atom_site_label
_atom_site_type_symbol
_atom_site_symmetry_multiplicity
_atom_site_Wyckoff_symbol
_atom_site_fract_x
_atom_site_fract_y
_atom_site_fract_z
_atom_site_occupancy
_atom_site_attached_hydrogens
_atom_site_B_iso_or_equiv
Ca1 Ca2+ 4 e 0.5179(8) 0.5590(3) 0.7459(3) 1. 0 1.52(2) 
Ca2 Ca2+ 2 c 0.5 0 0.5 1. 0 1.32(5) 
Re1 Re6+ 2 d 0.5 0 0 1. 0 0.90(1) 
O1 O2- 4 e 0.217(1) 0.177(1) 0.048(1) 1. 0 0.6(2) 
O2 O2- 4 e 0.337(1) 0.721(1) 0.066(1) 1. 0 0.6(2) 
O3 O2- 4 e 0.395(1) 0.947(1) 0.7710(9) 1. 0 0.9(2) 

#End of data_84791-ICSD


