data_402750-ICSD
#?2014 by Fachinformationszentrum Karlsruhe, and the U.S. Secretary of 
#Commerce on behalf of the United States.  All rights reserved.
_database_code_ICSD                402750
_audit_creation_date               1998/06/26
_chemical_name_systematic
;
Lithium Catena-(boratodihydrogendiboratohydrogenphosphate)
;
_chemical_formula_structural       'Li (B3 P O6 (O H)3)'
_chemical_formula_sum              'H3 B3 Li1 O9 P1'
_publ_section_title
;
Crystal Structure of lithium catena-(monoboro-mono-
dihydrogendiboratemonohydrogenphosph te), Li (B3 P O6 (O H)3)
;
loop_
_citation_id
_citation_journal_abbrev
_citation_year
_citation_journal_volume
_citation_page_first
_citation_page_last
_citation_journal_id_ASTM
primary 'Zeitschrift fuer Kristallographie - New Crystal Structures'
 1997 212 313 314 ZKNSFT
_publ_author_name                  'Hauf, C.;Kniep, R.'
_cell_length_a                     11.484(5)
_cell_length_b                     8.719(5)
_cell_length_c                     13.871(10)
_cell_angle_alpha                  90.
_cell_angle_beta                   90.
_cell_angle_gamma                  90.
_cell_volume                       1388.89
_cell_formula_units_Z              8
_symmetry_space_group_name_H-M     'P b c n'
_symmetry_Int_Tables_number        60
_refine_ls_R_factor_all            .062
loop_
_symmetry_equiv_pos_site_id
_symmetry_equiv_pos_as_xyz
  1	'x, -y, z+.5'
  2	'-x+.5, y+.5, z'
  3	'x+.5, y+.5, -z+.5'
  4	'-x, -y, -z'
  5	'-x, y, -z+.5'
  6	'x+.5, -y+.5, -z'
  7	'-x+.5, -y+.5, z+.5'
  8	'x, y, z'
loop_
_atom_type_symbol
_atom_type_oxidation_number
B3+	3
H1+	1
Li1+	1
O2-	-2
P5+	5
loop_
_atom_site_label
_atom_site_type_symbol
_atom_site_symmetry_multiplicity
_atom_site_Wyckoff_symbol
_atom_site_fract_x
_atom_site_fract_y
_atom_site_fract_z
_atom_site_occupancy
_atom_site_attached_hydrogens
_atom_site_U_iso_or_equiv
P1 P5+ 8 d 0.23360(7) 0.34182(11) 0.32609(6) 1. 0 0 
O1 O2- 8 d 0.0478(2) 0.0812(4) 0.1264(2) 1. 0 0 
O2 O2- 8 d 0.1150(2) 0.3303(3) 0.2841(2) 1. 0 0 
O3 O2- 8 d 0.1415(2) 0.0553(3) 0.5010(2) 1. 0 0 
O4 O2- 8 d 0.2319(2) 0.0083(3) 0.3494(2) 1. 0 0 
O5 O2- 8 d 0.2481(2) 0.2538(3) 0.42161(15) 1. 0 0 
O6 O2- 8 d 0.2516(2) 0.0710(3) 0.12254(15) 1. 0 0 
O7 O2- 8 d 0.3278(2) 0.2881(3) 0.2531(2) 1. 0 0 
O8 O2- 8 d 0.3522(2) 0.0469(3) 0.4912(2) 1. 0 0 
O9 O2- 8 d 0.4543(2) 0.0731(3) 0.1202(2) 1. 0 0 
B1 B3+ 8 d 0.1457(3) 0.0311(5) 0.0822(3) 1. 0 0 
B2 B3+ 8 d 0.2435(4) 0.0886(5) 0.4426(2) 1. 0 0 
B3 B3+ 8 d 0.3539(3) 0.0296(5) 0.0757(3) 1. 0 0 
Li1 Li1+ 4 c 0 0.1762(12) 0.25 1. 0 0.024(2) 
Li2 Li1+ 4 c 0 0.4869(12) 0.25 1. 0 0.025(2) 
H1 H1+ 8 d 0.0011(39) 0.0635(51) 0.0891(29) 1. 0 0.028(13) 
H2 H1+ 8 d 0.2833(53) 0.2381(89) 0.2045(49) 1. 0 0.102(26) 
H3 H1+ 8 d 0.5098(39) 0.0652(52) 0.0793(29) 1. 0 0.034(13) 

loop_
_atom_site_aniso_label
_atom_site_aniso_type_symbol
_atom_site_aniso_U_11
_atom_site_aniso_U_22
_atom_site_aniso_U_33
_atom_site_aniso_U_12
_atom_site_aniso_U_13
_atom_site_aniso_U_23
P1 P5+ 0.0150(4) 0.0122(4) 0.0104(3) 0.0008(4) 0.0001(3) -.0005(4)
O1 O2- 0.0124(13) 0.044(2) 0.0215(14) 0.0040(13) -.0031(10) -.0151(14)
O2 O2- 0.0187(12) 0.0251(15) 0.0227(12) -.0010(12) -.0058(9) 0.0014(13)
O3 O2- 0.0107(11) 0.0201(13) 0.0152(11) 0.0006(10) 0.0009(8) 0.0067(11)
O4 O2- 0.0272(14) 0.0098(11) 0.0142(10) 0.0026(11) -.0034(9) 0.0018(10)
O5 O2- 0.0248(12) 0.0074(11) 0.0122(10) -.0018(10) -.0013(9) -.0001(9)
O6 O2- 0.0116(10) 0.0236(13) 0.0127(10) 0.0011(11) -.0006(9) -.006(1)
O7 O2- 0.0259(13) 0.0267(15) 0.0197(12) -.0002(13) 0.0085(10) -.0065(13)
O8 O2- 0.0108(11) 0.0190(13) 0.0132(11) 0.001(1) -.0005(8) 0.0067(11)
O9 O2- 0.0094(12) 0.032(2) 0.0118(11) 0.0002(11) -.0004(8) -.0060(11)
B1 B3+ 0.017(2) 0.016(2) 0.010(2) 0.003(2) -.0030(13) -.003(2)
B2 B3+ 0.012(2) 0.010(2) 0.0123(14) -.0013(14) -.0028(14) 0.0030(14)
B3 B3+ 0.010(2) 0.016(2) 0.012(2) 0.0013(15) 0.0027(12) -.001(2)
#End of data_402750-ICSD


