data_173634-ICSD
#?2014 by Fachinformationszentrum Karlsruhe, and the U.S. Secretary of 
#Commerce on behalf of the United States.  All rights reserved.
_database_code_ICSD                173634
_audit_creation_date               2009/02/01
_chemical_name_systematic          'Potassium Europium Bis(tungstate)'
_chemical_formula_structural       'K Eu (W O4)2'
_chemical_formula_sum              'Eu1 K1 O8 W2'
_publ_section_title
;
The crystal structure, vibrational and luminescence properties of the 
nanocrystalline K Eu (W O4)2 and K Gd (W O4)2:Eu(3+) obtained by the 
Pechini method
;
loop_
_citation_id
_citation_journal_abbrev
_citation_year
_citation_journal_volume
_citation_journal_issue
_citation_page_first
_citation_page_last
_citation_journal_id_ASTM
primary 'Journal of Solid State Chemistry' 2008 181 10 2591 2600 JSSCBI
_publ_author_name
;
Macalik, L.;Tomaszewski, P.E.;Lisiecki, R.;Hanuza, J.
;
_cell_length_a                     8.1146(7)
_cell_length_b                     10.4496(9)
_cell_length_c                     7.5963(5)
_cell_angle_alpha                  90.
_cell_angle_beta                   94.349(5)
_cell_angle_gamma                  90.
_cell_volume                       642.27
_cell_formula_units_Z              4
_symmetry_space_group_name_H-M     'I 1 2/c 1'
_symmetry_Int_Tables_number        15
_refine_ls_R_factor_all            .0936
loop_
_symmetry_equiv_pos_site_id
_symmetry_equiv_pos_as_xyz
  1	'-x, y, -z+.5'
  2	'-x, -y, -z'
  3	'x, -y, z+.5'
  4	'x, y, z'
  5	'-x+.5, y+.5, -z'
  6	'-x+.5, -y+.5, -z+.5'
  7	'x+.5, -y+.5, z'
  8	'x+.5, y+.5, z+.5'
loop_
_atom_type_symbol
_atom_type_oxidation_number
Eu3+	3
K1+	1
O2-	-2
W6+	6
loop_
_atom_site_label
_atom_site_type_symbol
_atom_site_symmetry_multiplicity
_atom_site_Wyckoff_symbol
_atom_site_fract_x
_atom_site_fract_y
_atom_site_fract_z
_atom_site_occupancy
_atom_site_attached_hydrogens
_atom_site_B_iso_or_equiv
K1 K1+ 4 e 0.5 0.799(4) 0.75 1. 0 3.5 
Eu1 Eu3+ 4 e 0.5 0.229(1) 0.75 1. 0 2.5 
W1 W6+ 8 f 0.693(1) 0.504(1) 0.459(1) 1. 0 0.5 
O1 O2- 8 f 0.887(5) 0.435(5) 0.501(7) 1. 0 2.0 
O2 O2- 8 f 0.527(8) 0.401(4) 0.534(7) 1. 0 1.0 
O3 O2- 8 f 0.749(7) 0.676(5) 0.340(6) 1. 0 2.0 
O4 O2- 8 f 0.695(6) 0.422(3) 0.235(7) 1. 0 1.0 

#End of data_173634-ICSD


