data_157319-ICSD
#?2014 by Fachinformationszentrum Karlsruhe, and the U.S. Secretary of 
#Commerce on behalf of the United States.  All rights reserved.
_database_code_ICSD                157319
_audit_creation_date               2008/02/01
_chemical_name_systematic          'Disodium Ruthenate(VI)'
_chemical_formula_structural       'Na2 (Ru O4)'
_chemical_formula_sum              'Na2 O4 Ru1'
_publ_section_title
;
Neutron diffraction study of the mamgnetic structuure of Na2 Ru O4
;
loop_
_citation_id
_citation_journal_abbrev
_citation_year
_citation_journal_volume
_citation_page_first
_citation_page_last
_citation_journal_id_ASTM
primary 'The European Physical Journal B' 2006 52 371 376 EPJBFY
_publ_author_name
;
Mogare, K.M.;Sheptyakov, D.V.;Bircher, R.;Guedel, H.U.;Jansen, M.
;
_cell_length_a                     10.68366(8)
_cell_length_b                     7.02334(5)
_cell_length_c                     10.85282(9)
_cell_angle_alpha                  90.
_cell_angle_beta                   119.1884(5)
_cell_angle_gamma                  90.
_cell_volume                       710.94
_cell_formula_units_Z              8
_symmetry_space_group_name_H-M     'P 1 21/c 1'
_symmetry_Int_Tables_number        14
_refine_ls_R_factor_all            .0518
loop_
_symmetry_equiv_pos_site_id
_symmetry_equiv_pos_as_xyz
  1	'x, -y+.5, z+.5'
  2	'-x, -y, -z'
  3	'-x, y+.5, -z+.5'
  4	'x, y, z'
loop_
_atom_type_symbol
_atom_type_oxidation_number
Na1+	1
O2-	-2
Ru6+	6
loop_
_atom_site_label
_atom_site_type_symbol
_atom_site_symmetry_multiplicity
_atom_site_Wyckoff_symbol
_atom_site_fract_x
_atom_site_fract_y
_atom_site_fract_z
_atom_site_occupancy
_atom_site_attached_hydrogens
_atom_site_B_iso_or_equiv
Ru1 Ru6+ 4 e 0.5010(4) 0.2431(5) 0.2507(5) 1. 0 0.36(3) 
Ru2 Ru6+ 4 e -0.0008(4) 0.2312(4) 0.2481(5) 1. 0 0.36(3) 
Na1 Na1+ 4 e 0.3031(10) 0.4610(10) 0.4108(10) 1. 0 0.36(3) 
Na2 Na1+ 4 e 0.3490(9) 0.5646(9) 0.9137(9) 1. 0 0.97(5) 
Na3 Na1+ 4 e 0.1912(9) 0.5143(14) 0.0885(9) 1. 0 0.97(5) 
Na4 Na1+ 4 e 0.1519(8) 0.0022(12) 0.0995(8) 1. 0 0.97(5) 
O1 O2- 4 e 0.1626(5) 0.1429(6) 0.3861(5) 1. 0 0.56(2) 
O2 O2- 4 e 0.4820(5) 0.6473(6) 0.3861(5) 1. 0 0.56(2) 
O3 O2- 4 e 0.3296(6) 0.2507(5) 0.2401(6) 1. 0 0.56(2) 
O4 O2- 4 e 0.0069(5) 0.3204(7) 0.0997(5) 1. 0 0.56(2) 
O5 O2- 4 e 0.1656(6) 0.7253(5) 0.2485(7) 1. 0 0.56(2) 
O6 O2- 4 e 0.3407(5) 0.6812(8) 0.5958(4) 1. 0 0.56(2) 
O7 O2- 4 e 0.4677(5) 0.0072(6) 0.6538(5) 1. 0 0.56(2) 
O8 O2- 4 e 0.0493(5) 0.4784(5) 0.3513(5) 1. 0 0.56(2) 

#End of data_157319-ICSD


