data_24037-ICSD
#?2014 by Fachinformationszentrum Karlsruhe, and the U.S. Secretary of 
#Commerce on behalf of the United States.  All rights reserved.
_database_code_ICSD                24037
_audit_creation_date               1980/01/01
_audit_update_record               1987/09/18
_chemical_name_systematic          'Disilver Lead Oxide'
_chemical_formula_structural       'Ag2 Pb O2'
_chemical_formula_sum              'Ag2 O2 Pb1'
_publ_section_title
;
The crystal structures of Ag2 Pb O2 and Ag5 Pb2 O6
;
loop_
_citation_id
_citation_journal_abbrev
_citation_year
_citation_journal_volume
_citation_page_first
_citation_page_last
_citation_journal_id_ASTM
primary 'Acta Chemica Scandinavica (1-27,1973-42,1988)' 1950 4 613 627 ACSAA4
_publ_author_name                  'Bystroem, A.;Evers, L.'
_cell_length_a                     6.082(3)
_cell_length_b                     8.715(3)
_cell_length_c                     6.556(3)
_cell_angle_alpha                  90.
_cell_angle_beta                   93.69
_cell_angle_gamma                  90.
_cell_volume                       346.78
_cell_formula_units_Z              4
_symmetry_space_group_name_H-M     'I 1 2/c 1'
_symmetry_Int_Tables_number        15
loop_
_symmetry_equiv_pos_site_id
_symmetry_equiv_pos_as_xyz
  1	'-x, y, -z+.5'
  2	'-x, -y, -z'
  3	'x, -y, z+.5'
  4	'x, y, z'
  5	'-x+.5, y+.5, -z'
  6	'-x+.5, -y+.5, -z+.5'
  7	'x+.5, -y+.5, z'
  8	'x+.5, y+.5, z+.5'
loop_
_atom_type_symbol
_atom_type_oxidation_number
Ag1+	1
O2-	-2
Pb2+	2
loop_
_atom_site_label
_atom_site_type_symbol
_atom_site_symmetry_multiplicity
_atom_site_Wyckoff_symbol
_atom_site_fract_x
_atom_site_fract_y
_atom_site_fract_z
_atom_site_occupancy
_atom_site_attached_hydrogens
Ag1 Ag1+ 4 b 0 0.5 0 1. 0 
Ag2 Ag1+ 4 d 0.25 0.25 0.75 1. 0 
Pb1 Pb2+ 4 e 0 0.125 0.25 1. 0 
O1 O2- 8 f 0.311 0.195 0.446 1. 0 

#End of data_24037-ICSD


