data_39468-ICSD
#?2014 by Fachinformationszentrum Karlsruhe, and the U.S. Secretary of 
#Commerce on behalf of the United States.  All rights reserved.
_database_code_ICSD                39468
_audit_creation_date               1992/08/20
_chemical_name_systematic          'Dipotassium Strontium Diphosphate'
_chemical_formula_structural       'K2 Sr P2 O7'
_chemical_formula_sum              'K2 O7 P2 Sr1'
_publ_section_title
;
Accurate definition of K2SrP2O7 crystal structure
;
loop_
_citation_id
_citation_journal_abbrev
_citation_year
_citation_journal_volume
_citation_page_first
_citation_page_last
_citation_journal_id_ASTM
primary 'Izvestiya Akademii Nauk SSSR, Neorganicheskie Materialy'
 1991 27 1993 1994 IVNMAW
_publ_author_name
;
Trunov, V.K.;Oboznenko, Yu.V.;Sirotinkin, S.P.;Tskhelashvili, N.B.
;
_cell_length_a                     9.168(2)
_cell_length_b                     5.712(4)
_cell_length_c                     14.720(6)
_cell_angle_alpha                  90.
_cell_angle_beta                   105.79(8)
_cell_angle_gamma                  90.
_cell_volume                       741.76
_cell_formula_units_Z              4
_symmetry_space_group_name_H-M     'P 1 21/c 1'
_symmetry_Int_Tables_number        14
_refine_ls_R_factor_all            .062
loop_
_symmetry_equiv_pos_site_id
_symmetry_equiv_pos_as_xyz
  1	'x, -y+.5, z+.5'
  2	'-x, -y, -z'
  3	'-x, y+.5, -z+.5'
  4	'x, y, z'
loop_
_atom_type_symbol
_atom_type_oxidation_number
K1+	1
O2-	-2
P5+	5
Sr2+	2
loop_
_atom_site_label
_atom_site_type_symbol
_atom_site_symmetry_multiplicity
_atom_site_Wyckoff_symbol
_atom_site_fract_x
_atom_site_fract_y
_atom_site_fract_z
_atom_site_occupancy
_atom_site_attached_hydrogens
_atom_site_B_iso_or_equiv
Sr1 Sr2+ 4 e 0.7373(1) 0.2726(3) 0.13240(9) 1. 0 0.72(2) 
K1 K1+ 4 e 0.5347(3) 0.2360(6) 0.3356(3) 1. 0 1.59(6) 
K2 K1+ 4 e 0.9677(4) 0.2678(8) 0.3873(3) 1. 0 2.27(8) 
P1 P5+ 4 e 0.1812(4) 0.2691(8) 0.1939(3) 1. 0 0.90(7) 
P2 P5+ 4 e 0.3080(4) 0.1994(8) 0.0340(3) 1. 0 0.93(7) 
O1 O2- 4 e 0.259(1) 0.037(2) 0.2267(7) 1. 0 0.9(2) 
O2 O2- 4 e 0.461(1) 0.233(2) 0.1064(7) 1. 0 1.6(2) 
O3 O2- 4 e 0.014(1) 0.272(2) 0.1884(8) 1. 0 1.9(2) 
O4 O2- 4 e 0.265(1) 0.482(2) 0.2440(8) 1. 0 1.4(2) 
O5 O2- 4 e 0.182(1) 0.302(2) 0.0827(7) 1. 0 1.9(3) 
O6 O2- 4 e 0.266(1) 0.945(2) 0.0117(8) 1. 0 1.4(2) 
O7 O2- 4 e 0.285(1) 0.342(2) 0.9444(8) 1. 0 2.0(3) 

#End of data_39468-ICSD


