data_69721-ICSD
#?2014 by Fachinformationszentrum Karlsruhe, and the U.S. Secretary of 
#Commerce on behalf of the United States.  All rights reserved.
_database_code_ICSD                69721
_audit_creation_date               1994/01/19
_audit_update_record               2000/07/15
_chemical_name_systematic          'Barium Zinc Diterbium Oxide'
_chemical_formula_structural       'Ba Zn Tb2 O5'
_chemical_formula_sum              'Ba1 O5 Tb2 Zn1'
_publ_section_title
;
Zur Kenntnis von Ba Zn Tb2 O5 und Ba Zn La2 O5
;
loop_
_citation_id
_citation_journal_abbrev
_citation_year
_citation_journal_volume
_citation_page_first
_citation_page_last
_citation_journal_id_ASTM
primary 'Journal of the Less-Common Metals' 1991 170 127 133 JCOMAH
_publ_author_name                  'Mueller Buschbaum, H.;Moehr, S.'
_cell_length_a                     12.4292(18)
_cell_length_b                     5.7562(6)
_cell_length_c                     7.1216(13)
_cell_angle_alpha                  90.
_cell_angle_beta                   90.
_cell_angle_gamma                  90.
_cell_volume                       509.51
_cell_formula_units_Z              4
_symmetry_space_group_name_H-M     'P n m a'
_symmetry_Int_Tables_number        62
_refine_ls_R_factor_all            .067
loop_
_symmetry_equiv_pos_site_id
_symmetry_equiv_pos_as_xyz
  1	'x+.5, y, -z+.5'
  2	'x, -y+.5, z'
  3	'-x+.5, y+.5, z+.5'
  4	'-x, -y, -z'
  5	'-x+.5, -y, z+.5'
  6	'-x, y+.5, -z'
  7	'x+.5, -y+.5, -z+.5'
  8	'x, y, z'
loop_
_atom_type_symbol
_atom_type_oxidation_number
Ba2+	2
O2-	-2
Tb3+	3
Zn2+	2
loop_
_atom_site_label
_atom_site_type_symbol
_atom_site_symmetry_multiplicity
_atom_site_Wyckoff_symbol
_atom_site_fract_x
_atom_site_fract_y
_atom_site_fract_z
_atom_site_occupancy
_atom_site_attached_hydrogens
_atom_site_B_iso_or_equiv
Ba1 Ba2+ 4 c 0.9003(2) 0.25 0.9239(3) 1. 0 0.43(4) 
Zn1 Zn2+ 4 c 0.6501(4) 0.25 0.6908(7) 1. 0 0.25(6) 
Tb1 Tb3+ 4 c 0.2924(1) 0.25 0.1204(3) 1. 0 0.16(3) 
Tb2 Tb3+ 4 c 0.0743(1) 0.25 0.3984(3) 1. 0 0.17(3) 
O1 O2- 8 d 0.434(2) 0.998(4) 0.169(3) 1. 0 0.46(26) 
O2 O2- 8 d 0.224(2) 0.501(4) 0.357(3) 1. 0 0.70(31) 
O3 O2- 4 c 0.100(2) 0.25 0.068(4) 1. 0 0.36(37) 

#End of data_69721-ICSD


