data_413899-ICSD
#?2014 by Fachinformationszentrum Karlsruhe, and the U.S. Secretary of 
#Commerce on behalf of the United States.  All rights reserved.
_database_code_ICSD                413899
_audit_creation_date               2005/10/01
_chemical_name_systematic          'Dipotassium Tetracyanopalladate'
_chemical_formula_structural       'K2 (Pd (C N)4)'
_chemical_formula_sum              'C4 K2 N4 Pd1'
_publ_section_title
;
Ueber Kaliumtetracyanoplatinat(II), Kaliumtetracyanopalladat(II) und 
deren Monohydrate
;
loop_
_citation_id
_citation_journal_abbrev
_citation_year
_citation_journal_volume
_citation_page_first
_citation_page_last
_citation_journal_id_ASTM
primary 'Zeitschrift fuer Anorganische und Allgemeine Chemie (1950) (DE)'
 2004 630 1462 1468 ZAACAB
_publ_author_name
;
Muehle, C.;Nuss, J.;Dinnebier, R.E.;Jansen, M.
;
_cell_length_a                     4.3303
_cell_length_b                     7.829
_cell_length_c                     13.2817
_cell_angle_alpha                  90
_cell_angle_beta                   93.0688
_cell_angle_gamma                  90
_cell_volume                       449.63
_cell_formula_units_Z              2
_symmetry_space_group_name_H-M     'P 1 21/c 1'
_symmetry_Int_Tables_number        14
_refine_ls_R_factor_all            .0386
loop_
_symmetry_equiv_pos_site_id
_symmetry_equiv_pos_as_xyz
  1	'x, -y+.5, z+.5'
  2	'-x, -y, -z'
  3	'-x, y+.5, -z+.5'
  4	'x, y, z'
loop_
_atom_type_symbol
_atom_type_oxidation_number
C2+	2
K1+	1
N3-	-3
Pd2+	2
loop_
_atom_site_label
_atom_site_type_symbol
_atom_site_symmetry_multiplicity
_atom_site_Wyckoff_symbol
_atom_site_fract_x
_atom_site_fract_y
_atom_site_fract_z
_atom_site_occupancy
_atom_site_attached_hydrogens
_atom_site_U_iso_or_equiv
K1 K1+ 4 e 0.7203(5) 0.0411(4) 0.34165(18) 1 0 0.0299(15) 
Pd1 Pd2+ 2 a 0 0 0 1 0 0.0269(8) 
C1 C2+ 4 e 0.151(2) -0.2190(6) -0.0562(4) 1 0 0.026(5) 
N1 N3- 4 e 0.2401(19) -0.3488(8) -0.0891(4) 1 0 0.031(4) 
C2 C2+ 4 e -0.146(3) -0.1251(5) 0.1179(5) 1 0 0.028(5) 
N2 N3- 4 e -0.228(2) -0.1957(7) 0.1841(7) 1 0 0.033(4) 

loop_
_atom_site_aniso_label
_atom_site_aniso_type_symbol
_atom_site_aniso_U_11
_atom_site_aniso_U_22
_atom_site_aniso_U_33
_atom_site_aniso_U_12
_atom_site_aniso_U_13
_atom_site_aniso_U_23
K1 K1+ 0.0105(13) 0.0078(12) 0.0643(18) 0.0181(16) 0.0208(10) 0.005(2)
#End of data_413899-ICSD


