data_200698-ICSD
#?2014 by Fachinformationszentrum Karlsruhe, and the U.S. Secretary of 
#Commerce on behalf of the United States.  All rights reserved.
_database_code_ICSD                200698
_audit_creation_date               1980/12/31
_chemical_name_systematic          'Tetrapotassium Uranyl Carbonate'
_chemical_formula_structural       'K4 U O2 (C O3)3'
_chemical_formula_sum              'C3 K4 O11 U1'
_publ_section_title
;
An X-Ray crystallographic, Raman, and infrared spectral study of 
crystalline potassium uranyl carbonate, K4 U O2 (C O3)3
;
loop_
_citation_id
_citation_journal_abbrev
_citation_year
_citation_journal_volume
_citation_page_first
_citation_page_last
_citation_journal_id_ASTM
primary 'Canadian Journal of Chemistry' 1980 58 1651 1658 CJCHAG
_publ_author_name
;
Anderson, A.;Chieh, C.;Irish, D.E.;Tong, J.P.K.
;
_cell_length_a                     10.247(3)
_cell_length_b                     9.202(2)
_cell_length_c                     12.226(3)
_cell_angle_alpha                  90.
_cell_angle_beta                   95.11(2)
_cell_angle_gamma                  90.
_cell_volume                       1148.24
_cell_formula_units_Z              4
_symmetry_space_group_name_H-M     'C 1 2/c 1'
_symmetry_Int_Tables_number        15
_refine_ls_R_factor_all            .038
loop_
_symmetry_equiv_pos_site_id
_symmetry_equiv_pos_as_xyz
  1	'x, -y, z+.5'
  2	'-x, -y, -z'
  3	'-x, y, -z+.5'
  4	'x, y, z'
  5	'x+.5, -y+.5, z+.5'
  6	'-x+.5, -y+.5, -z'
  7	'-x+.5, y+.5, -z+.5'
  8	'x+.5, y+.5, z'
loop_
_atom_type_symbol
_atom_type_oxidation_number
C4+	4
K1+	1
O2-	-2
U6+	6
loop_
_atom_site_label
_atom_site_type_symbol
_atom_site_symmetry_multiplicity
_atom_site_Wyckoff_symbol
_atom_site_fract_x
_atom_site_fract_y
_atom_site_fract_z
_atom_site_occupancy
_atom_site_attached_hydrogens
U1 U6+ 4 e 0.5 0.69451(4) 0.25 1. 0 
K1 K1+ 8 f 0.6837(2) 0.3458(2) 0.3469(1) 1. 0 
K2 K1+ 8 f 0.6023(2) 0.8198(2) 0.5440(1) 1. 0 
O1 O2- 8 f 0.5430(6) 0.9298(6) 0.1699(5) 1. 0 
O2 O2- 8 f 0.6039(5) 0.6785(6) 0.0789(4) 1. 0 
O3 O2- 8 f 0.5651(6) 0.4738(6) 0.1611(4) 1. 0 
O4 O2- 4 e 0.5 1.1432(8) 0.25 1. 0 
O5 O2- 8 f 0.7013(6) 0.4739(7) 0.0278(5) 1. 0 
O6 O2- 8 f 0.6618(5) 0.6959(6) 0.3210(5) 1. 0 
C1 C4+ 8 f 0.6272(7) 0.5373(8) 0.0859(6) 1. 0 
C2 C4+ 4 e 0.5 1.0068(12) 0.25 1. 0 

loop_
_atom_site_aniso_label
_atom_site_aniso_type_symbol
_atom_site_aniso_U_11
_atom_site_aniso_U_22
_atom_site_aniso_U_33
_atom_site_aniso_U_12
_atom_site_aniso_U_13
_atom_site_aniso_U_23
U1 U6+ 0.0159(2) 0.0108(2) 0.0150(2) 0 0.0025(1) 0
K1 K1+ 0.0232(7) 0.0237(7) 0.0254(8) 0.0051(6) 0.0022(6) 0.0013(6)
K2 K1+ 0.0252(7) 0.0237(7) 0.0247(8) -.0036(6) 0.0046(6) -.0033(6)
O1 O2- 0.034(3) 0.019(2) 0.023(2) 0.003(2) 0.011(2) 0.001(2)
O2 O2- 0.028(2) 0.016(2) 0.021(2) 0.001(2) 0.006(2) 0.001(2)
O3 O2- 0.028(2) 0.017(2) 0.023(2) -.001(2) 0.005(2) -.001(2)
O4 O2- 0.039(4) 0.012(3) 0.041(4) 0 0.013(4) 0
O5 O2- 0.040(3) 0.025(3) 0.030(3) 0.012(2) 0.014(3) -.001(2)
O6 O2- 0.022(2) 0.028(3) 0.024(2) -.002(2) -.001(2) 0.000(2)
C1 C4+ 0.042(4) 0.035(3) 0.038(3) -.001(3) 0.004(3) 0.000(3)
C2 C4+ 0.050(7) 0.032(5) 0.055(6) 0 0.013(5) 0
#End of data_200698-ICSD


