data_183583-ICSD
#?2014 by Fachinformationszentrum Karlsruhe, and the U.S. Secretary of 
#Commerce on behalf of the United States.  All rights reserved.
_database_code_ICSD                183583
_audit_creation_date               2012/08/01
_chemical_name_systematic          'Calcium Rhodate(IV) - Hp'
_chemical_formula_structural       'Ca (Rh O3)'
_chemical_formula_sum              'Ca1 O3 Rh1'
_publ_section_title
;
Crystal structure of Ca Rh O3 polymorph: high-pressure intermediate 
phase between perovskite and post-perovskite
;
loop_
_citation_id
_citation_journal_abbrev
_citation_year
_citation_journal_volume
_citation_page_first
_citation_page_last
_citation_journal_id_ASTM
primary 'American Mineralogist' 2012 97 159 163 AMMIAY
_publ_author_name
;
Shirako, Y.;Kojitani, H.;Oganov, A.R.;Fujino, K.;Miura, H.;Mori, 
D.;Inaguma, Y.;Yamaura, K.;Akaogi, M.
;
_cell_length_a                     12.5114(1)
_cell_length_b                     3.1241(1)
_cell_length_c                     8.8579(1)
_cell_angle_alpha                  90.
_cell_angle_beta                   103.951(1)
_cell_angle_gamma                  90.
_cell_volume                       336.01
_cell_formula_units_Z              6
_symmetry_space_group_name_H-M     'P 1 21/m 1'
_symmetry_Int_Tables_number        11
_refine_ls_R_factor_all            .0623
loop_
_symmetry_equiv_pos_site_id
_symmetry_equiv_pos_as_xyz
  1	'x, -y+.5, z'
  2	'-x, -y, -z'
  3	'-x, y+.5, -z'
  4	'x, y, z'
loop_
_atom_type_symbol
_atom_type_oxidation_number
Ca2+	2
O2-	-2
Rh4+	4
loop_
_atom_site_label
_atom_site_type_symbol
_atom_site_symmetry_multiplicity
_atom_site_Wyckoff_symbol
_atom_site_fract_x
_atom_site_fract_y
_atom_site_fract_z
_atom_site_occupancy
_atom_site_attached_hydrogens
_atom_site_B_iso_or_equiv
O1 O2- 2 e 0.8215(6) 0.750 0.8756(10) 1. 0 1.0 
O2 O2- 2 e 0.6152(6) 0.250 0.7842(9) 1. 0 1.0 
O3 O2- 2 e 0.5488(6) 0.250 0.1325(9) 1. 0 1.0 
O4 O2- 2 e 0.5535(6) 0.250 0.4159(10) 1. 0 1.0 
O5 O2- 2 e 0.7031(6) 0.750 0.3271(10) 1. 0 1.0 
O6 O2- 2 e 0.8115(6) 0.250 0.5802(9) 1. 0 1.0 
O7 O2- 2 e 0.7878(6) 0.250 0.1278(9) 1. 0 1.0 
O8 O2- 2 e 0.9118(6) 0.750 0.3879(9) 1. 0 1.0 
O9 O2- 2 e 0.9890(6) 0.750 0.1170(9) 1. 0 1.0 
Ca1 Ca2+ 2 e 0.6718(2) 0.750 0.6175(3) 1. 0 0.88(5) 
Ca2 Ca2+ 2 e 0.6505(2) 0.750 0.9941(3) 1. 0 0.76(5) 
Ca3 Ca2+ 2 e 0.0521(2) 0.250 0.3318(3) 1. 0 0.91(5) 
Rh1 Rh4+ 2 e 0.54318(8) 0.750 0.27037(13) 1. 0 0.34(2) 
Rh2 Rh4+ 2 e 0.89248(9) 0.250 0.99875(12) 1. 0 0.35(2) 
Rh3 Rh4+ 2 e 0.19426(8) 0.750 0.64612(13) 1. 0 0.39(2) 

#End of data_183583-ICSD


