data_401395-ICSD
#?2014 by Fachinformationszentrum Karlsruhe, and the U.S. Secretary of 
#Commerce on behalf of the United States.  All rights reserved.
_database_code_ICSD                401395
_audit_creation_date               1995/10/17
_chemical_name_systematic
;
Triiodotellurium Tetraiodoaluminate
;
_chemical_formula_structural       '(Te I3) (Al I4)'
_chemical_formula_sum              'Al1 I7 Te1'
_publ_section_title
;
Se Br3 (Al Br4) und Te I3 (Al I4) - zwei weitere Vertreter des S Cl3 
(Al Cl4)-Strukturtyps
;
loop_
_citation_id
_citation_journal_abbrev
_citation_year
_citation_journal_volume
_citation_page_first
_citation_page_last
_citation_journal_id_ASTM
primary 'Zeitschrift fuer Anorganische und Allgemeine Chemie (1950) (DE)'
 1995 621 1042 1046 ZAACAB
_publ_author_name                  'Beck, J.;Fischer, A.'
_cell_length_a                     7.3187(10)
_cell_length_b                     7.3084(10)
_cell_length_c                     15.655(3)
_cell_angle_alpha                  90.
_cell_angle_beta                   102.01(2)
_cell_angle_gamma                  90.
_cell_volume                       819.03
_cell_formula_units_Z              2
_symmetry_space_group_name_H-M     'P 1 c 1'
_symmetry_Int_Tables_number        7
_refine_ls_R_factor_all            .044
loop_
_symmetry_equiv_pos_site_id
_symmetry_equiv_pos_as_xyz
  1	'x, -y, z+.5'
  2	'x, y, z'
loop_
_atom_type_symbol
_atom_type_oxidation_number
Al3+	3
I1-	-1
Te4+	4
loop_
_atom_site_label
_atom_site_type_symbol
_atom_site_symmetry_multiplicity
_atom_site_Wyckoff_symbol
_atom_site_fract_x
_atom_site_fract_y
_atom_site_fract_z
_atom_site_occupancy
_atom_site_attached_hydrogens
Te1 Te4+ 2 a 0 0.5830(2) 0 1. 0 
I1 I1- 2 a -.1163(5) 0.3660(3) 0.1169(2) 1. 0 
I2 I1- 2 a 0.2849(3) 0.3852(3) -.0363(2) 1. 0 
I3 I1- 2 a 0.2063(3) 0.8196(3) 0.11525(14) 1. 0 
I4 I1- 2 a 0.0446(2) 0.8975(2) -.15945(13) 1. 0 
I5 I1- 2 a -.3678(3) 0.8905(2) -.01319(14) 1. 0 
I6 I1- 2 a -.3198(3) 0.3373(2) -.17248(15) 1. 0 
I7 I1- 2 a -.5066(2) 0.8346(2) -.27975(13) 1. 0 
Al1 Al3+ 2 a -.2874(7) 0.9948(8) -.1555(4) 1. 0 

loop_
_atom_site_aniso_label
_atom_site_aniso_type_symbol
_atom_site_aniso_U_11
_atom_site_aniso_U_22
_atom_site_aniso_U_33
_atom_site_aniso_U_12
_atom_site_aniso_U_13
_atom_site_aniso_U_23
Te1 Te4+ 0.0446(6) 0.0429(7) 0.0500(7) -.0046(5) 0.0091(5) 0.0005(6)
I1 I1- 0.171(2) 0.0786(14) 0.0821(14) -.0318(14) 0.0510(14) 0.0184(12)
I2 I1- 0.0618(9) 0.0861(13) 0.130(2) 0.0174(9) 0.0114(10) -.0363(13)
I3 I1- 0.0613(9) 0.0746(11) 0.0581(9) -.0109(8) 0.0060(7) -.0156(9)
I4 I1- 0.0429(6) 0.0640(9) 0.0585(9) 0.0045(6) 0.0181(6) 0.0067(8)
I5 I1- 0.0581(7) 0.0737(12) 0.0575(9) 0.0022(7) 0.0274(7) 0.0055(8)
I6 I1- 0.0724(9) 0.0410(7) 0.0775(11) 0.0043(7) 0.0042(8) 0.0002(8)
I7 I1- 0.0517(7) 0.0543(8) 0.0579(9) 0.0094(6) 0.0010(6) -.0070(7)
Al1 Al3+ 0.042(3) 0.040(3) 0.046(3) 0.002(2) 0.011(2) 0.000(3)
#End of data_401395-ICSD


