data_173780-ICSD
#?2014 by Fachinformationszentrum Karlsruhe, and the U.S. Secretary of 
#Commerce on behalf of the United States.  All rights reserved.
_database_code_ICSD                173780
_audit_creation_date               2009/08/01
_chemical_name_systematic          'Tristrontium Magnesium Disilicate'
_chemical_formula_structural       'Sr3 Mg (Si2 O8)'
_chemical_formula_sum              'Mg1 O8 Si2 Sr3'
_publ_section_title
;
Crystal structure of Eu(2+)-doped M3 Mg Si2 O8 (M: Ba, Sr, Ca) 
compounds and their emission properties
;
loop_
_citation_id
_citation_journal_abbrev
_citation_year
_citation_journal_volume
_citation_journal_issue
_citation_page_first
_citation_page_last
_citation_journal_id_ASTM
primary 'Journal of Solid State Chemistry' 2009 182 12 547 554 JSSCBI
_publ_author_name
;
Yonesaki, Y.;Takei, T.;Kumada, N.;Kinomura, N.
;
_cell_length_a                     13.877(2)
_cell_length_b                     5.4577(8)
_cell_length_c                     9.452(14)
_cell_angle_alpha                  90
_cell_angle_beta                   90.000(7)
_cell_angle_gamma                  90
_cell_volume                       715.86
_cell_formula_units_Z              4
_symmetry_space_group_name_H-M     'P 1 21/a 1'
_symmetry_Int_Tables_number        14
_refine_ls_R_factor_all            .0147
loop_
_symmetry_equiv_pos_site_id
_symmetry_equiv_pos_as_xyz
  1	'x+.5, -y+.5, z'
  2	'-x, -y, -z'
  3	'-x+.5, y+.5, -z'
  4	'x, y, z'
loop_
_atom_type_symbol
_atom_type_oxidation_number
Mg2+	2
O2-	-2
Si4+	4
Sr2+	2
loop_
_atom_site_label
_atom_site_type_symbol
_atom_site_symmetry_multiplicity
_atom_site_Wyckoff_symbol
_atom_site_fract_x
_atom_site_fract_y
_atom_site_fract_z
_atom_site_occupancy
_atom_site_attached_hydrogens
_atom_site_B_iso_or_equiv
Sr1 Sr2+ 4 e 0.2500(4) 0.2126(4) 0.2528(5) 1. 0 1.75(7) 
Sr2 Sr2+ 4 e 0.0862(2) 0.246(10) 0.9189(8) 1. 0 1.0(10) 
Sr3 Sr2+ 4 e 0.0889(2) 0.741(10) 0.4230(7) 1. 0 0.72(9) 
Mg1 Mg2+ 4 e -0.003(11) 0.235(3) 0.247(15) 1. 0 .5(16) 
Si1 Si4+ 4 e 0.1407(6) 0.253(3) 0.574(19) 1. 0 0.50(9) 
Si2 Si4+ 4 e 0.1300(7) 0.739(3) 0.082(2) 1. 0 0.50(9) 
O1 O2- 4 e 0.087(18) 0.255(5) 0.428(2) 1. 0 .6(15) 
O2 O2- 4 e 0.073(15) 0.459(5) 0.680(3) 1. 0 .6(15) 
O3 O2- 4 e 0.085(16) 0.999(5) 0.655(3) 1. 0 .6(15) 
O4 O2- 4 e 0.241(16) 0.287(6) 0.560(3) 1. 0 2.9(3) 
O5 O2- 4 e 0.125(14) 0.737(5) 0.925(2) 1. 0 .6(15) 
O6 O2- 4 e 0.250(16) 0.764(5) 0.085(4) 1. 0 2.9(3) 
O7 O2- 4 e 0.107(14) 0.462(4) 0.181(3) 1. 0 .6(15) 
O8 O2- 4 e 0.077(14) 0.936(4) 0.167(3) 1. 0 .6(15) 

#End of data_173780-ICSD


