data_14105-ICSD
#?2014 by Fachinformationszentrum Karlsruhe, and the U.S. Secretary of 
#Commerce on behalf of the United States.  All rights reserved.
_database_code_ICSD                14105
_audit_creation_date               1980/12/31
_chemical_name_systematic          'Potassium Tetrachlorothallate'
_chemical_formula_structural       'K Tl Cl4'
_chemical_formula_sum              'Cl4 K1 Tl1'
_publ_section_title
;
Crystal and Molecular Structure of Potassium Tetrachlorothallate(III)
;
loop_
_citation_id
_citation_journal_abbrev
_citation_year
_citation_journal_volume
_citation_page_first
_citation_page_last
_citation_journal_id_ASTM
primary 'Acta Chemica Scandinavica, Series A: (28,1974-)'
 1980 34 75 76 ACAPCT
_publ_author_name                  'Glaser, J.'
_cell_length_a                     6.892(2)
_cell_length_b                     6.892(2)
_cell_length_c                     15.327(2)
_cell_angle_alpha                  90.
_cell_angle_beta                   90.
_cell_angle_gamma                  90.
_cell_volume                       728.03
_cell_formula_units_Z              4
_symmetry_space_group_name_H-M     'I 41/a Z'
_symmetry_Int_Tables_number        88
_refine_ls_R_factor_all            .035
loop_
_symmetry_equiv_pos_site_id
_symmetry_equiv_pos_as_xyz
  1	'-y+.75, x+.75, -z+.75'
  2	'y+.25, -x+.75, -z+.75'
  3	'x, y+.5, -z'
  4	'-x, -y, -z'
  5	'y+.25, -x+.25, z+.25'
  6	'-y+.75, x+.25, z+.25'
  7	'-x, -y+.5, z'
  8	'x, y, z'
  9	'-y+.25, x+.25, -z+.25'
 10	'y+.75, -x+.25, -z+.25'
 11	'x+.5, y, -z+.5'
 12	'-x+.5, -y+.5, -z+.5'
 13	'y+.75, -x+.75, z+.75'
 14	'-y+.25, x+.75, z+.75'
 15	'-x+.5, -y, z+.5'
 16	'x+.5, y+.5, z+.5'
loop_
_atom_type_symbol
_atom_type_oxidation_number
Cl1-	-1
K1+	1
Tl3+	3
loop_
_atom_site_label
_atom_site_type_symbol
_atom_site_symmetry_multiplicity
_atom_site_Wyckoff_symbol
_atom_site_fract_x
_atom_site_fract_y
_atom_site_fract_z
_atom_site_occupancy
_atom_site_attached_hydrogens
Tl1 Tl3+ 4 a 0 0.25 0.125 1. 0 
Cl1 Cl1- 16 f 0.1615(4) 0.4982(4) 0.2102(2) 1. 0 
K1 K1+ 4 b 0 0.25 0.625 1. 0 

loop_
_atom_site_aniso_label
_atom_site_aniso_type_symbol
_atom_site_aniso_U_11
_atom_site_aniso_U_22
_atom_site_aniso_U_33
_atom_site_aniso_U_12
_atom_site_aniso_U_13
_atom_site_aniso_U_23
Tl1 Tl3+ 0.0273(4) 0.0273 0.0288(6) 0 0 0
Cl1 Cl1- 0.043(2) 0.049(2) 0.039(1) -.014(1) 0.005(1) -.014(1)
K1 K1+ 0.044(2) 0.044 0.038(3) 0 0 0
#End of data_14105-ICSD


