data_417005-ICSD
#?2014 by Fachinformationszentrum Karlsruhe, and the U.S. Secretary of 
#Commerce on behalf of the United States.  All rights reserved.
_database_code_ICSD                417005
_audit_creation_date               2007/08/01
_chemical_name_systematic          'Chromium Dialuminium Octachloride'
_chemical_formula_structural       'Cr Al2 Cl8'
_chemical_formula_sum              'Al2 Cl8 Cr1'
_publ_section_title
;
Herstellung und Kristallstruktur von Cr Al2 Cl8
;
loop_
_citation_id
_citation_journal_abbrev
_citation_year
_citation_journal_volume
_citation_journal_issue
_citation_page_first
_citation_page_last
_citation_journal_id_ASTM
primary 'Zeitschrift fuer Anorganische und Allgemeine Chemie (1950) (DE)'
 2006 632 12-13 2130 2130 ZAACAB
_publ_author_name                  'Vajenine, G.V.'
_cell_length_a                     15.1007(13)
_cell_length_b                     6.0418(4)
_cell_length_c                     13.0077(11)
_cell_angle_alpha                  90.
_cell_angle_beta                   90.
_cell_angle_gamma                  90.
_cell_volume                       1186.76
_cell_formula_units_Z              4
_symmetry_space_group_name_H-M     'P c a 21'
_symmetry_Int_Tables_number        29
_refine_ls_R_factor_all            .0655
loop_
_symmetry_equiv_pos_site_id
_symmetry_equiv_pos_as_xyz
  1	'x+.5, -y, z'
  2	'-x+.5, y, z+.5'
  3	'-x, -y, z+.5'
  4	'x, y, z'
loop_
_atom_type_symbol
_atom_type_oxidation_number
Al3+	3
Cl1-	-1
Cr2+	2
loop_
_atom_site_label
_atom_site_type_symbol
_atom_site_symmetry_multiplicity
_atom_site_Wyckoff_symbol
_atom_site_fract_x
_atom_site_fract_y
_atom_site_fract_z
_atom_site_occupancy
_atom_site_attached_hydrogens
_atom_site_U_iso_or_equiv
Cr1 Cr2+ 4 a 0.12603(4) 0.75527(10) 0.50000(9) 1 0 0.03218(9) 
Al1 Al3+ 4 a 0.25928(6) 1.12213(15) 0.59242(11) 1 0 0.02987(18) 
Al2 Al3+ 4 a -0.00748(6) 0.38963(15) 0.40782(10) 1 0 0.02936(18) 
Cl1 Cl1- 4 a 0.13560(9) 0.98314(16) 0.65223(11) 1 0 0.0385(3) 
Cl2 Cl1- 4 a 0.24625(9) 0.98307(14) 0.43729(11) 1 0 0.0358(3) 
Cl3 Cl1- 4 a 0.37002(11) 1.00117(17) 0.66893(17) 1 0 0.0481(4) 
Cl4 Cl1- 4 a 0.25413(7) 1.47154(14) 0.59035(12) 1 0 0.0404(2) 
Cl5 Cl1- 4 a 0.11618(9) 0.52811(17) 0.34748(10) 1 0 0.0378(3) 
Cl6 Cl1- 4 a 0.00640(9) 0.52680(16) 0.56274(11) 1 0 0.0353(2) 
Cl7 Cl1- 4 a -0.11769(12) 0.51335(18) 0.33170(18) 1 0 0.0503(5) 
Cl8 Cl1- 4 a -0.00292(7) 0.04027(15) 0.40983(11) 1 0 0.0412(2) 

loop_
_atom_site_aniso_label
_atom_site_aniso_type_symbol
_atom_site_aniso_U_11
_atom_site_aniso_U_22
_atom_site_aniso_U_33
_atom_site_aniso_U_12
_atom_site_aniso_U_13
_atom_site_aniso_U_23
Cr1 Cr2+ 0.03465(17) 0.0269(2) 0.03503(17) -0.00812(14) 0.00372(15) 
-0.00526(15)
Al1 Al3+ 0.0334(4) 0.0221(4) 0.0341(4) -0.0018(3) -0.0030(3) 0.0005(4)
Al2 Al3+ 0.0320(4) 0.0223(4) 0.0337(4) -0.0019(3) -0.0027(3) -0.0007(3)
Cl1 Cl1- 0.0429(6) 0.0345(5) 0.0382(7) -0.0095(3) 0.0096(5) -0.0079(3)
Cl2 Cl1- 0.0384(6) 0.0351(5) 0.0338(6) -0.0088(3) 0.0047(4) -0.0028(3)
Cl3 Cl1- 0.0451(8) 0.0443(8) 0.0548(12) 0.0033(3) -0.0155(7) 0.0086(4)
Cl4 Cl1- 0.0423(5) 0.0241(4) 0.0549(6) -0.0009(3) -0.0057(4) 0.0000(4)
Cl5 Cl1- 0.0447(6) 0.0337(4) 0.0349(6) -0.0090(3) 0.0090(5) -0.0063(4)
Cl6 Cl1- 0.0376(5) 0.0360(4) 0.0323(6) -0.0094(3) 0.0049(4) -0.0032(4)
Cl7 Cl1- 0.0493(9) 0.0430(8) 0.0586(13) 0.0054(4) -0.0191(8) 0.0042(5)
Cl8 Cl1- 0.0435(5) 0.0229(4) 0.0573(6) -0.0011(3) -0.0046(4) 0.0001(5)
#End of data_417005-ICSD


