data_280727-ICSD
#?2014 by Fachinformationszentrum Karlsruhe, and the U.S. Secretary of 
#Commerce on behalf of the United States.  All rights reserved.
_database_code_ICSD                280727
_audit_creation_date               2002/10/01
_chemical_name_systematic
;
Tetrapotassium Di-mue-thiocyano-bis(dithiocyanoargentate)
;
_chemical_formula_structural       'K4 ((Ag (S C N)2)2 (S C N)2)'
_chemical_formula_sum              'C6 Ag2 K4 N6 S6'
_publ_section_title
;
Potassium thiocyanato argentates: K3 (Ag (S C N)4), K4 (Ag2 (S C N)6) 
and K (Ag (S C N)2)
;
loop_
_citation_id
_citation_journal_abbrev
_citation_year
_citation_journal_volume
_citation_page_first
_citation_page_last
_citation_journal_id_ASTM
primary 'Acta Crystallographica, Section C: Crystal Structure Communications'
 2001 57 781 783 ACSCEE
_publ_author_name                  'Krautscheid, H.;Gerber, S.'
_cell_length_a                     9.8701(6)
_cell_length_b                     20.08929(80)
_cell_length_c                     10.6229(7)
_cell_angle_alpha                  90.
_cell_angle_beta                   105.494(8)
_cell_angle_gamma                  90.
_cell_volume                       2029.8
_cell_formula_units_Z              4
_symmetry_space_group_name_H-M     'P 1 21/n 1'
_symmetry_Int_Tables_number        14
_refine_ls_R_factor_all            .035
loop_
_symmetry_equiv_pos_site_id
_symmetry_equiv_pos_as_xyz
  1	'-x+.5, y+.5, -z+.5'
  2	'-x, -y, -z'
  3	'x+.5, -y+.5, z+.5'
  4	'x, y, z'
loop_
_atom_type_symbol
_atom_type_oxidation_number
Ag1+	1
C4+	4
K1+	1
N3-	-3
S2-	-2
loop_
_atom_site_label
_atom_site_type_symbol
_atom_site_symmetry_multiplicity
_atom_site_Wyckoff_symbol
_atom_site_fract_x
_atom_site_fract_y
_atom_site_fract_z
_atom_site_occupancy
_atom_site_attached_hydrogens
K1 K1+ 4 e 0.13190(7) 0.60708(3) 0.62305(6) 1. 0 
K2 K1+ 4 e 0.51006(7) 0.21988(4) 0.21167(7) 1. 0 
K3 K1+ 4 e 0.75220(7) 0.23545(3) 0.95759(7) 1. 0 
K4 K1+ 4 e 0.85906(7) 0.59757(4) 0.89041(7) 1. 0 
Ag1 Ag1+ 4 e 0.58284(3) 0.428060(14) 0.60020(3) 1. 0 
S1 S2- 4 e 0.66614(7) 0.51358(4) 0.43846(7) 1. 0 
C1 C4+ 4 e 0.7669(3) 0.56453(15) 0.5472(3) 1. 0 
N1 N3- 4 e 0.8372(3) 0.60092(14) 0.6211(3) 1. 0 
S2 S2- 4 e 0.70469(8) 0.44528(4) 0.83548(8) 1. 0 
C2 C4+ 4 e 0.8261(3) 0.38695(15) 0.8771(3) 1. 0 
N2 N3- 4 e 0.9125(3) 0.34654(14) 0.9108(3) 1. 0 
S3 S2- 4 e 0.57750(8) 0.32303(4) 0.46711(7) 1. 0 
C3 C4+ 4 e 0.6573(3) 0.27183(16) 0.5871(3) 1. 0 
N3 N3- 4 e 0.7138(3) 0.23620(16) 0.6701(3) 1. 0 
Ag2 Ag1+ 4 e 0.62324(3) 0.548130(15) 0.12169(3) 1. 0 
S4 S2- 4 e 0.51337(8) 0.56962(4) -.13225(8) 1. 0 
C4 C4+ 4 e 0.3950(3) 0.62834(15) -.1324(3) 1. 0 
N4 N3- 4 e 0.3118(3) 0.66933(14) -.1376(3) 1. 0 
S5 S2- 4 e 0.66536(10) 0.66004(4) 0.24597(8) 1. 0 
C5 C4+ 4 e 0.5972(3) 0.71854(15) 0.1382(3) 1. 0 
N5 N3- 4 e 0.5489(3) 0.75981(15) 0.0638(3) 1. 0 
S6 S2- 4 e 0.87835(7) 0.50193(4) 0.14962(7) 1. 0 
C6 C4+ 4 e 0.9600(3) 0.54842(15) 0.2770(3) 1. 0 
N6 N3- 4 e 1.0152(3) 0.58136(16) 0.3641(3) 1. 0 

loop_
_atom_site_aniso_label
_atom_site_aniso_type_symbol
_atom_site_aniso_U_11
_atom_site_aniso_U_22
_atom_site_aniso_U_33
_atom_site_aniso_U_12
_atom_site_aniso_U_13
_atom_site_aniso_U_23
K1 K1+ 0.0274(3) 0.0242(3) 0.0222(3) 0.0011(2) 0.0023(2) 0.0003(2)
K2 K1+ 0.0347(3) 0.0268(4) 0.0260(3) -.0021(2) 0.0101(3) -.0003(2)
K3 K1+ 0.0299(3) 0.0247(3) 0.0310(3) -.0035(2) 0.0118(3) -.0022(2)
K4 K1+ 0.0323(3) 0.0262(4) 0.0270(3) -.0009(2) 0.0056(3) 0.0023(2)
Ag1 Ag1+ 0.04157(16) 0.02605(15) 0.03345(14) 0.00583(10) -.00316(11) 
-.0042(1)
S1 S2- 0.0245(3) 0.0203(4) 0.0257(3) 0.0012(2) 0.0050(3) -.0003(2)
C1 C4+ 0.0236(13) 0.0205(15) 0.0264(13) 0.0032(10) 0.0074(11) 0.0048(10)
N1 N3- 0.0317(13) 0.0265(15) 0.0293(13) -.0005(10) 0.0054(10) -.0023(10)
S2 S2- 0.0295(4) 0.0310(4) 0.0284(4) 0.0076(3) 0.0018(3) -.0078(3)
C2 C4+ 0.0254(13) 0.0200(14) 0.0221(12) -.0051(10) 0.0064(10) -.0036(10)
N2 N3- 0.0319(13) 0.0231(14) 0.0311(13) 0.000(1) 0.0074(11) 0.0014(10)
S3 S2- 0.0344(4) 0.0214(4) 0.0248(3) -.0014(3) 0.0054(3) -.0024(3)
C3 C4+ 0.0279(14) 0.0219(15) 0.0282(14) -.0045(11) 0.0071(11) -.0049(11)
N3 N3- 0.0439(16) 0.0283(16) 0.0356(15) -.0018(12) 0.0036(12) 0.0010(11)
Ag2 Ag1+ 0.03317(14) 0.02880(16) 0.04352(16) 0.00076(10) 0.00298(11) 
-.00352(10)
S4 S2- 0.0237(3) 0.0265(4) 0.0327(4) 0.0009(3) 0.0058(3) -.0039(3)
C4 C4+ 0.0255(13) 0.0209(15) 0.0207(12) -.0049(10) 0.0016(10) -.0025(10)
N4 N3- 0.0363(14) 0.0232(14) 0.0305(13) 0.0037(11) 0.0043(11) -.0025(10)
S5 S2- 0.0473(5) 0.0216(4) 0.0293(4) 0.0016(3) -.0031(3) 0.0018(3)
C5 C4+ 0.0242(13) 0.0202(15) 0.0251(13) -.0028(10) 0.0035(10) -.0034(10)
N5 N3- 0.0337(14) 0.0270(15) 0.0317(14) -.0004(11) 0.0018(11) 0.0019(11)
S6 S2- 0.0253(3) 0.0216(4) 0.0220(3) 0.0000(2) 0.0042(3) -.0023(2)
C6 C4+ 0.0264(13) 0.0213(15) 0.0202(12) 0.0025(10) 0.0042(10) 0.0023(10)
N6 N3- 0.0358(14) 0.0323(16) 0.0264(13) -.0004(11) 0.0025(11) -.0032(11)
#End of data_280727-ICSD


