data_81297-ICSD
#?2014 by Fachinformationszentrum Karlsruhe, and the U.S. Secretary of 
#Commerce on behalf of the United States.  All rights reserved.
_database_code_ICSD                81297
_audit_creation_date               1997/11/05
_chemical_name_systematic
;
Potassium Titanium Pentaselenophosphate(V)
;
_chemical_formula_structural       'K Ti (P Se5)'
_chemical_formula_sum              'K1 P1 Se5 Ti1'
_publ_section_title
;
Complex multinary compounds from molten alkali metal 
polyselenophosphate fluxes. Layers and chains in A4 Ti2 (P2 Se9)2 (P2 
Se7) and A Ti P Se5 (A = K, Rb). Isolation of (P2 Se9)(4-), a flux 
constituent anion
;
loop_
_citation_id
_citation_journal_abbrev
_citation_year
_citation_journal_volume
_citation_page_first
_citation_page_last
_citation_journal_id_ASTM
primary 'Inorganic Chemistry' 1995 34 5401 5402 INOCAJ
_publ_author_name                  'Chondroudis, K.;Kanatzidis, M.G.'
_cell_length_a                     18.4300(10)
_cell_length_b                     7.364(2)
_cell_length_c                     6.561(1)
_cell_angle_alpha                  90.
_cell_angle_beta                   98.08(1)
_cell_angle_gamma                  90.
_cell_volume                       881.61
_cell_formula_units_Z              4
_symmetry_space_group_name_H-M     'C 1 2/m 1'
_symmetry_Int_Tables_number        12
_refine_ls_R_factor_all            .059
loop_
_symmetry_equiv_pos_site_id
_symmetry_equiv_pos_as_xyz
  1	'-x, y, -z'
  2	'-x, -y, -z'
  3	'x, -y, z'
  4	'x, y, z'
  5	'-x+.5, y+.5, -z'
  6	'-x+.5, -y+.5, -z'
  7	'x+.5, -y+.5, z'
  8	'x+.5, y+.5, z'
loop_
_atom_type_symbol
_atom_type_oxidation_number
K1+	1
P5+	5
Se2-	-2
Ti4+	4
loop_
_atom_site_label
_atom_site_type_symbol
_atom_site_symmetry_multiplicity
_atom_site_Wyckoff_symbol
_atom_site_fract_x
_atom_site_fract_y
_atom_site_fract_z
_atom_site_occupancy
_atom_site_attached_hydrogens
Se1 Se2- 4 i 0.0850(2) 0 0.8832(5) 1. 0 
Se2 Se2- 8 j 0.0866(1) 0.2409(4) 0.3405(4) 1. 0 
Se3 Se2- 4 i 0.2548(2) 0 0.2584(6) 1. 0 
Se4 Se2- 4 i 0.0620(2) 0.5 0.8114(5) 1. 0 
Ti1 Ti4+ 4 g 0 0.724(1) 0 1. 0 
K1 K1+ 4 i 0.2673(5) 0 0.766(1) 1. 0 
P1 P5+ 4 i 0.1378(6) 0 0.214(1) 1. 0 

loop_
_atom_site_aniso_label
_atom_site_aniso_type_symbol
_atom_site_aniso_U_11
_atom_site_aniso_U_22
_atom_site_aniso_U_33
_atom_site_aniso_U_12
_atom_site_aniso_U_13
_atom_site_aniso_U_23
Se1 Se2- 0.012(3) 0.014(3) 0.010(2) 0 0.003(2) 0
Se2 Se2- 0.016(2) 0.015(2) 0.012(2) 0.003(1) -.002(1) -.003(1)
Se3 Se2- 0.013(3) 0.026(3) 0.018(2) 0 0.003(2) 0
Se4 Se2- 0.016(3) 0.010(3) 0.012(2) 0 0.003(2) 0
Ti1 Ti4+ 0.000(4) 0.013(4) 0.013(4) 0 0.000(3) 0
K1 K1+ 0.024(6) 0.028(6) 0.020(5) 0 0.000(4) 0
P1 P5+ 0.023(7) 0.010(6) 0.013(6) 0 0.011(5) 0
#End of data_81297-ICSD


