data_249643-ICSD
#?2014 by Fachinformationszentrum Karlsruhe, and the U.S. Secretary of 
#Commerce on behalf of the United States.  All rights reserved.
_database_code_ICSD                249643
_audit_creation_date               2009/02/01
_chemical_name_systematic
;
Sodium Neodymium Octaselenotetragallate
;
_chemical_formula_structural       'Na Nd Ga4 Se8'
_chemical_formula_sum              'Ga4 Na1 Nd1 Se8'
_publ_section_title
;
Synthesis, structure, and optical properties of the quaternary seleno-
gallates Na Ln Ga4 Se8 (Ln = La, Ce, Nd) and their comparison with 
the isostructural thio-gallates
;
loop_
_citation_id
_citation_journal_abbrev
_citation_year
_citation_journal_volume
_citation_journal_issue
_citation_page_first
_citation_page_last
_citation_journal_id_ASTM
primary 'Inorganic Chemistry' 2008 47 9 3603 3609 INOCAJ
_publ_author_name                  'Choudhury, A.;Dorhout, P.K.'
_cell_length_a                     21.015(2)
_cell_length_b                     21.045(1)
_cell_length_c                     12.709(1)
_cell_angle_alpha                  90.00
_cell_angle_beta                   90.00
_cell_angle_gamma                  90.00
_cell_volume                       5620.69
_cell_formula_units_Z              16
_symmetry_space_group_name_H-M     'F d d d Z'
_symmetry_Int_Tables_number        70
_refine_ls_R_factor_all            .0369
loop_
_symmetry_equiv_pos_site_id
_symmetry_equiv_pos_as_xyz
  1	'x+.75, y+.75, -z'
  2	'x+.75, -y, z+.75'
  3	'-x, y+.75, z+.75'
  4	'-x, -y, -z'
  5	'-x+.25, -y+.25, z'
  6	'-x+.25, y, -z+.25'
  7	'x, -y+.25, -z+.25'
  8	'x, y, z'
  9	'x+.75, y+.25, -z+.5'
 10	'x+.25, y+.75, -z+.5'
 11	'x+.25, y+.25, -z'
 12	'x+.75, -y+.5, z+.25'
 13	'x+.25, -y, z+.25'
 14	'x+.25, -y+.5, z+.75'
 15	'-x, y+.25, z+.25'
 16	'-x+.5, y+.75, z+.25'
 17	'-x+.5, y+.25, z+.75'
 18	'-x, -y+.5, -z+.5'
 19	'-x+.5, -y, -z+.5'
 20	'-x+.5, -y+.5, -z'
 21	'-x+.25, -y+.75, z+.5'
 22	'-x+.75, -y+.25, z+.5'
 23	'-x+.75, -y+.75, z'
 24	'-x+.25, y+.5, -z+.75'
 25	'-x+.75, y, -z+.75'
 26	'-x+.75, y+.5, -z+.25'
 27	'x, -y+.75, -z+.75'
 28	'x+.5, -y+.25, -z+.75'
 29	'x+.5, -y+.75, -z+.25'
 30	'x, y+.5, z+.5'
 31	'x+.5, y, z+.5'
 32	'x+.5, y+.5, z'
loop_
_atom_type_symbol
_atom_type_oxidation_number
Ga3+	3
Na1+	1
Nd3+	3
Se2-	-2
loop_
_atom_site_label
_atom_site_type_symbol
_atom_site_symmetry_multiplicity
_atom_site_Wyckoff_symbol
_atom_site_fract_x
_atom_site_fract_y
_atom_site_fract_z
_atom_site_occupancy
_atom_site_attached_hydrogens
_atom_site_U_iso_or_equiv
Nd1 Nd3+ 8 a 0.1250 0.1250 0.1250 1 0 0.01071(17) 
Nd2 Nd3+ 8 b 0.1250 0.1250 0.6250 1 0 0.01105(17) 
Na1 Na1+ 16 e 0.3783(2) 0.1250 0.1250 1 0 0.0333(11) 
Ga1 Ga3+ 32 h 0.75261(3) 0.48979(3) 0.12577(5) 1 0 0.01159(19) 
Ga2 Ga3+ 32 h 0.74920(4) 0.69512(3) 0.41545(5) 1 0 0.01158(19) 
Se1 Se2- 32 h 0.00317(3) 0.59235(3) 0.24783(5) 1 0 0.01257(17) 
Se2 Se2- 32 h 0.75058(3) 0.58428(3) 0.01533(5) 1 0 0.01087(16) 
Se3 Se2- 32 h 0.58693(3) 0.74786(3) 0.24465(4) 1 0 0.01199(16) 
Se4 Se2- 32 h 0.91259(3) 0.49807(3) 0.99661(4) 1 0 0.01153(16) 

loop_
_atom_site_aniso_label
_atom_site_aniso_type_symbol
_atom_site_aniso_U_11
_atom_site_aniso_U_22
_atom_site_aniso_U_33
_atom_site_aniso_U_12
_atom_site_aniso_U_13
_atom_site_aniso_U_23
Nd1 Nd3+ 0.0099(4) 0.0101(3) 0.0122(3) 0.000 0.000 0.000
Nd2 Nd3+ 0.0113(4) 0.0106(3) 0.0113(3) 0.000 0.000 0.000
Na1 Na1+ 0.022(3) 0.033(3) 0.044(3) 0.000 0.000 -0.009(2)
Ga1 Ga3+ 0.0145(4) 0.0113(4) 0.0090(4) 0.0012(3) -0.0001(3) -0.0010(3)
Ga2 Ga3+ 0.0141(4) 0.0121(4) 0.0085(3) -0.0011(3) 0.0007(3) -0.0016(3)
Se1 Se2- 0.0179(4) 0.0093(3) 0.0106(3) -0.0005(3) 0.0021(3) 0.0012(2)
Se2 Se2- 0.0148(4) 0.0100(3) 0.0078(3) 0.0008(3) 0.0004(2) -0.0004(2)
Se3 Se2- 0.0107(4) 0.0142(3) 0.0111(3) 0.0005(3) -0.0001(3) -0.0023(2)
Se4 Se2- 0.0103(4) 0.0116(3) 0.0127(3) -0.0001(3) -0.0004(3) -0.0001(2)
#End of data_249643-ICSD


