data_16223-ICSD
#?2014 by Fachinformationszentrum Karlsruhe, and the U.S. Secretary of 
#Commerce on behalf of the United States.  All rights reserved.
_database_code_ICSD                16223
_audit_creation_date               1980/01/01
_audit_update_record               2009/08/01
_chemical_name_systematic          'Dipotassium Dicadmium Oxide'
_chemical_formula_structural       'K2 Cd2 O3'
_chemical_formula_sum              'Cd2 K2 O3'
_publ_section_title                'Ueber Oxocadmate: K2 Cd2 O3'
loop_
_citation_id
_citation_journal_abbrev
_citation_year
_citation_journal_volume
_citation_page_first
_citation_page_last
_citation_journal_id_ASTM
primary 'Zeitschrift fuer Anorganische und Allgemeine Chemie (1950) (DE)'
 1971 382 270 280 ZAACAB
_publ_author_name                  'Vielhaber, E.;Hoppe, R.'
_cell_length_a                     6.417
_cell_length_b                     6.723
_cell_length_c                     6.586
_cell_angle_alpha                  90.
_cell_angle_beta                   116.
_cell_angle_gamma                  90.
_cell_volume                       255.37
_cell_formula_units_Z              2
_symmetry_space_group_name_H-M     'P 1 21/c 1'
_symmetry_Int_Tables_number        14
_refine_ls_R_factor_all            .0973
loop_
_symmetry_equiv_pos_site_id
_symmetry_equiv_pos_as_xyz
  1	'x, -y+.5, z+.5'
  2	'-x, -y, -z'
  3	'-x, y+.5, -z+.5'
  4	'x, y, z'
loop_
_atom_type_symbol
_atom_type_oxidation_number
Cd2+	2
K1+	1
O2-	-2
loop_
_atom_site_label
_atom_site_type_symbol
_atom_site_symmetry_multiplicity
_atom_site_Wyckoff_symbol
_atom_site_fract_x
_atom_site_fract_y
_atom_site_fract_z
_atom_site_occupancy
_atom_site_attached_hydrogens
_atom_site_B_iso_or_equiv
K1 K1+ 4 e 0.1809 0.8502 0.4224 1. 0 2.03 
Cd1 Cd2+ 4 e 0.33 0.1243 0.0676 1. 0 0.84 
O1 O2- 4 e 0.3984 0.3856 0.2673 1. 0 1.85 
O2 O2- 2 a 0 0 0 1. 0 1.19 

#End of data_16223-ICSD


