data_200780-ICSD
#?2014 by Fachinformationszentrum Karlsruhe, and the U.S. Secretary of 
#Commerce on behalf of the United States.  All rights reserved.
_database_code_ICSD                200780
_audit_creation_date               1984/09/13
_audit_update_record               1985/05/30
_chemical_name_systematic
;
Lithium Cesium Sulfate(IV) Dihydrate
;
_chemical_formula_structural       'Li Cs S O3 (H2 O)2'
_chemical_formula_sum              'H4 Cs1 Li1 O5 S1'
_publ_section_title
;
Sur quelques sulfites de cations monovalents; etude structurale de Li 
Cs O3 (H2 O)2
;
loop_
_citation_id
_citation_journal_abbrev
_citation_year
_citation_journal_volume
_citation_page_first
_citation_page_last
_citation_journal_id_ASTM
primary 'Canadian Journal of Chemistry' 1979 57 899 903 CJCHAG
_publ_author_name
;
Archer, C.;Durand, J.;Cot, L.;Galigne, J.L.
;
_cell_length_a                     11.927(7)
_cell_length_b                     5.670(3)
_cell_length_c                     4.828(2)
_cell_angle_alpha                  90.
_cell_angle_beta                   109.26(4)
_cell_angle_gamma                  90.
_cell_volume                       308.23
_cell_formula_units_Z              2
_symmetry_space_group_name_H-M     'C 1 m 1'
_symmetry_Int_Tables_number        8
_refine_ls_R_factor_all            .046
loop_
_symmetry_equiv_pos_site_id
_symmetry_equiv_pos_as_xyz
  1	'x, -y, z'
  2	'x, y, z'
  3	'x+.5, -y+.5, z'
  4	'x+.5, y+.5, z'
loop_
_atom_type_symbol
_atom_type_oxidation_number
Cs1+	1
H1+	1
Li1+	1
O2-	-2
S4+	4
loop_
_atom_site_label
_atom_site_type_symbol
_atom_site_symmetry_multiplicity
_atom_site_Wyckoff_symbol
_atom_site_fract_x
_atom_site_fract_y
_atom_site_fract_z
_atom_site_occupancy
_atom_site_attached_hydrogens
_atom_site_B_iso_or_equiv
Li1 Li1+ 2 a 0.174(3) 0.5 0.622(7) 1. 0 0 
Cs1 Cs1+ 2 a 0 0 0 1. 0 0 
S1 S4+ 2 a 0.2582(5) 0 0.719(1) 1. 0 0 
O1 O2- 2 a 0.3927(10) 0 0.833(3) 1. 0 0 
O2 O2- 4 b 0.2211(8) 0.215(1) 0.860(2) 1. 0 0 
O3 O2- 2 a 0.504(2) 0 0.426(3) 1. 0 0 
O4 O2- 2 a 0.271(2) 0.5 0.352(5) 1. 0 0 
H1 H1+ 2 a 0.465 0 0.573 1. 0 4. 
H2 H1+ 2 a 0.465 0 0.215 1. 0 4. 
H3 H1+ 4 b 0.268 0.348 0.257 1. 0 4. 

#End of data_200780-ICSD


