data_245619-ICSD
#?2014 by Fachinformationszentrum Karlsruhe, and the U.S. Secretary of 
#Commerce on behalf of the United States.  All rights reserved.
_database_code_ICSD                245619
_audit_creation_date               2008/08/01
_chemical_name_systematic
;
Dipotassium Terbium(IV) Hexafluoride
;
_chemical_formula_structural       'K2 (Tb F6)'
_chemical_formula_sum              'F6 K2 Tb1'
_publ_section_title
;
Magnetic structures of the M2 Tb F6 (M = Li, K, Rb) fluorides: A 
complex behavior resulting from frustration
;
loop_
_citation_id
_citation_journal_abbrev
_citation_year
_citation_journal_volume
_citation_journal_issue
_citation_page_first
_citation_page_last
_citation_journal_id_ASTM
primary 'Journal of Solid State Chemistry' 2007 180 5 1623 1635 JSSCBI
_publ_author_name
;
Josse, M.;El Ghozzi, M.;Avignant, D.;Andre, G.;Bouree, F.
;
_cell_length_a                     6.5909(2)
_cell_length_b                     11.4135(4)
_cell_length_c                     7.1235(2)
_cell_angle_alpha                  90
_cell_angle_beta                   90.502(2)
_cell_angle_gamma                  90
_cell_volume                       535.85
_cell_formula_units_Z              4
_symmetry_space_group_name_H-M     'C 1 2/c 1'
_symmetry_Int_Tables_number        15
_refine_ls_R_factor_all            .0123
loop_
_symmetry_equiv_pos_site_id
_symmetry_equiv_pos_as_xyz
  1	'x, -y, z+.5'
  2	'-x, -y, -z'
  3	'-x, y, -z+.5'
  4	'x, y, z'
  5	'x+.5, -y+.5, z+.5'
  6	'-x+.5, -y+.5, -z'
  7	'-x+.5, y+.5, -z+.5'
  8	'x+.5, y+.5, z'
loop_
_atom_type_symbol
_atom_type_oxidation_number
F1-	-1
K1+	1
Tb4+	4
loop_
_atom_site_label
_atom_site_type_symbol
_atom_site_symmetry_multiplicity
_atom_site_Wyckoff_symbol
_atom_site_fract_x
_atom_site_fract_y
_atom_site_fract_z
_atom_site_occupancy
_atom_site_attached_hydrogens
K1 K1+ 8 f 0.025(2) 0.340(1) 0.999(2) 1. 0 
Tb1 Tb4+ 4 e 0 0.0470(4) 0.25 1. 0 
F1 F1- 8 f 0.2931(9) 0.9813(6) 0.207(1) 1. 0 
F2 F1- 8 f 0.192(1) 0.1934(6) 0.282(1) 1. 0 
F3 F1- 8 f 0.951(1) 0.1011(8) 0.5463(7) 1. 0 

#End of data_245619-ICSD


