data_91234-ICSD
#?2014 by Fachinformationszentrum Karlsruhe, and the U.S. Secretary of 
#Commerce on behalf of the United States.  All rights reserved.
_database_code_ICSD                91234
_audit_creation_date               2002/10/01
_audit_update_record               2007/08/01
_chemical_name_systematic
;
Bismuth Dizinc Phosphate(V) Dioxide
;
_chemical_formula_structural       'Bi Zn2 (P O4) O2'
_chemical_formula_sum              'Bi1 O6 P1 Zn2'
_publ_section_title
;
Crystal structure of Bi Zn2 P O6. Filiation between related related 
compounds
;
loop_
_citation_id
_citation_journal_abbrev
_citation_year
_citation_journal_volume
_citation_page_first
_citation_page_last
_citation_journal_id_ASTM
primary 'Journal of Solid State Chemistry' 2000 153 48 54 JSSCBI
2 'Golden Book of Phase Transitions, Wroclaw' 2002 1 1 123 GBOPT5
_publ_author_name
;
Ketatni, M.;Mernari, B.;Abraham, F.;Mentre, O.
;
_cell_length_a                     11.8941(3)
_cell_length_b                     5.2754(2)
_cell_length_c                     7.8161(2)
_cell_angle_alpha                  90.
_cell_angle_beta                   90.
_cell_angle_gamma                  90.
_cell_volume                       490.43
_cell_formula_units_Z              4
_symmetry_space_group_name_H-M     'P n m a'
_symmetry_Int_Tables_number        62
_refine_ls_R_factor_all            .038
loop_
_symmetry_equiv_pos_site_id
_symmetry_equiv_pos_as_xyz
  1	'x+.5, y, -z+.5'
  2	'x, -y+.5, z'
  3	'-x+.5, y+.5, z+.5'
  4	'-x, -y, -z'
  5	'-x+.5, -y, z+.5'
  6	'-x, y+.5, -z'
  7	'x+.5, -y+.5, -z+.5'
  8	'x, y, z'
loop_
_atom_type_symbol
_atom_type_oxidation_number
Bi3+	3
O2-	-2
P5+	5
Zn2+	2
loop_
_atom_site_label
_atom_site_type_symbol
_atom_site_symmetry_multiplicity
_atom_site_Wyckoff_symbol
_atom_site_fract_x
_atom_site_fract_y
_atom_site_fract_z
_atom_site_occupancy
_atom_site_attached_hydrogens
_atom_site_B_iso_or_equiv
Bi1 Bi3+ 4 c 0.0990(2) 0.25 0.0119(3) 1. 0 1.1(2) 
Zn1 Zn2+ 4 c 0.1028(7) 0.75 0.6915(6) 1. 0 0.9(2) 
Zn2 Zn2+ 4 c 0.0930(7) 0.75 0.3011(6) 1. 0 0.5(2) 
P1 P5+ 4 c 0.1945(8) 0.25 0.481(2) 1. 0 1.4(3) 
O1 O2- 8 d -.010(2) -.006(4) 0.191(2) 1. 0 0.4(2) 
O2 O2- 8 d 0.123(1) 0.497(1) 0.489(3) 1. 0 0.4(2) 
O3 O2- 4 c 0.285(1) 0.25 0.604(2) 1. 0 0.4(2) 
O4 O2- 4 c 0.245(2) 0.25 0.315(3) 1. 0 0.4(2) 

#End of data_91234-ICSD


