data_172420-ICSD
#?2014 by Fachinformationszentrum Karlsruhe, and the U.S. Secretary of 
#Commerce on behalf of the United States.  All rights reserved.
_database_code_ICSD                172420
_audit_creation_date               2007/04/01
_chemical_name_systematic          'Sodium Strontium Borate'
_chemical_formula_structural       'Na Sr B O3'
_chemical_formula_sum              'B1 Na1 O3 Sr1'
_publ_section_title
;
AB initio structure determination of novel borate Na Sr B O3
;
loop_
_citation_id
_citation_journal_abbrev
_citation_year
_citation_journal_volume
_citation_journal_issue
_citation_page_first
_citation_page_last
_citation_journal_id_ASTM
primary 'Journal of Solid State Chemistry' 2006 179 4 1219 1224 JSSCBI
_publ_author_name
;
Wu, L.;Chen, X.-L.;Zhang, Y.;Kong, Y.-F.;Xu, J.-J.;Xu, Y.-P.
;
_cell_length_a                     5.32446(7)
_cell_length_b                     9.22684(1)
_cell_length_c                     6.06683(8)
_cell_angle_alpha                  90
_cell_angle_beta                   100.589(1)
_cell_angle_gamma                  90
_cell_volume                       292.98
_cell_formula_units_Z              4
_symmetry_space_group_name_H-M     'P 1 21/c 1'
_symmetry_Int_Tables_number        14
_refine_ls_R_factor_all            .0775
loop_
_symmetry_equiv_pos_site_id
_symmetry_equiv_pos_as_xyz
  1	'x, -y+.5, z+.5'
  2	'-x, -y, -z'
  3	'-x, y+.5, -z+.5'
  4	'x, y, z'
loop_
_atom_type_symbol
_atom_type_oxidation_number
B3+	3
Na1+	1
O2-	-2
Sr2+	2
loop_
_atom_site_label
_atom_site_type_symbol
_atom_site_symmetry_multiplicity
_atom_site_Wyckoff_symbol
_atom_site_fract_x
_atom_site_fract_y
_atom_site_fract_z
_atom_site_occupancy
_atom_site_attached_hydrogens
_atom_site_U_iso_or_equiv
Sr1 Sr2+ 4 e 0.2422(1) 0.4136(1) 0.2186(1) 1. 0 .0033(1) 
Na1 Na1+ 4 e 0.2554(7) 0.7573(3) 0.0309(4) 1. 0 .0109(2) 
O1 O2- 4 e -0.0390(5) 0.6395(3) 0.2263(3) 1. 0 .0142(5) 
O2 O2- 4 e -0.4274(5) 0.6484(3) 0.3631(3) 1. 0 .0086(5) 
O3 O2- 4 e 0.2677(5) 0.9413(2) 0.3177(3) 1. 0 .0097(4) 
B1 B3+ 4 e -0.2615(7) 0.5861(3) 0.2652(4) 1. 0 .0076(6) 

#End of data_172420-ICSD


