data_248407-ICSD
#?2014 by Fachinformationszentrum Karlsruhe, and the U.S. Secretary of 
#Commerce on behalf of the United States.  All rights reserved.
_database_code_ICSD                248407
_audit_creation_date               2014/08/01
_chemical_name_systematic
;
Potassium Trinickel(II) Orthophosphate Diphosphate
;
_chemical_formula_structural       'K Ni3 (P O4) P2 O7'
_chemical_formula_sum              'K1 Ni3 O11 P3'
_publ_section_title
;
Potassium trinickel(II) orthophosphate diphosphate, KNi3(PO4)P2O7
;
loop_
_citation_id
_citation_journal_abbrev
_citation_year
_citation_journal_volume
_citation_journal_issue
_citation_page_first
_citation_page_last
_citation_journal_id_ASTM
primary 'Acta Crystallographica, Section E. Structure Reports Online'
 2014 70 1 i5 i5 ACSEBH
_publ_author_name
;
Moutataouia, Meryem;Lamire, Mohammed;Saadi, Mohamed;El Ammari, Lahcen
;
_cell_length_a                     9.8591(3)
_cell_length_b                     9.3953(3)
_cell_length_c                     9.9778(3)
_cell_angle_alpha                  90.00
_cell_angle_beta                   118.9650(10)
_cell_angle_gamma                  90.00
_cell_volume                       808.62
_cell_formula_units_Z              4
_symmetry_space_group_name_H-M     'P 1 21/n 1'
_symmetry_Int_Tables_number        14
_refine_ls_R_factor_all            .0196
loop_
_symmetry_equiv_pos_site_id
_symmetry_equiv_pos_as_xyz
  1	'-x+.5, y+.5, -z+.5'
  2	'-x, -y, -z'
  3	'x+.5, -y+.5, z+.5'
  4	'x, y, z'
loop_
_atom_type_symbol
_atom_type_oxidation_number
K1+	1
Ni2+	2
O2-	-2
P5+	5
loop_
_atom_site_label
_atom_site_type_symbol
_atom_site_symmetry_multiplicity
_atom_site_Wyckoff_symbol
_atom_site_fract_x
_atom_site_fract_y
_atom_site_fract_z
_atom_site_occupancy
_atom_site_attached_hydrogens
_atom_site_U_iso_or_equiv
Ni1 Ni2+ 4 e 0.861648(18) 0.127830(16) 0.624602(19) 1 0 0.00491(4) 
Ni2 Ni2+ 4 e 1.007773(18) 0.632051(17) 0.603321(18) 1 0 0.00441(4) 
Ni3 Ni2+ 4 e 0.679301(17) 0.131207(17) 0.264248(18) 1 0 0.00438(4) 
K1 K1+ 4 e 0.50173(3) 0.73539(3) 0.41894(4) 1 0 0.01315(6) 
P1 P5+ 4 e 0.82799(3) 0.83779(3) 0.43146(3) 1 0 0.00345(5) 
P2 P5+ 4 e 0.69371(3) 0.42611(3) 0.42330(3) 1 0 0.00344(6) 
P3 P5+ 4 e 0.85111(3) 0.44065(3) 0.75246(3) 1 0 0.00384(6) 
O1 O2- 4 e 0.96823(10) 0.77074(9) 0.41635(10) 1 0 0.00519(14) 
O2 O2- 4 e 0.82563(10) 1.00027(9) 0.43452(10) 1 0 0.00565(14) 
O3 O2- 4 e 0.84288(10) 0.77158(10) 0.57665(10) 1 0 0.00698(15) 
O4 O2- 4 e 0.68760(10) 0.77531(10) 0.28581(10) 1 0 0.00575(14) 
O5 O2- 4 e 0.54105(10) 0.47889(10) 0.30043(10) 1 0 0.00712(15) 
O6 O2- 4 e 0.83385(10) 0.49624(10) 0.41561(10) 1 0 0.00516(14) 
O7 O2- 4 e 0.70827(10) 0.26402(9) 0.43661(10) 1 0 0.00567(14) 
O8 O2- 4 e 0.70879(10) 0.48003(10) 0.58176(10) 1 0 0.00553(14) 
O9 O2- 4 e 0.81763(10) 0.52456(10) 0.86045(10) 1 0 0.00722(15) 
O10 O2- 4 e 0.85298(11) 0.28110(10) 0.76671(11) 1 0 0.00720(15) 
O11 O2- 4 e 0.99874(10) 0.49156(10) 0.74974(10) 1 0 0.00609(15) 

loop_
_atom_site_aniso_label
_atom_site_aniso_type_symbol
_atom_site_aniso_U_11
_atom_site_aniso_U_22
_atom_site_aniso_U_33
_atom_site_aniso_U_12
_atom_site_aniso_U_13
_atom_site_aniso_U_23
Ni1 Ni2+ 0.00522(7) 0.00507(8) 0.00467(7) 0.00009(4) 0.00258(6) 0.00000(5)
Ni2 Ni2+ 0.00475(7) 0.00416(7) 0.00444(7) 0.00088(4) 0.00232(6) 0.00091(4)
Ni3 Ni2+ 0.00555(7) 0.00355(8) 0.00402(7) -0.00021(4) 0.00230(6) 0.00010(4)
K1 K1+ 0.01425(12) 0.01237(13) 0.01689(13) 0.00032(9) 0.01076(10) 
0.00072(10)
P1 P5+ 0.00407(11) 0.00287(12) 0.00361(12) 0.00047(8) 0.00202(9) 0.00016(9)
P2 P5+ 0.00370(11) 0.00332(12) 0.00354(12) -0.00001(8) 0.00194(9) 
-0.00022(9)
P3 P5+ 0.00463(11) 0.00382(12) 0.00401(12) -0.00023(9) 0.00284(9) 
-0.00035(9)
O1 O2- 0.0048(3) 0.0046(3) 0.0073(4) 0.0006(3) 0.0038(3) 0.0003(3)
O2 O2- 0.0076(3) 0.0031(4) 0.0053(3) 0.0008(3) 0.0025(3) 0.0000(3)
O3 O2- 0.0092(4) 0.0073(4) 0.0064(4) 0.0025(3) 0.0053(3) 0.0023(3)
O4 O2- 0.0045(3) 0.0050(4) 0.0061(3) 0.0000(3) 0.0012(3) -0.0008(3)
O5 O2- 0.0053(3) 0.0072(4) 0.0058(4) 0.0007(3) 0.0003(3) -0.0002(3)
O6 O2- 0.0049(3) 0.0052(4) 0.0065(4) -0.0007(3) 0.0036(3) -0.0002(3)
O7 O2- 0.0077(3) 0.0034(4) 0.0060(4) 0.0002(3) 0.0034(3) -0.0003(3)
O8 O2- 0.0059(3) 0.0067(4) 0.0042(3) 0.0007(3) 0.0025(3) -0.0005(3)
O9 O2- 0.0086(4) 0.0084(4) 0.0062(4) 0.0006(3) 0.0048(3) -0.0020(3)
O10 O2- 0.0112(4) 0.0042(4) 0.0079(4) -0.0006(3) 0.0060(3) -0.0005(3)
O11 O2- 0.0052(3) 0.0068(4) 0.0074(4) 0.0002(3) 0.0039(3) 0.0019(3)
#End of data_248407-ICSD


