data_413882-ICSD
#?2014 by Fachinformationszentrum Karlsruhe, and the U.S. Secretary of 
#Commerce on behalf of the United States.  All rights reserved.
_database_code_ICSD                413882
_audit_creation_date               2005/10/01
_chemical_name_systematic          'Calcium Oxonitridosilicate'
_chemical_formula_structural       'Ca (Si2 O2 N2)'
_chemical_formula_sum              'Ca1 N2 O2 Si2'
_publ_section_title
;
Ca [Si2 O2 N2] - A Novel Layer Silicate
;
loop_
_citation_id
_citation_journal_abbrev
_citation_year
_citation_journal_volume
_citation_journal_issue
_citation_page_first
_citation_page_last
_citation_journal_id_ASTM
primary 'Angewandte Chemie. International Edition' 2004 43 41 5540 5542 ACIEF5
_publ_author_name
;
Hoeppe, H.A.;Stadler, F.;Oeckler, O.;Schnick, W.
;
_cell_length_a                     7.344(2)
_cell_length_b                     13.656(3)
_cell_length_c                     10.483(3)
_cell_angle_alpha                  90.
_cell_angle_beta                   102.04(2)
_cell_angle_gamma                  90.
_cell_volume                       1028.21
_cell_formula_units_Z              12
_symmetry_space_group_name_H-M     'P 1 21 1'
_symmetry_Int_Tables_number        4
_refine_ls_R_factor_all            .0825
loop_
_symmetry_equiv_pos_site_id
_symmetry_equiv_pos_as_xyz
  1	'-x, y+.5, -z'
  2	'x, y, z'
loop_
_atom_type_symbol
_atom_type_oxidation_number
Ca2+	2
N3-	-3
O2-	-2
Si4+	4
loop_
_atom_site_label
_atom_site_type_symbol
_atom_site_symmetry_multiplicity
_atom_site_Wyckoff_symbol
_atom_site_fract_x
_atom_site_fract_y
_atom_site_fract_z
_atom_site_occupancy
_atom_site_attached_hydrogens
_atom_site_U_iso_or_equiv
Ca1 Ca2+ 2 a 0.08082(15) 0.56281(15) 0.94995(10) 1 0 0.0079(2) 
Ca2 Ca2+ 2 a 0.41169(15) 0.57489(14) 1.29898(10) 1 0 0.0099(3) 
Ca3 Ca2+ 2 a -0.25616(15) 0.56653(14) 0.61409(11) 1 0 0.0091(2) 
Ca4 Ca2+ 2 a -0.41216(15) 0.62110(14) 0.95018(10) 1 0 0.0091(3) 
Ca5 Ca2+ 2 a 0.25424(15) 0.62971(14) 0.64302(10) 1 0 0.0087(2) 
Ca6 Ca2+ 2 a -0.08076(15) 0.63341(14) 1.30339(10) 1 0 0.0082(2) 
Si1 Si4+ 2 a -0.3768(3) 0.90404(18) 0.9198(2) 1 0 0.0035(4) 
Si2 Si4+ 2 a -0.0474(3) 0.9072(2) 0.8088(2) 1 0 0.0041(5) 
Si3 Si4+ 2 a 0.2868(3) 0.79507(18) 0.9443(2) 1 0 0.0058(4) 
Si4 Si4+ 2 a 0.6214(3) 0.79672(19) 0.6715(2) 1 0 0.0052(5) 
Si5 Si4+ 2 a 0.6176(3) 0.90139(19) 0.4175(2) 1 0 0.0037(4) 
Si6 Si4+ 2 a 0.2885(3) 0.89621(16) 1.1968(2) 1 0 0.0035(4) 
Si7 Si4+ 2 a -0.3772(3) 0.7930(2) 1.1674(2) 1 0 0.0060(5) 
Si8 Si4+ 2 a 0.9524(3) 0.9028(2) 0.3082(2) 1 0 0.0040(4) 
Si9 Si4+ 2 a -0.2896(3) 0.40499(16) 1.3009(2) 1 0 0.0036(4) 
Si10 Si4+ 2 a -0.0477(3) 0.7938(2) 0.5608(2) 1 0 0.0046(5) 
Si11 Si4+ 2 a -0.0461(3) 0.7892(2) 1.0560(2) 1 0 0.0050(5) 
Si12 Si4+ 2 a 0.2883(3) 0.79493(18) 1.4518(2) 1 0 0.0055(4) 
O1 O2- 2 a -0.0777(7) 0.6787(4) 0.5276(5) 1 0 0.0072(12) 
O2 O2- 2 a -0.3972(7) 0.6780(4) 1.1978(5) 1 0 0.0091(11) 
O3 O2- 2 a -0.3977(7) 1.0154(4) 0.9584(4) 1 0 0.0089(11) 
O4 O2- 2 a -0.1034(8) 0.6780(5) 1.0203(5) 1 0 0.0115(13) 
O5 O2- 2 a 0.2420(6) 1.0069(4) 1.1464(4) 1 0 0.0060(10) 
O6 O2- 2 a -0.1034(7) 1.0195(5) 0.7735(5) 1 0 0.0087(12) 
O7 O2- 2 a 0.5737(7) 1.0121(4) 0.4517(5) 1 0 0.0071(10) 
O8 O2- 2 a 0.0816(7) 0.5165(4) 0.7311(5) 1 0 0.0073(12) 
O9 O2- 2 a -0.4238(7) 0.6862(4) 0.7115(5) 1 0 0.0081(11) 
O10 O2- 2 a 0.2633(7) 0.6880(4) 0.8775(5) 1 0 0.0112(12) 
O11 O2- 2 a 0.2410(6) 0.6854(4) 1.4027(4) 1 0 0.0096(10) 
O12 O2- 2 a -0.2638(6) 0.5114(3) 1.3695(4) 1 0 0.0045(9) 
N1 N3- 2 a -0.1454(9) 0.8236(5) 0.6882(6) 1 0 0.0044(14) 
N2 N3- 2 a -0.1384(10) 0.8778(5) 0.9450(6) 1 0 0.0059(14) 
N3 N3- 2 a 0.1945(9) 0.8854(5) 1.3375(6) 1 0 0.0052(13) 
N4 N3- 2 a 0.5205(8) 0.8711(4) 1.2546(6) 1 0 0.0033(11) 
N5 N3- 2 a 0.1903(9) 0.8087(5) 1.0831(6) 1 0 0.0053(13) 
N6 N3- 2 a 0.1947(9) 0.8916(5) 0.8366(6) 1 0 0.0037(12) 
N7 N3- 2 a 0.5244(9) 0.8821(5) 0.7556(7) 1 0 0.0062(12) 
N8 N3- 2 a -0.4740(8) 0.8126(4) 1.0037(6) 1 0 0.0041(11) 
N9 N3- 2 a 0.8543(10) 0.8735(5) 0.4395(6) 1 0 0.0076(15) 
N10 N3- 2 a -0.1411(9) 0.8175(5) 1.1883(6) 1 0 0.0033(13) 
N11 N3- 2 a -0.1907(9) 0.3147(5) 1.4098(6) 1 0 0.0040(13) 
N12 N3- 2 a 0.5235(8) 0.8133(4) 1.5076(6) 1 0 0.0037(11) 

loop_
_atom_site_aniso_label
_atom_site_aniso_type_symbol
_atom_site_aniso_U_11
_atom_site_aniso_U_22
_atom_site_aniso_U_33
_atom_site_aniso_U_12
_atom_site_aniso_U_13
_atom_site_aniso_U_23
Ca1 Ca2+ 0.0074(6) 0.0070(5) 0.0092(5) 0.0001(4) 0.0013(4) -0.0009(4)
Ca2 Ca2+ 0.0073(6) 0.0089(6) 0.0136(6) -0.0003(4) 0.0020(4) -0.0023(5)
Ca3 Ca2+ 0.0067(5) 0.0075(5) 0.0131(5) -0.0001(4) 0.0019(4) 0.0013(5)
Ca4 Ca2+ 0.0062(6) 0.0079(6) 0.0136(6) -0.0006(4) 0.0029(4) -0.0016(5)
Ca5 Ca2+ 0.0076(5) 0.0067(5) 0.0121(5) -0.0001(4) 0.0026(4) 0.0009(5)
Ca6 Ca2+ 0.0058(5) 0.0085(5) 0.0102(5) 0.0006(4) 0.0014(4) 0.0000(4)
Si1 Si4+ 0.0051(11) 0.0016(9) 0.0039(9) 0.0007(9) 0.0013(8) -0.0017(9)
Si2 Si4+ 0.0048(11) 0.0041(10) 0.0026(9) -0.0017(9) -0.0008(8) 0.0004(9)
Si3 Si4+ 0.0027(10) 0.0093(10) 0.0044(10) -0.0014(9) -0.0016(7) 0.0004(9)
Si4 Si4+ 0.0024(11) 0.0076(11) 0.0053(10) -0.0003(9) 0.0001(8) -0.0017(10)
Si5 Si4+ 0.0044(11) 0.0039(10) 0.0029(9) -0.0005(9) 0.0013(8) -0.0008(9)
Si6 Si4+ 0.0052(10) 0.0014(9) 0.0048(9) -0.0005(8) 0.0029(8) -0.0001(8)
Si7 Si4+ 0.0024(11) 0.0094(11) 0.0057(10) 0.0002(10) -0.0004(8) -0.0009(10)
Si8 Si4+ 0.0048(11) 0.0046(10) 0.0024(10) -0.0017(9) 0.0001(8) -0.0006(9)
Si9 Si4+ 0.0058(10) 0.0014(9) 0.0044(9) 0.0020(9) 0.0027(7) 0.0004(8)
Si10 Si4+ 0.0029(11) 0.0055(10) 0.0060(10) -0.0019(9) 0.0024(8) -0.0007(9)
Si11 Si4+ 0.0029(10) 0.0063(11) 0.0061(10) -0.0019(9) 0.0020(8) -0.0017(9)
Si12 Si4+ 0.0018(10) 0.0089(10) 0.0046(10) -0.0013(9) -0.0019(7) -0.0002(9)
#End of data_413882-ICSD


