data_417617-ICSD
#?2014 by Fachinformationszentrum Karlsruhe, and the U.S. Secretary of 
#Commerce on behalf of the United States.  All rights reserved.
_database_code_ICSD                417617
_audit_creation_date               2008/08/01
_chemical_name_systematic
;
Disilver Tris(trioxomolybdate) Trioxoselenate(IV)
;
_chemical_formula_structural       'Ag2 (Mo O3)3 (Se O3)'
_chemical_formula_sum              'Ag2 Mo3 O12 Se1'
_publ_section_title
;
Syntheses, structures, and properties of Ag4 (Mo2 O5)3 (Se O4)2 (Se 
O3) and Ag2 (Mo O3)3 Se O3
;
loop_
_citation_id
_citation_journal_abbrev
_citation_year
_citation_journal_volume
_citation_journal_issue
_citation_page_first
_citation_page_last
_citation_journal_id_ASTM
primary 'Journal of Solid State Chemistry' 2007 180 5 1601 1607 JSSCBI
_publ_author_name                  'Ling Jie;Albrecht Schmitt, T.E.'
_cell_length_a                     7.3034(5)
_cell_length_b                     11.1485(8)
_cell_length_c                     12.7500(9)
_cell_angle_alpha                  90.00
_cell_angle_beta                   105.0180(10)
_cell_angle_gamma                  90.00
_cell_volume                       1002.67
_cell_formula_units_Z              4
_symmetry_space_group_name_H-M     'P 1 21/n 1'
_symmetry_Int_Tables_number        14
_refine_ls_R_factor_all            .0345
loop_
_symmetry_equiv_pos_site_id
_symmetry_equiv_pos_as_xyz
  1	'-x+.5, y+.5, -z+.5'
  2	'-x, -y, -z'
  3	'x+.5, -y+.5, z+.5'
  4	'x, y, z'
loop_
_atom_type_symbol
_atom_type_oxidation_number
Ag1+	1
Mo6+	6
O2-	-2
Se4+	4
loop_
_atom_site_label
_atom_site_type_symbol
_atom_site_symmetry_multiplicity
_atom_site_Wyckoff_symbol
_atom_site_fract_x
_atom_site_fract_y
_atom_site_fract_z
_atom_site_occupancy
_atom_site_attached_hydrogens
_atom_site_U_iso_or_equiv
Mo1 Mo6+ 4 e 0.15004(6) 0.08270(3) 0.94463(3) 1 0 0.00636(12) 
Mo2 Mo6+ 4 e 0.13073(6) 0.41724(3) 0.93163(3) 1 0 0.00635(12) 
Mo3 Mo6+ 4 e -0.14522(6) 0.24818(3) 0.05667(3) 1 0 0.00637(12) 
Ag1 Ag1+ 4 e -0.41376(5) 0.40227(3) 0.80118(3) 1 0 0.01347(12) 
Ag2 Ag1+ 4 e -0.44934(5) 0.07632(3) 0.81194(3) 1 0 0.01355(12) 
Se1 Se4+ 4 e -0.15215(6) 0.19103(4) 0.69478(3) 1 0 0.00888(13) 
O1 O2- 4 e 0.0986(5) 0.5828(3) 0.9663(3) 1 0 0.0092(7) 
O2 O2- 4 e 0.0857(5) 0.2486(2) 0.9649(3) 1 0 0.0087(7) 
O3 O2- 4 e 0.0588(5) -0.0811(3) 0.9479(3) 1 0 0.0092(7) 
O4 O2- 4 e -0.1195(5) 0.0967(3) 0.8039(3) 1 0 0.0113(7) 
O5 O2- 4 e 0.3410(5) 0.0749(3) 0.0545(3) 1 0 0.0143(8) 
O6 O2- 4 e 0.3099(5) 0.4144(3) 0.0948(3) 1 0 0.0120(7) 
O7 O2- 4 e -0.0541(5) 0.4131(3) 0.8162(3) 1 0 0.0125(7) 
O8 O2- 4 e 0.2569(5) 0.0813(3) 0.8413(3) 1 0 0.0149(8) 
O9 O2- 4 e 0.1204(5) 0.2661(3) 0.1905(3) 1 0 0.0102(6) 
O10 O2- 4 e -0.2494(5) 0.2440(3) 0.1603(3) 1 0 0.0156(8) 
O11 O2- 4 e -0.3352(5) 0.2368(3) 0.9448(3) 1 0 0.0149(8) 
O12 O2- 4 e 0.3219(5) 0.4167(3) 0.8805(3) 1 0 0.0160(8) 

loop_
_atom_site_aniso_label
_atom_site_aniso_type_symbol
_atom_site_aniso_U_11
_atom_site_aniso_U_22
_atom_site_aniso_U_33
_atom_site_aniso_U_12
_atom_site_aniso_U_13
_atom_site_aniso_U_23
Mo1 Mo6+ 0.0058(2) 0.0047(2) 0.0088(2) 0.00014(12) 0.00253(16) 0.00020(12)
Mo2 Mo6+ 0.0075(2) 0.0049(2) 0.0072(2) 0.00013(12) 0.00282(16) 0.00016(12)
Mo3 Mo6+ 0.0063(2) 0.0047(2) 0.0083(2) -0.00013(12) 0.00242(16) 
-0.00041(12)
Ag1 Ag1+ 0.0142(2) 0.01154(19) 0.0153(2) -0.00033(13) 0.00505(15) 
-0.00225(12)
Ag2 Ag1+ 0.0110(2) 0.0158(2) 0.0148(2) -0.00149(12) 0.00513(14) 
-0.00033(12)
Se1 Se4+ 0.0086(2) 0.0082(2) 0.0097(2) -0.00042(15) 0.00202(16) 
-0.00053(15)
O1 O2- 0.0098(17) 0.0053(16) 0.0127(16) 0.0000(10) 0.0034(13) 0.0008(11)
O2 O2- 0.0118(17) 0.0029(17) 0.0125(16) 0.0000(11) 0.0052(13) 0.0000(10)
O3 O2- 0.0129(18) 0.0045(17) 0.0114(15) 0.0010(11) 0.0051(13) 0.0007(11)
O4 O2- 0.0093(17) 0.0158(17) 0.0080(15) 0.0008(12) 0.0005(13) 0.0014(12)
O5 O2- 0.0122(18) 0.0140(18) 0.0143(17) 0.0010(12) -0.0008(14) 0.0012(12)
O6 O2- 0.0141(18) 0.0111(17) 0.0094(16) -0.0008(11) 0.0005(14) 0.0029(11)
O7 O2- 0.0142(19) 0.0112(17) 0.0113(16) -0.0006(12) 0.0019(14) 0.0016(12)
O8 O2- 0.0089(17) 0.020(2) 0.0175(18) 0.0005(12) 0.0069(15) 0.0004(13)
O9 O2- 0.0093(16) 0.0114(16) 0.0092(15) -0.0018(12) 0.0016(12) 0.0017(12)
O10 O2- 0.0136(18) 0.018(2) 0.0159(18) -0.0014(13) 0.0057(15) -0.0015(13)
O11 O2- 0.0140(19) 0.0131(18) 0.0155(17) -0.0012(13) -0.0001(14) 
-0.0013(13)
O12 O2- 0.0163(19) 0.0157(19) 0.0184(18) -0.0013(12) 0.0089(15) 0.0004(12)
#End of data_417617-ICSD


