data_33261-ICSD
#?2014 by Fachinformationszentrum Karlsruhe, and the U.S. Secretary of 
#Commerce on behalf of the United States.  All rights reserved.
_database_code_ICSD                33261
_audit_creation_date               1985/03/07
_audit_update_record               2012/02/01
_chemical_name_systematic          'Potassium Disodium Borate'
_chemical_formula_structural       'K Na2 (B O3)'
_chemical_formula_sum              'B1 K1 Na2 O3'
_publ_section_title
;
Neue Borate der Alkalimetalle: K Na2 (B O3)
;
loop_
_citation_id
_citation_journal_abbrev
_citation_year
_citation_journal_volume
_citation_page_first
_citation_page_last
_citation_journal_id_ASTM
primary 'Zeitschrift fuer Anorganische und Allgemeine Chemie (1950) (DE)'
 1984 518 55 64 ZAACAB
_publ_author_name                  'Hoppe, R.;Miessen, M.'
_cell_length_a                     6.039(2)
_cell_length_b                     5.602(3)
_cell_length_c                     5.568(2)
_cell_angle_alpha                  90.
_cell_angle_beta                   90.
_cell_angle_gamma                  90.
_cell_volume                       188.37
_cell_formula_units_Z              2
_symmetry_space_group_name_H-M     'P m m n Z'
_symmetry_Int_Tables_number        59
_refine_ls_R_factor_all            .0373
loop_
_symmetry_equiv_pos_site_id
_symmetry_equiv_pos_as_xyz
  1	'x+.5, y+.5, -z'
  2	'-x, y+.5, -z'
  3	'x+.5, -y, -z'
  4	'-x, -y, -z'
  5	'-x+.5, -y+.5, z'
  6	'x, -y+.5, z'
  7	'-x+.5, y, z'
  8	'x, y, z'
loop_
_atom_type_symbol
_atom_type_oxidation_number
B3+	3
K1+	1
Na1+	1
O2-	-2
loop_
_atom_site_label
_atom_site_type_symbol
_atom_site_symmetry_multiplicity
_atom_site_Wyckoff_symbol
_atom_site_fract_x
_atom_site_fract_y
_atom_site_fract_z
_atom_site_occupancy
_atom_site_attached_hydrogens
K1 K1+ 2 a 0.75 0.75 0.9177(1) 1. 0 
Na1 Na1+ 4 f 0.4800(2) 0.75 0.3710(2) 1. 0 
B1 B3+ 2 b 0.25 0.75 0.7948(6) 1. 0 
O1 O2- 2 b 0.25 0.75 0.0428(4) 1. 0 
O2 O2- 4 e 0.25 0.9623(3) 0.652(3) 1. 0 

loop_
_atom_site_aniso_label
_atom_site_aniso_type_symbol
_atom_site_aniso_U_11
_atom_site_aniso_U_22
_atom_site_aniso_U_33
_atom_site_aniso_U_12
_atom_site_aniso_U_13
_atom_site_aniso_U_23
K1 K1+ 0.0230(5) 0.0185(4) 0.0167(4) 0 0 0
Na1 Na1+ 0.0143(5) 0.0135(5) 0.0108(4) 0 0.0009(4) 0
B1 B3+ 0.0074(15) 0.0124(15) 0.0092(14) 0 0 0
O1 O2- 0.0244(14) 0.0183(12) 0.0071(10) 0 0 0
O2 O2- 0.0209(10) 0.0088(7) 0.0131(8) 0.0007(6) 0 0
#End of data_33261-ICSD


