data_44528-ICSD
#?2014 by Fachinformationszentrum Karlsruhe, and the U.S. Secretary of 
#Commerce on behalf of the United States.  All rights reserved.
_database_code_ICSD                44528
_audit_creation_date               2000/12/16
_audit_update_record               2006/04/01
_chemical_name_systematic          'Potassium Vanadate'
_chemical_formula_structural       'K (V O3)'
_chemical_formula_sum              'K1 O3 V1'
_publ_section_title
;
Crystal structure of potassium metavanadate
;
loop_
_citation_id
_citation_journal_abbrev
_citation_year
_citation_journal_volume
_citation_page_first
_citation_page_last
_citation_journal_id_ASTM
primary 'Chemicke Zvesti' 1958 12 410 418 CHZVAN
_publ_author_name                  'Petrasova, M.;Madar, J.;Hanic, F.'
_cell_length_a                     5.70(1)
_cell_length_b                     10.83(3)
_cell_length_c                     5.19(1)
_cell_angle_alpha                  90.
_cell_angle_beta                   90.
_cell_angle_gamma                  90.
_cell_volume                       320.38
_cell_formula_units_Z              4
_symmetry_space_group_name_H-M     'P m a b'
_symmetry_Int_Tables_number        57
_refine_ls_R_factor_all            .145
loop_
_symmetry_equiv_pos_site_id
_symmetry_equiv_pos_as_xyz
  1	'x+.5, -y+.5, z'
  2	'x, y+.5, -z'
  3	'-x+.5, y, z'
  4	'-x, -y, -z'
  5	'-x+.5, y+.5, -z'
  6	'-x, -y+.5, z'
  7	'x+.5, -y, -z'
  8	'x, y, z'
loop_
_atom_type_symbol
_atom_type_oxidation_number
K1+	1
O2-	-2
V5+	5
loop_
_atom_site_label
_atom_site_type_symbol
_atom_site_symmetry_multiplicity
_atom_site_Wyckoff_symbol
_atom_site_fract_x
_atom_site_fract_y
_atom_site_fract_z
_atom_site_occupancy
_atom_site_attached_hydrogens
K1 K1+ 4 d 0.25 0.895 0.065 1. 0 
V1 V5+ 4 d 0.25 0.163 0.476 1. 0 
O1 O2- 4 c 0 0.25 0.589 1. 0 
O2 O2- 4 d 0.25 0.151 0.152 1. 0 
O3 O2- 4 d 0.25 0.027 0.626 1. 0 

#End of data_44528-ICSD


