data_420783-ICSD
#?2014 by Fachinformationszentrum Karlsruhe, and the U.S. Secretary of 
#Commerce on behalf of the United States.  All rights reserved.
_database_code_ICSD                420783
_audit_creation_date               2011/02/01
_chemical_name_systematic
;
Mercury Zinc Sulfide Chloride (3/1/2/4)
;
_chemical_formula_structural       'Hg3 Zn S2 Cl4'
_chemical_formula_sum              'Cl4 Hg3 S2 Zn1'
_publ_section_title
;
Solid-state synthesis, crystal structures and properties of two novel 
metal sulfur chlorides - Zn6 S5 Cl2 and Hg3 Zn S2 Cl4
;
loop_
_citation_id
_citation_journal_abbrev
_citation_year
_citation_journal_volume
_citation_journal_issue
_citation_page_first
_citation_page_last
_citation_journal_id_ASTM
primary 'Journal of Solid State Chemistry' 2010 183 10 2411 2415 JSSCBI
_publ_author_name
;
Chen Wen Tong;Kuang Han Mao;Chen Hua Long
;
_cell_length_a                     7.257(4)
_cell_length_b                     7.257(4)
_cell_length_c                     10.848(8)
_cell_angle_alpha                  90.00
_cell_angle_beta                   90.00
_cell_angle_gamma                  120.00
_cell_volume                       494.76
_cell_formula_units_Z              2
_symmetry_space_group_name_H-M     'P 63 m c'
_symmetry_Int_Tables_number        186
_refine_ls_R_factor_all            .054
loop_
_symmetry_equiv_pos_site_id
_symmetry_equiv_pos_as_xyz
  1	'-x, -x+y, z+.5'
  2	'x-y, -y, z+.5'
  3	'y, x, z+.5'
  4	'x-y, x, z+.5'
  5	'y, -x+y, z+.5'
  6	'-x, -y, z+.5'
  7	'x, x-y, z'
  8	'-x+y, y, z'
  9	'-y, -x, z'
 10	'-x+y, -x, z'
 11	'-y, x-y, z'
 12	'x, y, z'
loop_
_atom_type_symbol
_atom_type_oxidation_number
Cl1-	-1
Hg2+	2
S2-	-2
Zn2+	2
loop_
_atom_site_label
_atom_site_type_symbol
_atom_site_symmetry_multiplicity
_atom_site_Wyckoff_symbol
_atom_site_fract_x
_atom_site_fract_y
_atom_site_fract_z
_atom_site_occupancy
_atom_site_attached_hydrogens
_atom_site_U_iso_or_equiv
Hg1 Hg2+ 6 c -0.49721(4) -0.50279(4) 1.0474 1 0 0.06040(16) 
Zn1 Zn2+ 2 a 0.0000 0.0000 0.7658(2) 1 0 0.0222(6) 
S1 S2- 2 b -0.6667 -0.3333 1.1489(6) 1 0 0.053(2) 
S2 S2- 2 a 0.0000 0.0000 0.5483(7) 1 0 0.098(3) 
Cl1 Cl1- 2 b -0.3333 -0.6667 0.9540(6) 1 0 0.0422(17) 
Cl2 Cl1- 6 c -0.3481(5) -0.1741(2) 0.8117(4) 1 0 0.0293(4) 

loop_
_atom_site_aniso_label
_atom_site_aniso_type_symbol
_atom_site_aniso_U_11
_atom_site_aniso_U_22
_atom_site_aniso_U_33
_atom_site_aniso_U_12
_atom_site_aniso_U_13
_atom_site_aniso_U_23
Hg1 Hg2+ 0.04512(9) 0.04512(9) 0.1068(4) 0.03442(11) 0.00347(18) 
-0.00347(18)
Zn1 Zn2+ 0.0146(6) 0.0146(6) 0.0373(14) 0.0073(3) 0.000 0.000
S1 S2- 0.044(3) 0.044(3) 0.070(5) 0.0221(13) 0.000 0.000
S2 S2- 0.139(4) 0.139(4) 0.017(3) 0.069(2) 0.000 0.000
Cl1 Cl1- 0.031(2) 0.031(2) 0.064(4) 0.0157(10) 0.000 0.000
Cl2 Cl1- 0.0260(6) 0.0279(6) 0.0334(6) 0.0130(3) 0.0009(5) 0.0005(3)
#End of data_420783-ICSD


