data_14180-ICSD
#?2014 by Fachinformationszentrum Karlsruhe, and the U.S. Secretary of 
#Commerce on behalf of the United States.  All rights reserved.
_database_code_ICSD                14180
_audit_creation_date               1980/12/31
_audit_update_record               1999/05/18
_chemical_name_systematic          'Sodium Tetraoxocobaltate'
_chemical_formula_structural       'Na5 Co O4'
_chemical_formula_sum              'Co1 Na5 O4'
_publ_section_title
;
Das erste Oxocobaltat(III) mit Inselstruktur: Na5 (Co O4)
;
loop_
_citation_id
_citation_journal_abbrev
_citation_year
_citation_journal_volume
_citation_page_first
_citation_page_last
_citation_journal_id_ASTM
primary Naturwissenschaften 1980 67 192 192 NATWAY
_publ_author_name                  'Burow, W.;Hoppe, R.'
_cell_length_a                     10.36
_cell_length_b                     5.99
_cell_length_c                     18.04999
_cell_angle_alpha                  90.
_cell_angle_beta                   90.
_cell_angle_gamma                  90.
_cell_volume                       1120.12
_cell_formula_units_Z              8
_symmetry_space_group_name_H-M     'P b c a'
_symmetry_Int_Tables_number        61
_refine_ls_R_factor_all            .064
loop_
_symmetry_equiv_pos_site_id
_symmetry_equiv_pos_as_xyz
  1	'x+.5, y, -z+.5'
  2	'x, -y+.5, z+.5'
  3	'-x+.5, y+.5, z'
  4	'-x, -y, -z'
  5	'-x+.5, -y, z+.5'
  6	'-x, y+.5, -z+.5'
  7	'x+.5, -y+.5, -z'
  8	'x, y, z'
loop_
_atom_type_symbol
_atom_type_oxidation_number
Co3+	3
Na1+	1
O2-	-2
loop_
_atom_site_label
_atom_site_type_symbol
_atom_site_symmetry_multiplicity
_atom_site_Wyckoff_symbol
_atom_site_fract_x
_atom_site_fract_y
_atom_site_fract_z
_atom_site_occupancy
_atom_site_attached_hydrogens
Na1 Na1+ 8 c 0.1738(2) 0.1003(4) 0.8272(1) 1. 0 
Na2 Na1+ 8 c 0.0645(2) 0.0830(4) 0.4345(1) 1. 0 
Na3 Na1+ 8 c 0.4209(2) 0.1016(4) 0.7517(1) 1. 0 
Na4 Na1+ 8 c 0.3409(2) 0.0879(4) 0.5013(1) 1. 0 
Na5 Na1+ 8 c 0.3002(2) 0.0796(4) 0.1393(1) 1. 0 
Co1 Co3+ 8 c 0.0399(1) 0.1756(1) 0.1229 1. 0 
O1 O2- 8 c 0.3631(3) 0.2612(6) 0.3749(3) 1. 0 
O2 O2- 8 c 0.1280(4) 0.2642(6) 0.2112(2) 1. 0 
O3 O2- 8 c 0.1336(3) 0.1923(7) 0.5468(2) 1. 0 
O4 O2- 8 c 0.4568(4) 0.1355(5) 0.6208(2) 1. 0 

loop_
_atom_site_aniso_label
_atom_site_aniso_type_symbol
_atom_site_aniso_U_11
_atom_site_aniso_U_22
_atom_site_aniso_U_33
_atom_site_aniso_U_12
_atom_site_aniso_U_13
_atom_site_aniso_U_23
Na1 Na1+ 0.0134(10) 0.0203(11) 0.0189(11) -.0035(9) -.0015(8) 0.0065(9)
Na2 Na1+ 0.0371(14) 0.0131(11) 0.0216(12) 0.0076(10) -.0106(10) -.0046(9)
Na3 Na1+ 0.0240(11) 0.0223(12) 0.0170(11) -.005(1) 0.0043(9) -.007(1)
Na4 Na1+ 0.0214(11) 0.0220(13) 0.0183(11) 0.0036(10) 0.0027(9) 0.0041(10)
Na5 Na1+ 0.0162(10) 0.0141(10) 0.0224(11) 0.0018(8) 0.0021(9) -.0013(9)
Co1 Co3+ 0.0118(2) 0.0102(2) 0.0125(3) -.0009(3) -.0002(3) 0.0004(3)
O1 O2- 0.0129(14) 0.0117(14) 0.0176(16) 0.0025(13) -.0039(17) -.0006(14)
O2 O2- 0.0157(17) 0.0072(16) 0.0107(17) -.0024(13) 0.0005(13) -.0004(12)
O3 O2- 0.0186(17) 0.0111(16) 0.0112(16) 0.0064(15) -.0005(13) 0.0022(15)
O4 O2- 0.0181(15) 0.0074(14) 0.0199(16) 0.0009(13) -.0020(17) 0.0025(14)
#End of data_14180-ICSD


