data_407223-ICSD
#?2014 by Fachinformationszentrum Karlsruhe, and the U.S. Secretary of 
#Commerce on behalf of the United States.  All rights reserved.
_database_code_ICSD                407223
_audit_creation_date               1998/06/26
_chemical_name_systematic          'Potassium Holmium Carbonate'
_chemical_formula_structural       'K Ho (C O3)2'
_chemical_formula_sum              'C2 Ho1 K1 O6'
_publ_section_title
;
Kalium-Lanthanoid-Carbonate, K M (C O3)2 (M= Nd, Gd, Dy, Ho, Yb)
;
loop_
_citation_id
_citation_journal_abbrev
_citation_year
_citation_journal_volume
_citation_page_first
_citation_page_last
_citation_journal_id_ASTM
primary 'Zeitschrift fuer Anorganische und Allgemeine Chemie (1950) (DE)'
 1997 623 1753 1758 ZAACAB
_publ_author_name
;
Kutlu, I.;Kalz, H.J.;Wartchow, R.;Ehrhardt, H.;Seidel, H.;Meyer, G.
;
_cell_length_a                     8.5098(14)
_cell_length_b                     9.4554(14)
_cell_length_c                     6.9231(12)
_cell_angle_alpha                  90.
_cell_angle_beta                   110.9910(14)
_cell_angle_gamma                  90.
_cell_volume                       520.09
_cell_formula_units_Z              4
_symmetry_space_group_name_H-M     'C 1 2/c 1'
_symmetry_Int_Tables_number        15
_refine_ls_R_factor_all            .0154
loop_
_symmetry_equiv_pos_site_id
_symmetry_equiv_pos_as_xyz
  1	'x, -y, z+.5'
  2	'-x, -y, -z'
  3	'-x, y, -z+.5'
  4	'x, y, z'
  5	'x+.5, -y+.5, z+.5'
  6	'-x+.5, -y+.5, -z'
  7	'-x+.5, y+.5, -z+.5'
  8	'x+.5, y+.5, z'
loop_
_atom_type_symbol
_atom_type_oxidation_number
C4+	4
Ho3+	3
K1+	1
O2-	-2
loop_
_atom_site_label
_atom_site_type_symbol
_atom_site_symmetry_multiplicity
_atom_site_Wyckoff_symbol
_atom_site_fract_x
_atom_site_fract_y
_atom_site_fract_z
_atom_site_occupancy
_atom_site_attached_hydrogens
K1 K1+ 4 e 0.5 0.61948(14) 0.25 1. 0 
Ho1 Ho3+ 4 e 0 0.59689(2) 0.25 1. 0 
C1 C4+ 8 f 0.2326(5) 0.3782(5) 0.2551(6) 1. 0 
O1 O2- 8 f 0.2657(3) 0.4813(3) 0.3812(4) 1. 0 
O2 O2- 8 f 0.0844(4) 0.3805(3) 0.1049(5) 1. 0 
O3 O2- 8 f 0.3293(4) 0.2740(3) 0.2757(5) 1. 0 

loop_
_atom_site_aniso_label
_atom_site_aniso_type_symbol
_atom_site_aniso_U_11
_atom_site_aniso_U_22
_atom_site_aniso_U_33
_atom_site_aniso_U_12
_atom_site_aniso_U_13
_atom_site_aniso_U_23
K1 K1+ 0.0120(6) 0.0131(6) 0.0215(7) 0 0.0046(5) 0
Ho1 Ho3+ 0.00504(14) 0.00363(14) 0.0064(2) 0 0.00107(9) 0
C1 C4+ 0.008(2) 0.007(2) 0.010(2) 0.0019(12) 0.0044(15) 0.0009(12)
O1 O2- 0.0105(12) 0.0124(15) 0.0163(14) 0.0018(10) 0.0015(10) -.0045(10)
O2 O2- 0.0089(13) 0.0138(14) 0.0076(14) 0.001(1) 0.000(1) 0.0005(10)
O3 O2- 0.0218(15) 0.018(2) 0.028(2) 0.0129(13) 0.0019(12) -.0043(13)
#End of data_407223-ICSD


