data_72362-ICSD
#?2014 by Fachinformationszentrum Karlsruhe, and the U.S. Secretary of 
#Commerce on behalf of the United States.  All rights reserved.
_database_code_ICSD                72362
_audit_creation_date               1994/01/19
_audit_update_record               2013/08/01
_chemical_name_systematic
;
Potassium Molybdenum(V) Diphosphate
;
_chemical_formula_structural       'K Mo (P2 O8)'
_chemical_formula_sum              'K1 Mo1 O8 P2'
_publ_section_title
;
Crystal structure of the molybdenum(V) diphosphate KMoP2O8 isotypic 
with KNbP2O8
;
loop_
_citation_id
_citation_journal_abbrev
_citation_year
_citation_journal_volume
_citation_page_first
_citation_page_last
_citation_journal_id_ASTM
primary 'Zeitschrift fuer Anorganische und Allgemeine Chemie (1950) (DE)'
 1992 615 104 108 ZAACAB
_publ_author_name
;
Gueho, C.;Borel, M.M.;Grandin, A.;Leclaire, A.;Raveau, B.
;
_cell_length_a                     5.0862(4)
_cell_length_b                     11.720(1)
_cell_length_c                     11.486(1)
_cell_angle_alpha                  90.
_cell_angle_beta                   90.91(1)
_cell_angle_gamma                  90.
_cell_volume                       684.6
_cell_formula_units_Z              4
_symmetry_space_group_name_H-M     'P 1 21/n 1'
_symmetry_Int_Tables_number        14
_refine_ls_R_factor_all            .039
loop_
_symmetry_equiv_pos_site_id
_symmetry_equiv_pos_as_xyz
  1	'-x+.5, y+.5, -z+.5'
  2	'-x, -y, -z'
  3	'x+.5, -y+.5, z+.5'
  4	'x, y, z'
loop_
_atom_type_symbol
_atom_type_oxidation_number
K1+	1
Mo5+	5
O2-	-2
P5+	5
loop_
_atom_site_label
_atom_site_type_symbol
_atom_site_symmetry_multiplicity
_atom_site_Wyckoff_symbol
_atom_site_fract_x
_atom_site_fract_y
_atom_site_fract_z
_atom_site_occupancy
_atom_site_attached_hydrogens
_atom_site_B_iso_or_equiv
Mo1 Mo5+ 4 e 0.2618(1) 0.11949(6) 0.16603(5) 1. 0 0.491(6) 
K1 K1+ 4 e 0.2761(4) 0.3674(2) 0.9471(2) 1. 0 1.73(3) 
P1 P5+ 4 e 0.2666(4) 0.1940(2) 0.6473(2) 1. 0 0.62(3) 
P2 P5+ 4 e 0.2515(4) 0.0631(2) 0.8637(2) 1. 0 0.55(3) 
O1 O2- 4 e 0.184(1) 0.1045(6) -.0173(5) 1. 0 1.1(1) 
O2 O2- 4 e -.067(1) 0.0273(5) 0.1862(5) 1. 0 0.92(9) 
O3 O2- 4 e 0.049(1) 0.2626(6) 0.1406(6) 1. 0 1.3(1) 
O4 O2- 4 e 0.216(1) 0.1745(5) 0.7839(5) 1. 0 0.83(9) 
O5 O2- 4 e 0.463(1) -.0273(5) 0.1484(6) 1. 0 1.3(1) 
O6 O2- 4 e 0.231(1) 0.0869(5) 0.5799(6) 1. 0 1.4(1) 
O7 O2- 4 e 0.317(1) 0.1358(7) 0.3092(5) 1. 0 1.8(1) 
O8 O2- 4 e 0.572(1) 0.2122(6) 0.1137(6) 1. 0 1.1(1) 

#End of data_72362-ICSD


