data_29515-ICSD
#?2014 by Fachinformationszentrum Karlsruhe, and the U.S. Secretary of 
#Commerce on behalf of the United States.  All rights reserved.
_database_code_ICSD                29515
_audit_creation_date               1988/05/18
_audit_update_record               2012/02/01
_chemical_name_systematic
;
Potassium Pentafluorozirconate Hydrate
;
_chemical_formula_structural       'K (Zr F5) (H2 O)'
_chemical_formula_sum              'H2 F5 K1 O1 Zr1'
_publ_section_title
;
Crystal structure of potassium pentafluorozirconate monohydrate, K Zr 
F5 (H2 O)
;
loop_
_citation_id
_citation_journal_abbrev
_citation_year
_citation_journal_volume
_citation_page_first
_citation_page_last
_citation_journal_id_ASTM
primary 'Zeitschrift fuer Kristallographie (1979-2010)' 1986 175 177 185 ZEKRDZ
_publ_author_name                  'Neumann, C.;Saalfeld, H.'
_cell_length_a                     7.628(1)
_cell_length_b                     12.081(1)
_cell_length_c                     11.100(1)
_cell_angle_alpha                  90.
_cell_angle_beta                   99.62(2)
_cell_angle_gamma                  90.
_cell_volume                       1008.52
_cell_formula_units_Z              8
_symmetry_space_group_name_H-M     'P 1 21/c 1'
_symmetry_Int_Tables_number        14
_refine_ls_R_factor_all            .0236
loop_
_symmetry_equiv_pos_site_id
_symmetry_equiv_pos_as_xyz
  1	'x, -y+.5, z+.5'
  2	'-x, -y, -z'
  3	'-x, y+.5, -z+.5'
  4	'x, y, z'
loop_
_atom_type_symbol
_atom_type_oxidation_number
F1-	-1
H1+	1
K1+	1
O2-	-2
Zr4+	4
loop_
_atom_site_label
_atom_site_type_symbol
_atom_site_symmetry_multiplicity
_atom_site_Wyckoff_symbol
_atom_site_fract_x
_atom_site_fract_y
_atom_site_fract_z
_atom_site_occupancy
_atom_site_attached_hydrogens
_atom_site_B_iso_or_equiv
Zr1 Zr4+ 4 e 0.97715(5) 0.26426(3) 0.12399(3) 1. 0 1.30(1) 
Zr2 Zr4+ 4 e 0.52846(5) 0.25585(3) 0.10764(3) 1. 0 1.30(1) 
K1 K1+ 4 e 0.2946(1) 0.5258(1) 0.1203(1) 1. 0 2.20(2) 
K2 K1+ 4 e 0.7959(1) 0.4606(1) 0.3542(1) 1. 0 2.06(2) 
F1 F1- 4 e 0.4744(3) 0.1213(2) 0.1996(2) 1. 0 2.32(7) 
F2 F1- 4 e 0.2522(3) 0.2750(2) 0.1142(2) 1. 0 2.05(6) 
F3 F1- 4 e 0.2081(3) 0.7024(2) 0.2736(2) 1. 0 2.05(6) 
F4 F1- 4 e 0.5118(3) 0.3550(2) 0.2504(2) 1. 0 2.12(6) 
F5 F1- 4 e 0.7153(3) 0.2022(2) 0.0039(2) 1. 0 2.08(6) 
F6 F1- 4 e 0.0122(3) 0.6393(2) 0.0223(2) 1. 0 2.27(7) 
F7 F1- 4 e 0.0643(3) 0.3820(2) 0.2457(2) 1. 0 2.40(7) 
F8 F1- 4 e 0.0297(3) 0.1274(2) 0.0317(2) 1. 0 2.04(6) 
F9 F1- 4 e 0.2494(3) 0.8746(2) 0.3841(2) 1. 0 1.81(6) 
F10 F1- 4 e 0.4438(3) 0.3685(2) -.0215(2) 1. 0 2.22(6) 
O1 O2- 4 e 0.1279(4) 0.1566(3) 0.2786(3) 1. 0 2.15(8) 
O2 O2- 4 e 0.3789(4) 0.1432(3) -.0420(3) 1. 0 2.31(9) 
H1 H1+ 4 e 0.217(9) 0.157(6) 0.307(6) 1. 0 3.95(9) 
H2 H1+ 4 e 0.071(9) 0.140(5) 0.325(6) 1. 0 3.95(9) 
H3 H1+ 4 e 0.282(9) 0.146(5) -.055(6) 1. 0 3.95(9) 
H4 H1+ 4 e 0.407(8) 0.136(5) -.107(6) 1. 0 3.95(9) 

#End of data_29515-ICSD


