data_9645-ICSD
#?2014 by Fachinformationszentrum Karlsruhe, and the U.S. Secretary of 
#Commerce on behalf of the United States.  All rights reserved.
_database_code_ICSD                9645
_audit_creation_date               1980/01/01
_audit_update_record               2012/08/01
_chemical_name_systematic          'Sodium Niobate - N, Lt'
_chemical_formula_structural       'Na (Nb O3)'
_chemical_formula_sum              'Na1 Nb1 O3'
_chemical_name_mineral             'Lueshite low'
_publ_section_title
;
Verfeinerung der Kristallstruktur von Na Nb O3 N. Bestimmung der 
absoluten Konfiguration und des Zwillingsgesetzes
;
loop_
_citation_id
_citation_journal_abbrev
_citation_year
_citation_journal_volume
_citation_page_first
_citation_page_last
_citation_journal_id_ASTM
primary
;
Zeitschrift fuer Kristallographie, Kristallgeometrie, Kristallphysik, 
Kristallchemie (-144,1977)
;
 1976 143 444 459 ZEKGAX
2 'Golden Book of Phase Transitions, Wroclaw' 2002 1 1 123 GBOPT5
_publ_author_name                  'Seidel, P.;Hoffmann, W.'
_cell_length_a                     7.8147(4)
_cell_length_b                     7.8147(4)
_cell_length_c                     7.8147(4)
_cell_angle_alpha                  89.17(1)
_cell_angle_beta                   89.17(1)
_cell_angle_gamma                  89.17(1)
_cell_volume                       477.09
_cell_formula_units_Z              8
_symmetry_space_group_name_H-M     'R 3 c R'
_symmetry_Int_Tables_number        161
_refine_ls_R_factor_all            .0576
loop_
_symmetry_equiv_pos_site_id
_symmetry_equiv_pos_as_xyz
  1	'z+.5, y+.5, x+.5'
  2	'z, x, y'
  3	'x+.5, z+.5, y+.5'
  4	'y, z, x'
  5	'y+.5, x+.5, z+.5'
  6	'x, y, z'
loop_
_atom_type_symbol
_atom_type_oxidation_number
Na1+	1
Nb5+	5
O2-	-2
loop_
_atom_site_label
_atom_site_type_symbol
_atom_site_symmetry_multiplicity
_atom_site_Wyckoff_symbol
_atom_site_fract_x
_atom_site_fract_y
_atom_site_fract_z
_atom_site_occupancy
_atom_site_attached_hydrogens
Na1 Na1+ 2 a 0 0 0 1. 0 
Na2 Na1+ 6 b 0.5 0.5 0 1. 0 
Nb1 Nb5+ 2 a 0.258(1) 0.258(1) 0.258(1) 1. 0 
Nb2 Nb5+ 6 b 0.758(1) 0.758(1) 0.258(1) 1. 0 
O1 O2- 6 b 0.243(2) 0.525(2) 0.309(2) 1. 0 
O2 O2- 6 b 0.243(2) 0.025(2) 0.809(2) 1. 0 
O3 O2- 6 b 0.743(2) 0.525(2) 0.809(2) 1. 0 
O4 O2- 6 b 0.743(2) 0.025(2) 0.309(2) 1. 0 

#End of data_9645-ICSD


