data_260227-ICSD
#?2014 by Fachinformationszentrum Karlsruhe, and the U.S. Secretary of 
#Commerce on behalf of the United States.  All rights reserved.
_database_code_ICSD                260227
_audit_creation_date               2009/08/01
_chemical_name_systematic
;
Calcium(II) Tellurium(IV) Oxide - Beta
;
_chemical_formula_structural       'Ca (Te O3)'
_chemical_formula_sum              'Ca1 O3 Te1'
_publ_section_title
;
Polymorphism of Ca Te O3 and solid solutions Ca(x) Sr(1-x) Te O3
;
loop_
_citation_id
_citation_journal_abbrev
_citation_year
_citation_journal_volume
_citation_journal_issue
_citation_page_first
_citation_page_last
_citation_journal_id_ASTM
primary 'Acta Crystallographica, Section B: Structural Science'
 2009 65 2 167 181 ASBSDK
_publ_author_name
;
Stoeger, B.;Weil, M.;Zobetz, E.;Giester, G.
;
_cell_length_a                     25.6201(4)
_cell_length_b                     10.2408(2)
_cell_length_c                     11.3279(2)
_cell_angle_alpha                  107.2180(10)
_cell_angle_beta                   110.245(2)
_cell_angle_gamma                  33.0160(10)
_cell_volume                       1519.28
_cell_formula_units_Z              18
_symmetry_space_group_name_H-M     'P 1'
_symmetry_Int_Tables_number        1
_refine_ls_R_factor_all            .0525
loop_
_symmetry_equiv_pos_site_id
_symmetry_equiv_pos_as_xyz
  1	'x, y, z'
loop_
_atom_type_symbol
_atom_type_oxidation_number
Ca2+	2
O2-	-2
Te4+	4
loop_
_atom_site_label
_atom_site_type_symbol
_atom_site_symmetry_multiplicity
_atom_site_Wyckoff_symbol
_atom_site_fract_x
_atom_site_fract_y
_atom_site_fract_z
_atom_site_occupancy
_atom_site_attached_hydrogens
_atom_site_U_iso_or_equiv
Te1 Te4+ 1 a 0.19456(6) 0.22060(13) -0.26545(8) 1 0 0.01377(16) 
Te2 Te4+ 1 a 0.52108(6) 0.26272(15) -0.24839(8) 1 0 0.01821(17) 
Te3 Te4+ 1 a -0.14100(5) 0.24898(13) 0.73516(7) 1 0 0.00966(15) 
Te4 Te4+ 1 a 0.14412(5) -0.25928(12) 0.26327(7) 1 0 0.00950(15) 
Te5 Te4+ 1 a 0.47043(6) -0.22541(15) 0.25933(8) 1 0 0.01787(17) 
Te6 Te4+ 1 a -0.19992(6) -0.21440(13) 0.25637(8) 1 0 0.01333(15) 
Te7 Te4+ 1 a 0.02402(6) -0.26797(14) 0.47512(7) 1 0 0.01490(16) 
Te8 Te4+ 1 a 0.35186(6) -0.23200(16) 0.45933(8) 1 0 0.01757(18) 
Te9 Te4+ 1 a -0.32036(6) 0.75628(14) 0.44475(8) 1 0 0.01504(17) 
Te10 Te4+ 1 a 0.32617(6) 0.23612(13) -0.43965(8) 1 0 0.01532(17) 
Te11 Te4+ 1 a -0.36180(6) 0.26271(16) 0.53810(9) 1 0 0.01765(18) 
Te12 Te4+ 1 a -0.02787(6) 0.26934(14) 0.52031(7) 1 0 0.01552(17) 
Te13 Te4+ 1 a 0.16691(6) 0.26742(14) 0.16499(7) 1 0 0.01255(15) 
Te14 Te4+ 1 a 0.47748(6) -0.69622(12) 0.15611(7) 1 0 0.01294(15) 
Te15 Te4+ 1 a -0.13385(6) 0.20567(13) 0.17986(7) 1 0 0.01126(15) 
Te16 Te4+ 1 a 0.13830(6) -0.22286(13) 0.82285(7) 1 0 0.01270(16) 
Te17 Te4+ 1 a -0.47281(6) 0.69647(12) 0.84944(7) 1 0 0.01172(14) 
Te18 Te4+ 1 a -0.16613(6) -0.27778(13) -0.17126(7) 1 0 0.01266(15) 
Ca1 Ca2+ 1 a -0.07336(18) -0.2885(4) 0.1300(2) 1 0 0.0124(5) 
Ca2 Ca2+ 1 a 0.24215(19) -0.2105(4) 0.1174(3) 1 0 0.0152(5) 
Ca3 Ca2+ 1 a 0.59507(18) -0.2513(4) 0.1450(2) 1 0 0.0147(5) 
Ca4 Ca2+ 1 a 0.4081(2) 0.2551(5) -0.1362(3) 1 0 0.0136(5) 
Ca5 Ca2+ 1 a -0.23999(18) 0.1991(4) 0.8786(2) 1 0 0.0145(5) 
Ca6 Ca2+ 1 a 0.07423(18) 0.2806(4) 0.8653(2) 1 0 0.0126(5) 
Ca7 Ca2+ 1 a -0.07958(19) -0.2404(4) 0.6272(2) 1 0 0.0139(5) 
Ca8 Ca2+ 1 a 0.25671(19) -0.2699(4) 0.5791(2) 1 0 0.0148(5) 
Ca9 Ca2+ 1 a -0.4266(2) 0.7818(4) 0.6345(2) 1 0 0.0175(5) 
Ca10 Ca2+ 1 a -0.56882(19) 1.2301(4) 0.3748(2) 1 0 0.0190(5) 
Ca11 Ca2+ 1 a -0.2625(2) 0.2765(4) 0.4184(2) 1 0 0.0161(5) 
Ca12 Ca2+ 1 a 0.07507(18) 0.2413(4) 0.3640(2) 1 0 0.0128(5) 
Ca13 Ca2+ 1 a 0.02235(19) -0.2353(4) -0.0383(2) 1 0 0.0138(5) 
Ca14 Ca2+ 1 a 0.35047(18) -0.2362(4) -0.0660(2) 1 0 0.0119(5) 
Ca15 Ca2+ 1 a 0.67986(18) -0.2461(4) -0.0405(2) 1 0 0.0130(4) 
Ca16 Ca2+ 1 a 0.32641(18) 0.2203(5) 0.0431(3) 1 0 0.0170(5) 
Ca17 Ca2+ 1 a -0.34874(19) 0.2372(4) 0.0646(2) 1 0 0.0120(5) 
Ca18 Ca2+ 1 a -0.02092(19) 0.2265(4) 0.0361(3) 1 0 0.0145(5) 
O1 O2- 1 a 0.2018(6) 0.0261(14) -0.2568(8) 1 0 0.0190(18) 
O2 O2- 1 a 0.5562(5) -1.9667(12) -0.2035(7) 1 0 0.0179(14) 
O3 O2- 1 a -0.1263(6) 0.0637(13) 0.7925(7) 1 0 0.0116(15) 
O4 O2- 1 a 0.1249(6) -0.0644(13) 0.2037(8) 1 0 0.0143(16) 
O5 O2- 1 a 0.4646(5) -0.0405(12) 0.2323(7) 1 0 0.0183(14) 
O6 O2- 1 a -0.2053(6) -0.0215(13) 0.2513(7) 1 0 0.0120(15) 
O7 O2- 1 a 0.0737(7) -0.5034(15) -0.2133(8) 1 0 0.0222(19) 
O8 O2- 1 a 0.3878(6) -0.4868(14) -0.2564(8) 1 0 0.0281(18) 
O9 O2- 1 a -0.1768(5) 0.4464(12) 0.8794(7) 1 0 0.0123(14) 
O10 O2- 1 a 0.1834(6) -0.4664(14) 0.1253(8) 1 0 0.0190(17) 
O11 O2- 1 a 0.5967(6) -0.5222(14) 0.2477(8) 1 0 0.0288(18) 
O12 O2- 1 a -0.0781(6) -0.4937(13) 0.2095(7) 1 0 0.0134(15) 
O13 O2- 1 a 0.2797(6) -0.8831(15) -0.1159(8) 1 0 0.0262(19) 
O14 O2- 1 a 0.5298(5) -0.6246(12) -0.0888(6) 1 0 0.0216(14) 
O15 O2- 1 a -0.2605(6) 0.4507(14) 0.6280(8) 1 0 0.0184(17) 
O16 O2- 1 a 0.2644(6) -0.4513(14) 0.3713(7) 1 0 0.0163(16) 
O17 O2- 1 a 0.4028(6) -0.1568(16) 0.0995(8) 1 0 0.041(2) 
O18 O2- 1 a -0.2832(6) -0.1072(13) 0.1012(7) 1 0 0.0156(15) 
O19 O2- 1 a -0.0026(6) -0.2494(14) 0.3040(8) 1 0 0.0197(17) 
O20 O2- 1 a 0.3335(7) -0.2261(15) 0.2861(8) 1 0 0.0256(19) 
O21 O2- 1 a -0.4058(5) 0.9719(13) 0.3142(7) 1 0 0.0181(15) 
O22 O2- 1 a 0.4176(6) 0.0296(13) -0.3021(7) 1 0 0.0204(16) 
O23 O2- 1 a -0.3377(7) 0.2460(15) 0.7108(8) 1 0 0.0240(18) 
O24 O2- 1 a -0.0050(7) 0.2671(15) 0.6925(9) 1 0 0.026(2) 
O25 O2- 1 a 0.0502(6) -0.4938(15) 0.4971(8) 1 0 0.0230(18) 
O26 O2- 1 a 0.4186(6) -0.5146(15) 0.4880(8) 1 0 0.0300(19) 
O27 O2- 1 a -0.2916(6) 0.5258(13) 0.3448(7) 1 0 0.0207(16) 
O28 O2- 1 a 0.2727(6) -0.4997(14) -0.3504(7) 1 0 0.0228(17) 
O29 O2- 1 a -0.4120(6) 0.5303(14) 0.5144(7) 1 0 0.0230(16) 
O30 O2- 1 a -0.0600(6) 0.5007(15) 0.4940(8) 1 0 0.0258(19) 
O31 O2- 1 a -0.0986(6) -0.0184(14) 0.5172(8) 1 0 0.0195(17) 
O32 O2- 1 a 0.2337(6) -0.0416(15) 0.4826(8) 1 0 0.0203(18) 
O33 O2- 1 a -0.4159(5) 0.9180(12) 0.5207(6) 1 0 0.0170(13) 
O34 O2- 1 a 0.4203(6) 0.1142(14) -0.4997(7) 1 0 0.0259(17) 
O35 O2- 1 a -0.2388(6) 0.0460(15) 0.5140(8) 1 0 0.0211(18) 
O36 O2- 1 a 0.0938(6) 0.0204(14) 0.4774(8) 1 0 0.0187(17) 
O37 O2- 1 a 0.0584(6) -0.4847(14) 0.0490(8) 1 0 0.0168(17) 
O38 O2- 1 a 0.3822(6) -0.4807(13) 0.0176(7) 1 0 0.0142(16) 
O39 O2- 1 a -0.2516(6) 0.4984(14) 0.1032(7) 1 0 0.0196(16) 
O40 O2- 1 a 0.2576(6) -0.4998(14) 0.9160(7) 1 0 0.0194(16) 
O41 O2- 1 a -0.3792(5) 0.4841(13) -0.0148(7) 1 0 0.0123(15) 
O42 O2- 1 a -0.0578(6) -0.5188(13) -0.0538(7) 1 0 0.0108(15) 
O43 O2- 1 a 0.2219(6) 0.0337(14) 0.0376(7) 1 0 0.0171(16) 
O44 O2- 1 a 0.5437(6) 0.0369(13) 0.0505(7) 1 0 0.0110(15) 
O45 O2- 1 a -0.1349(6) 0.0338(15) 0.0720(8) 1 0 0.0205(18) 
O46 O2- 1 a 0.1290(7) -0.0268(15) -0.0748(8) 1 0 0.0224(19) 
O47 O2- 1 a -0.5412(6) 0.9637(14) -0.0464(8) 1 0 0.0172(17) 
O48 O2- 1 a -0.2259(6) -0.0390(14) -0.0511(8) 1 0 0.0194(17) 
O49 O2- 1 a 0.1051(6) -0.7429(14) 0.2028(8) 1 0 0.0191(17) 
O50 O2- 1 a 0.3919(5) -1.6403(12) 0.1836(7) 1 0 0.0152(15) 
O51 O2- 1 a -0.0445(6) 0.0913(13) 0.1070(7) 1 0 0.0151(16) 
O52 O2- 1 a 0.0487(6) -0.1061(14) 0.8937(8) 1 0 0.0166(16) 
O53 O2- 1 a -0.3838(5) 0.6375(13) 0.8269(7) 1 0 0.0162(15) 
O54 O2- 1 a -0.1086(6) -0.2540(14) -0.2066(7) 1 0 0.0178(17) 

loop_
_atom_site_aniso_label
_atom_site_aniso_type_symbol
_atom_site_aniso_U_11
_atom_site_aniso_U_22
_atom_site_aniso_U_33
_atom_site_aniso_U_12
_atom_site_aniso_U_13
_atom_site_aniso_U_23
Te1 Te4+ 0.0138(3) 0.0104(3) 0.0166(4) -0.0094(3) 0.0073(3) -0.0026(3)
Te2 Te4+ 0.0164(3) 0.0252(4) 0.0167(4) -0.0172(3) -0.0015(3) 0.0082(3)
Te3 Te4+ 0.0084(3) 0.0089(3) 0.0099(3) -0.0068(3) 0.0017(3) 0.0002(2)
Te4 Te4+ 0.0091(3) 0.0093(3) 0.0093(3) -0.0074(3) 0.0016(3) 0.0004(3)
Te5 Te4+ 0.0184(3) 0.0288(4) 0.0123(3) -0.0204(3) -0.0048(3) 0.0095(3)
Te6 Te4+ 0.0131(3) 0.0117(3) 0.0157(4) -0.0098(3) 0.0051(3) -0.0004(3)
Te7 Te4+ 0.0150(4) 0.0159(4) 0.0118(4) -0.0124(3) 0.0035(3) -0.0013(3)
Te8 Te4+ 0.0206(4) 0.0250(4) 0.0129(4) -0.0201(4) 0.0035(3) -0.0021(3)
Te9 Te4+ 0.0132(4) 0.0160(4) 0.0133(4) -0.0118(3) 0.0009(3) 0.0009(3)
Te10 Te4+ 0.0143(4) 0.0148(4) 0.0130(4) -0.0113(4) 0.0010(3) 0.0017(3)
Te11 Te4+ 0.0215(4) 0.0276(4) 0.0121(3) -0.0222(4) 0.0037(3) -0.0030(3)
Te12 Te4+ 0.0156(4) 0.0167(4) 0.0123(4) -0.0133(4) 0.0026(3) -0.0014(3)
Te13 Te4+ 0.0119(3) 0.0135(3) 0.0115(4) -0.0102(3) 0.0005(3) 0.0027(3)
Te14 Te4+ 0.0113(3) 0.0095(3) 0.0112(3) -0.0071(3) 0.0028(3) 0.0004(2)
Te15 Te4+ 0.0101(3) 0.0112(3) 0.0104(3) -0.0084(3) 0.0020(3) -0.0001(2)
Te16 Te4+ 0.0099(3) 0.0139(3) 0.0105(4) -0.0092(3) 0.0016(3) 0.0001(3)
Te17 Te4+ 0.0110(3) 0.0097(3) 0.0114(3) -0.0079(3) 0.0031(2) -0.0003(2)
Te18 Te4+ 0.0129(3) 0.0125(3) 0.0118(4) -0.0103(3) 0.0011(3) 0.0018(3)
Ca1 Ca2+ 0.0112(11) 0.0082(10) 0.0139(11) -0.0069(10) 0.0046(9) -0.0004(8)
Ca2 Ca2+ 0.0099(11) 0.0122(10) 0.0192(13) -0.0079(10) 0.0006(9) 0.0047(9)
Ca3 Ca2+ 0.0108(10) 0.0126(10) 0.0109(10) -0.0076(9) 0.0019(8) 0.0018(8)
Ca4 Ca2+ 0.0121(10) 0.0128(10) 0.0135(11) -0.0096(10) 0.0059(8) -0.0027(8)
Ca5 Ca2+ 0.0110(11) 0.0164(11) 0.0144(12) -0.0101(10) 0.0018(9) 0.0049(9)
Ca6 Ca2+ 0.0132(11) 0.0150(11) 0.0117(11) -0.0121(10) 0.0020(9) -0.0004(9)
Ca7 Ca2+ 0.0154(11) 0.0130(10) 0.0115(11) -0.0109(10) 0.0066(8) -0.0025(8)
Ca8 Ca2+ 0.0141(11) 0.0086(10) 0.0141(11) -0.0080(9) 0.0005(9) 0.0024(8)
Ca9 Ca2+ 0.0126(10) 0.0113(9) 0.0130(11) -0.0060(9) 0.0039(8) 0.0040(8)
Ca10 Ca2+ 0.0116(10) 0.0107(9) 0.0162(12) -0.0044(9) 0.0060(9) 0.0038(8)
Ca11 Ca2+ 0.0215(12) 0.0158(11) 0.0119(11) -0.0152(11) 0.0050(9) -0.0008(8)
Ca12 Ca2+ 0.0130(11) 0.0091(10) 0.0119(10) -0.0081(10) 0.0019(8) 0.0016(8)
Ca13 Ca2+ 0.0179(12) 0.0117(10) 0.0109(11) -0.0123(10) 0.0025(9) -0.0010(8)
Ca14 Ca2+ 0.0121(11) 0.0121(10) 0.0118(12) -0.0102(10) 0.0004(8) 0.0013(8)
Ca15 Ca2+ 0.0099(10) 0.0149(10) 0.0106(11) -0.0096(9) 0.0008(8) 0.0013(8)
Ca16 Ca2+ 0.0113(11) 0.0184(11) 0.0131(11) -0.0106(10) 0.0038(9) -0.0009(9)
Ca17 Ca2+ 0.0141(11) 0.0132(10) 0.0102(12) -0.0114(10) 0.0029(8) -0.0003(8)
Ca18 Ca2+ 0.0157(12) 0.0139(11) 0.0153(12) -0.0120(10) 0.0024(9) 0.0032(9)
#End of data_260227-ICSD


