data_162974-ICSD
#?2014 by Fachinformationszentrum Karlsruhe, and the U.S. Secretary of 
#Commerce on behalf of the United States.  All rights reserved.
_database_code_ICSD                162974
_audit_creation_date               2009/08/01
_chemical_name_systematic          'Magnesium Bis(tetrahydridoborate)'
_chemical_formula_structural       'Mg (B H4)2'
_chemical_formula_sum              'H8 B2 Mg1'
_publ_section_title
;
Insight into Mg (B H4)2 with synchrotron X-ray diffraction: structure 
revision, crystal chemistry and anomalous thermal expansion
;
loop_
_citation_id
_citation_journal_abbrev
_citation_year
_citation_journal_volume
_citation_page_first
_citation_page_last
_citation_journal_id_ASTM
primary 'Chemistry of Materials' 2009 21 925 933 CMATEX
_publ_author_name
;
Filinchuk, Ya.;Cerny, R.;Hagemann, H.
;
_cell_length_a                     10.3540(12)
_cell_length_b                     10.3540(12)
_cell_length_c                     37.055(4)
_cell_angle_alpha                  90.00
_cell_angle_beta                   90.00
_cell_angle_gamma                  120.00
_cell_volume                       3440.28
_cell_formula_units_Z              30
_symmetry_space_group_name_H-M     'P 61 2 2'
_symmetry_Int_Tables_number        178
_refine_ls_R_factor_all            .0408
loop_
_symmetry_equiv_pos_site_id
_symmetry_equiv_pos_as_xyz
  1	'x, x-y, -z+.1667'
  2	'-x+y, y, -z+.5'
  3	'-y, -x, -z+.8333'
  4	'-x, -x+y, -z+.6667'
  5	'x-y, -y, -z'
  6	'y, x, -z+.3333'
  7	'x-y, x, z+.1667'
  8	'y, -x+y, z+.8333'
  9	'-x, -y, z+.5'
 10	'-x+y, -x, z+.6667'
 11	'-y, x-y, z+.3333'
 12	'x, y, z'
loop_
_atom_type_symbol
_atom_type_oxidation_number
B3+	3
H1-	-1
Mg2+	2
loop_
_atom_site_label
_atom_site_type_symbol
_atom_site_symmetry_multiplicity
_atom_site_Wyckoff_symbol
_atom_site_fract_x
_atom_site_fract_y
_atom_site_fract_z
_atom_site_occupancy
_atom_site_attached_hydrogens
_atom_site_U_iso_or_equiv
Mg1 Mg2+ 12 c 0.05477(13) 0.39068(12) 0.13510(3) 1 0 0.0212(3) 
Mg2 Mg2+ 12 c 0.52711(12) 0.49135(12) 0.08722(3) 1 0 0.0221(3) 
Mg3 Mg2+ 6 a -0.12571(15) -0.12571(15) 0.1667 1 0 0.0210(4) 
B1 B3+ 6 b 0.5897(7) 0.2948(4) 0.0833 1 0 0.0304(14) 
H1 H1- 12 c 0.522(5) 0.303(5) 0.1053(11) 1 0 0.070(14) 
H2 H1- 12 c 0.664(4) 0.409(4) 0.0689(9) 1 0 0.041(11) 
B2 B3+ 6 b 0.0176(7) 0.5088(3) 0.0833 1 0 0.0286(14) 
H3 H1- 12 c 0.095(4) 0.573(4) 0.1081(9) 1 0 0.036(10) 
H4 H1- 12 c -0.053(4) 0.386(5) 0.0907(10) 1 0 0.057(12) 
B3 B3+ 12 c 0.3064(5) 0.4556(5) 0.11733(11) 1 0 0.0308(10) 
H5 H1- 12 c 0.280(4) 0.494(4) 0.1436(8) 1 0 0.030(9) 
H6 H1- 12 c 0.195(4) 0.372(4) 0.1018(9) 1 0 0.033(9) 
H7 H1- 12 c 0.366(4) 0.393(4) 0.1223(9) 1 0 0.034(10) 
H8 H1- 12 c 0.380(4) 0.557(4) 0.0990(9) 1 0 0.043(11) 
B4 B3+ 12 c -0.2785(5) -0.2992(5) 0.11965(10) 1 0 0.0261(9) 
H9 H1- 12 c -0.308(4) -0.223(4) 0.1335(9) 1 0 0.037(10) 
H10 H1- 12 c -0.151(4) -0.265(4) 0.1243(9) 1 0 0.038(10) 
H11 H1- 12 c -0.342(3) -0.418(3) 0.1322(7) 1 0 0.009(7) 
H12 H1- 12 c -0.312(4) -0.297(4) 0.0900(9) 1 0 0.035(10) 
B5 B3+ 12 c -0.0556(5) 0.1261(4) 0.14791(10) 1 0 0.0246(9) 
H13 H1- 12 c -0.148(4) 0.056(4) 0.1711(9) 1 0 0.038(10) 
H14 H1- 12 c -0.028(4) 0.053(4) 0.1335(8) 1 0 0.027(9) 
H15 H1- 12 c 0.043(4) 0.217(4) 0.1630(8) 1 0 0.021(8) 
H16 H1- 12 c -0.101(4) 0.177(4) 0.1293(8) 1 0 0.024(9) 
B6 B3+ 12 c -0.0142(5) 0.4642(5) 0.19013(11) 1 0 0.0287(10) 
H17 H1- 12 c 0.093(4) 0.520(4) 0.1761(9) 1 0 0.036(10) 
H18 H1- 12 c -0.108(4) 0.393(4) 0.1710(10) 1 0 0.041(10) 
H19 H1- 12 c -0.043(4) 0.545(4) 0.2029(8) 1 0 0.028(9) 
H20 H1- 12 c 0.003(4) 0.391(4) 0.2112(9) 1 0 0.034(10) 

loop_
_atom_site_aniso_label
_atom_site_aniso_type_symbol
_atom_site_aniso_U_11
_atom_site_aniso_U_22
_atom_site_aniso_U_33
_atom_site_aniso_U_12
_atom_site_aniso_U_13
_atom_site_aniso_U_23
Mg1 Mg2+ 0.0245(6) 0.0220(6) 0.0167(5) 0.0114(5) 0.0005(5) 0.0011(5)
Mg2 Mg2+ 0.0235(6) 0.0218(6) 0.0188(6) 0.0096(5) 0.0003(5) -0.0031(5)
Mg3 Mg2+ 0.0206(6) 0.0206(6) 0.0194(8) 0.0084(7) 0.0000(3) 0.0000(3)
B1 B3+ 0.026(3) 0.030(3) 0.035(3) 0.0128(16) 0.000 -0.006(3)
B2 B3+ 0.031(3) 0.031(2) 0.023(3) 0.0155(17) 0.000 0.005(2)
B3 B3+ 0.028(2) 0.043(3) 0.027(2) 0.022(2) 0.0102(19) 0.007(2)
B4 B3+ 0.025(2) 0.028(2) 0.024(2) 0.0123(19) -0.0033(18) -0.0018(19)
B5 B3+ 0.033(2) 0.021(2) 0.022(2) 0.015(2) -0.0023(19) -0.0012(19)
B6 B3+ 0.030(2) 0.033(2) 0.024(2) 0.017(2) 0.0050(19) -0.0021(19)
#End of data_162974-ICSD


