data_246825-ICSD
#?2014 by Fachinformationszentrum Karlsruhe, and the U.S. Secretary of 
#Commerce on behalf of the United States.  All rights reserved.
_database_code_ICSD                246825
_audit_creation_date               2010/02/01
_chemical_name_systematic          'Trisodium Hexafluorovanadate(III)'
_chemical_formula_structural       'Na3 (V F6)'
_chemical_formula_sum              'F6 Na3 V1'
_publ_section_title
;
Hydrothermal syntheses, structures, and magnetic properties of (N 
H4)2 Na V F6 and Na3 V F6
;
loop_
_citation_id
_citation_journal_abbrev
_citation_year
_citation_journal_volume
_citation_journal_issue
_citation_page_first
_citation_page_last
_citation_journal_id_ASTM
primary 'Journal of Solid State Chemistry' 2009 182 8 2208 2212 JSSCBI
_publ_author_name
;
He Lijie;Yuan Hongming;Huang Keke;Yan Chen;Li Guanghua;He Qiaoru;Yu 
Yang;Feng Shouhua
;
_cell_length_a                     5.510(6)
_cell_length_b                     5.725(8)
_cell_length_c                     7.948(6)
_cell_angle_alpha                  90.
_cell_angle_beta                   90.410(8)
_cell_angle_gamma                  90.
_cell_volume                       250.71
_cell_formula_units_Z              2
_symmetry_space_group_name_H-M     'P 1 21/n 1'
_symmetry_Int_Tables_number        14
loop_
_symmetry_equiv_pos_site_id
_symmetry_equiv_pos_as_xyz
  1	'-x+.5, y+.5, -z+.5'
  2	'-x, -y, -z'
  3	'x+.5, -y+.5, z+.5'
  4	'x, y, z'
loop_
_atom_type_symbol
_atom_type_oxidation_number
F1-	-1
Na1+	1
V3+	3
loop_
_atom_site_label
_atom_site_type_symbol
_atom_site_symmetry_multiplicity
_atom_site_Wyckoff_symbol
_atom_site_fract_x
_atom_site_fract_y
_atom_site_fract_z
_atom_site_occupancy
_atom_site_attached_hydrogens
V1 V3+ 2 a 0 0 0 1. 0 
Na1 Na1+ 2 b 0 0 0.5 1. 0 
Na2 Na1+ 4 e -0.0060(8) 0.4448(2) 0.2586(9) 1. 0 
F1 F1- 4 e 0.0826(6) 0.2987(5) -0.0130(1) 1. 0 
F2 F1- 4 e 0.0843(7) 0.0913(8) 0.2175(9) 1. 0 
F3 F1- 4 e 0.8078(7) 0.6298(4) 0.4942(0) 1. 0 

#End of data_246825-ICSD


