data_1532-ICSD
#?2014 by Fachinformationszentrum Karlsruhe, and the U.S. Secretary of 
#Commerce on behalf of the United States.  All rights reserved.
_database_code_ICSD                1532
_audit_creation_date               1980/01/01
_audit_update_record               2010/02/01
_chemical_name_systematic
;
Calcium Chloride Nitrate(V) Dihydrate
;
_chemical_formula_structural       'Ca Cl (N O3) (H2 O)2'
_chemical_formula_sum              'H4 Ca1 Cl1 N1 O5'
_publ_section_title
;
Identification et structure du chlorure nitrate de calcium dihydrate
;
loop_
_citation_id
_citation_journal_abbrev
_citation_year
_citation_journal_volume
_citation_page_first
_citation_page_last
_citation_journal_id_ASTM
primary 'Acta Crystallographica B (24,1968-38,1982)' 1978 34 902 904 ACBCAR
_publ_author_name                  'Leclaire, A.;Borel, M.M.'
_cell_length_a                     9.052(4)
_cell_length_b                     6.676(5)
_cell_length_c                     19.797(6)
_cell_angle_alpha                  90.
_cell_angle_beta                   90.
_cell_angle_gamma                  90.
_cell_volume                       1196.36
_cell_formula_units_Z              8
_symmetry_space_group_name_H-M     'P b c a'
_symmetry_Int_Tables_number        61
_refine_ls_R_factor_all            .027
loop_
_symmetry_equiv_pos_site_id
_symmetry_equiv_pos_as_xyz
  1	'x+.5, y, -z+.5'
  2	'x, -y+.5, z+.5'
  3	'-x+.5, y+.5, z'
  4	'-x, -y, -z'
  5	'-x+.5, -y, z+.5'
  6	'-x, y+.5, -z+.5'
  7	'x+.5, -y+.5, -z'
  8	'x, y, z'
loop_
_atom_type_symbol
_atom_type_oxidation_number
Ca2+	2
Cl1-	-1
H1+	1
N5+	5
O2-	-2
loop_
_atom_site_label
_atom_site_type_symbol
_atom_site_symmetry_multiplicity
_atom_site_Wyckoff_symbol
_atom_site_fract_x
_atom_site_fract_y
_atom_site_fract_z
_atom_site_occupancy
_atom_site_attached_hydrogens
_atom_site_B_iso_or_equiv
Ca1 Ca2+ 8 c -.44610(3) 0.45016(5) 0.15445(2) 1. 0 0 
Cl1 Cl1- 8 c -.54426(6) 0.77308(7) 0.08206(3) 1. 0 0 
O1 O2- 8 c -.47087(14) 0.17955(24) 0.24714(8) 1. 0 0 
O2 O2- 8 c -.29772(18) -.02586(25) 0.27703(9) 1. 0 0 
O3 O2- 8 c -.27803(15) 0.14700(25) 0.18346(7) 1. 0 0 
N1 N5+ 8 c -.34741(17) 0.09732(24) 0.23653(8) 1. 0 0 
O4 O2- 8 c -.60756(19) 0.23829(28) 0.09759(11) 1. 0 0 
O5 O2- 8 c -.30172(19) 0.39700(34) 0.05623(9) 1. 0 0 
H1 H1+ 8 c -.7001(51) 0.2556(71) 0.0980(27) 1. 0 2.28 
H2 H1+ 8 c -.5875(63) 0.1203(93) 0.0890(27) 1. 0 3.09 
H3 H1+ 8 c -.2124(75) 0.3519(95) 0.0543(29) 1. 0 3.76 
H4 H1+ 8 c -.3497(61) 0.3727(84) 0.0199(28) 1. 0 3.07 

#End of data_1532-ICSD


