data_250224-ICSD
#?2014 by Fachinformationszentrum Karlsruhe, and the U.S. Secretary of 
#Commerce on behalf of the United States.  All rights reserved.
_database_code_ICSD                250224
_audit_creation_date               2005/04/01
_audit_update_record               2010/08/01
_chemical_name_systematic          'Potassium Triborate'
_chemical_formula_structural       'K (B3 O5)'
_chemical_formula_sum              'B3 K1 O5'
_publ_section_title
;
Crystal structure and thermal behavior of K B3 O5
;
loop_
_citation_id
_citation_journal_abbrev
_citation_year
_citation_journal_volume
_citation_page_first
_citation_page_last
_citation_journal_id_ASTM
primary 'Doklady Akad. Nauk' 2004 398 643 647 DAKNEQ
_publ_author_name
;
Bubnova, R.S.;Fundamenskii, V.S.;Filatov, S.K.;Polyakova, I.G.
;
_cell_length_a                     9.319(1)
_cell_length_b                     6.648(1)
_cell_length_c                     21.094(2)
_cell_angle_alpha                  90
_cell_angle_beta                   94.38(1)
_cell_angle_gamma                  90
_cell_volume                       1303.01
_cell_formula_units_Z              12
_symmetry_space_group_name_H-M     'P 1 21/c 1'
_symmetry_Int_Tables_number        14
_refine_ls_R_factor_all            .035
loop_
_symmetry_equiv_pos_site_id
_symmetry_equiv_pos_as_xyz
  1	'x, -y+.5, z+.5'
  2	'-x, -y, -z'
  3	'-x, y+.5, -z+.5'
  4	'x, y, z'
loop_
_atom_type_symbol
_atom_type_oxidation_number
B3+	3
K1+	1
O2-	-2
loop_
_atom_site_label
_atom_site_type_symbol
_atom_site_symmetry_multiplicity
_atom_site_Wyckoff_symbol
_atom_site_fract_x
_atom_site_fract_y
_atom_site_fract_z
_atom_site_occupancy
_atom_site_attached_hydrogens
_atom_site_B_iso_or_equiv
K1 K1+ 4 e 0.4034(1) 0.1857(1) 0.88361(4) 1. 0 2.12(2) 
K2 K1+ 4 e 0.2305(1) 0.1987(1) 0.03785(3) 1. 0 2.04(2) 
K3 K1+ 4 e 0.0681(1) 0.5364(1) 0.76005(4) 1. 0 2.39(2) 
B1 B3+ 4 e 0.6474(4) 0.7031(5) 0.7841(1) 1. 0 0.91(8) 
B2 B3+ 4 e 0.2006(5) 0.5729(5) 0.1672(1) 1. 0 1.26(9) 
B3 B3+ 4 e 0.0176(5) 0.7974(5) 0.1120(1) 1. 0 1.08(9) 
B4 B3+ 4 e 0.1060(5) 0.8577(5) 0.9003(1) 1. 0 1.09(9) 
B5 B3+ 4 e 0.3315(5) 0.7504(5) 0.9634(1) 1. 0 0.89(8) 
B6 B3+ 4 e 0.2550(5) 0.7394(5) 0.0708(1) 1. 0 1.13(9) 
B7 B3+ 4 e 0.1471(5) 0.5038(5) 0.9208(1) 1. 0 1.17(9) 
B8 B3+ 4 e 0.4854(5) 0.7147(5) 0.8722(1) 1. 0 1.04(8) 
B9 B3+ 4 e 0.4161(5) 0.5157(5) 0.7790(1) 1. 0 1.06(9) 
O1 O2- 4 e 0.3600(3) 0.7907(3) 0.03163(9) 1. 0 1.14(5) 
O2 O2- 4 e 0.2298(3) 0.9038(3) 0.93434(9) 1. 0 1.16(5) 
O3 O2- 4 e 0.0616(3) 0.6570(3) 0.8927(1) 1. 0 1.58(6) 
O4 O2- 4 e 0.4656(3) 0.7701(3) 0.93280(9) 1. 0 1.29(6) 
O5 O2- 4 e 0.2695(3) 0.5461(3) 0.95760(9) 1. 0 1.12(5) 
O6 O2- 4 e 0.6066(3) 0.7768(3) 0.84581(9) 1. 0 1.04(5) 
O7 O2- 4 e 0.5332(3) 0.5771(3) 0.75107(9) 1. 0 1.25(6) 
O8 O2- 4 e 0.6776(3) 0.8700(3) 0.74212(9) 1. 0 1.18(5) 
O9 O2- 4 e 0.7794(3) 0.5807(3) 0.7915(1) 1. 0 1.27(6) 
O10 O2- 4 e 0.3835(3) 0.5980(4) 0.8376(1) 1. 0 1.49(6) 
O11 O2- 4 e 0.0824(3) 0.6940(3) 0.16933(9) 1. 0 1.10(5) 
O12 O2- 4 e 0.1127(3) 0.3069(3) 0.9129(1) 1. 0 1.39(6) 
O13 O2- 4 e 0.0178(3) 0.9953(3) 0.8698(1) 1. 0 1.49(6) 
O14 O2- 4 e 0.2992(3) 0.6155(4) 0.1224(1) 1. 0 1.81(6) 
O15 O2- 4 e 0.1206(3) 0.8081(4) 0.0627(1) 1. 0 1.53(6) 

loop_
_atom_site_aniso_label
_atom_site_aniso_type_symbol
_atom_site_aniso_B_11
_atom_site_aniso_B_22
_atom_site_aniso_B_33
_atom_site_aniso_B_12
_atom_site_aniso_B_13
_atom_site_aniso_B_23
K1 K1+ 1.91(5) 1.94(3) 2.50(3) -0.23(3) 0.09(3) 0.73(2)
K2 K1+ 2.56(5) 1.67(2) 1.80(2) -0.06(3) -0.37(2) 0.18(2)
K3 K1+ 1.89(5) 3.01(3) 2.31(3) 0.07(3) 0.51(3) 1.24(2)
B1 B3+ 0.5(2) 1.34(10) 0.93(8) -0.00(11) 0.14(9) 0.18(8)
B2 B3+ 1.4(2) 1.35(10) 1.04(9) 0.15(12) 0.26(10) 0.28(8)
B3 B3+ 1.0(2) 0.89(9) 1.34(9) -0.06(11) 0.08(10) 0.12(8)
B4 B3+ 1.2(2) 0.93(9) 1.20(9) 0.25(11) 0.29(10) 0.01(7)
B5 B3+ 0.8(2) 1.00(8) 0.91(8) -0.10(11) 0.01(9) -0.04(7)
B6 B3+ 1.1(2) 1.19(9) 1.12(9) -0.32(11) 0.11(10) 0.03(7)
B7 B3+ 1.4(2) 0.96(9) 1.15(9) -0.38(11) -0.39(10) -0.03(7)
B8 B3+ 0.9(2) 1.12(10) 1.08(9) 0.13(11) 0.05(10) -0.00(7)
B9 B3+ 1.0(2) 1.13(9) 1.01(8) -0.06(11) 0.17(10) -0.24(7)
O1 O2- 1.09(13) 1.49(7) 0.86(6) -0.27(8) 0.27(6) -0.08(5)
O2 O2- 1.24(13) 0.91(6) 1.30(6) -0.10(7) -0.14(7) 0.09(5)
O3 O2- 1.69(14) 0.80(6) 2.13(8) -0.09(7) -0.53(8) 0.08(6)
O4 O2- 1.34(13) 1.55(7) 1.00(6) -0.48(8) 0.24(7) -0.34(5)
O5 O2- 1.05(13) 0.91(6) 1.36(6) -0.11(7) -0.06(7) 0.16(5)
O6 O2- 0.70(12) 1.45(7) 0.98(6) -0.23(7) 0.09(6) -0.06(5)
O7 O2- 0.77(14) 1.91(8) 1.10(6) -0.33(8) 0.25(7) -0.23(6)
O8 O2- 0.91(13) 1.34(7) 1.31(6) 0.06(8) 0.26(7) 0.44(6)
O9 O2- 0.91(13) 1.56(7) 1.35(7) 0.50(8) 0.25(7) 0.53(6)
O10 O2- 1.45(14) 1.93(8) 1.17(6) -0.56(9) 0.53(7) -0.64(6)
O11 O2- 1.23(13) 1.10(6) 0.99(6) 0.27(7) 0.26(6) 0.17(5)
O12 O2- 1.29(13) 0.77(6) 2.07(8) -0.13(7) -0.10(7) 0.01(6)
O13 O2- 1.64(14) 0.80(6) 1.93(8) 0.10(8) -0.54(8) 0.05(6)
O14 O2- 1.19(14) 2.40(9) 1.94(8) 0.86(9) 0.70(8) 1.14(7)
O15 O2- 0.89(13) 2.41(9) 1.31(7) 0.36(9) 0.30(7) 0.58(7)
#End of data_250224-ICSD


