data_187336-ICSD
#?2014 by Fachinformationszentrum Karlsruhe, and the U.S. Secretary of 
#Commerce on behalf of the United States.  All rights reserved.
_database_code_ICSD                187336
_audit_creation_date               2013/08/01
_chemical_name_systematic
;
Tribarium Dicalcium Hexanitridodisilicate
;
_chemical_formula_structural       'Ba3 Ca2 (Si2 N6)'
_chemical_formula_sum              'Ba3 Ca2 N6 Si2'
_publ_section_title
;
Ba4 Mg (Si2 N6), Ba3 Ca2 (Si2 N6) and Ba1.6 Sr3.4 (Si2 N6) - 
Quaternary barium alkaline-earth silicon nitrides containing isolated 
nitridosilicate anions of (Si2 N6)10-
;
loop_
_citation_id
_citation_journal_abbrev
_citation_year
_citation_journal_volume
_citation_page_first
_citation_page_last
_citation_journal_id_ASTM
primary 'Journal of Alloys and Compounds' 2013 555 320 324 JALCEU
_publ_author_name                  'Yamane, Hisanori;Morito, Haruhiko'
_cell_length_a                     10.0962(4)
_cell_length_b                     6.7868(3)
_cell_length_c                     13.3249(5)
_cell_angle_alpha                  90.
_cell_angle_beta                   101.7070(13)
_cell_angle_gamma                  90.
_cell_volume                       894.04
_cell_formula_units_Z              4
_symmetry_space_group_name_H-M     'C 1 2/c 1'
_symmetry_Int_Tables_number        15
_refine_ls_R_factor_all            .0177
loop_
_symmetry_equiv_pos_site_id
_symmetry_equiv_pos_as_xyz
  1	'x, -y, z+.5'
  2	'-x, -y, -z'
  3	'-x, y, -z+.5'
  4	'x, y, z'
  5	'x+.5, -y+.5, z+.5'
  6	'-x+.5, -y+.5, -z'
  7	'-x+.5, y+.5, -z+.5'
  8	'x+.5, y+.5, z'
loop_
_atom_type_symbol
_atom_type_oxidation_number
Ba2+	2
Ca2+	2
N3-	-3
Si4+	4
loop_
_atom_site_label
_atom_site_type_symbol
_atom_site_symmetry_multiplicity
_atom_site_Wyckoff_symbol
_atom_site_fract_x
_atom_site_fract_y
_atom_site_fract_z
_atom_site_occupancy
_atom_site_attached_hydrogens
_atom_site_U_iso_or_equiv
Ba1 Ba2+ 4 e 0 0.59819(5) 0.250 1. 0 0.01031(9) 
Ba2 Ba2+ 8 f 0.06107(2) 0.26310(3) 0.494511(18) 1. 0 0.01107(8) 
Ca1 Ca2+ 8 f 0.15231(7) 0.06448(11) 0.21726(6) 1. 0 0.00894(16) 
Si1 Si4+ 8 f 0.27922(10) 0.35370(15) 0.07917(8) 1. 0 0.0073(2) 
N1 N3- 8 f 0.4365(3) 0.4533(5) 0.1293(2) 1. 0 0.0104(7) 
N2 N3- 8 f 0.2845(3) 0.0891(5) 0.0551(2) 1. 0 0.0103(7) 
N3 N3- 8 f 0.1657(3) 0.4051(5) 0.1585(3) 1. 0 0.0107(6) 

loop_
_atom_site_aniso_label
_atom_site_aniso_type_symbol
_atom_site_aniso_U_11
_atom_site_aniso_U_22
_atom_site_aniso_U_33
_atom_site_aniso_U_12
_atom_site_aniso_U_13
_atom_site_aniso_U_23
Ba1 Ba2+ 0.01074(15) 0.00934(15) 0.01184(17) 0. 0.00462(12) 0.
Ba2 Ba2+ 0.01267(12) 0.00984(12) 0.01095(13) -0.00078(9) 0.00301(9) 
-0.00154(8)
Ca1 Ca2+ 0.0079(3) 0.0088(4) 0.0095(4) 0.0019(3) 0.0002(3) -0.0009(3)
Si1 Si4+ 0.0074(4) 0.0069(5) 0.0074(5) -0.0006(4) 0.0013(4) 0.0000(4)
N1 N3- 0.0089(14) 0.0105(15) 0.0109(16) -0.0003(13) 0.0003(13) -0.0009(12)
N2 N3- 0.0150(15) 0.0070(15) 0.0079(16) 0.0003(13) 0.0002(13) 0.0013(13)
N3 N3- 0.0095(14) 0.0132(15) 0.0098(16) -0.0027(14) 0.0027(12) -0.0011(13)
#End of data_187336-ICSD


