data_36431-ICSD
#?2014 by Fachinformationszentrum Karlsruhe, and the U.S. Secretary of 
#Commerce on behalf of the United States.  All rights reserved.
_database_code_ICSD                36431
_audit_creation_date               1980/12/31
_audit_update_record               2012/08/01
_chemical_name_systematic
;
Trilithium Octaoxodihydroxopentaborate Hydroxide
;
_chemical_formula_structural       'Li3 (B5 O8 (O H)2)'
_chemical_formula_sum              'H2 B5 Li3 O10'
_publ_section_title
;
Crystal structure of orthorhombic Li-borate Li3 (B5 O8 (O H)2)
;
loop_
_citation_id
_citation_journal_abbrev
_citation_year
_citation_journal_volume
_citation_page_first
_citation_page_last
_citation_journal_id_ASTM
primary Kristallografiya 1980 25 716 721 KRISAJ
2 'Soviet Physics, Crystallography (= Kristallografiya)'
 1980 25 411 415 SPHCA6
_publ_author_name
;
Sokolova, E.V.;Yamnova, N.A.;Belov, N.V.
;
_cell_length_a                     8.499(5)
_cell_length_b                     26.520(10)
_cell_length_c                     9.308(3)
_cell_angle_alpha                  90.
_cell_angle_beta                   90.
_cell_angle_gamma                  90.
_cell_volume                       2097.96
_cell_formula_units_Z              12
_symmetry_space_group_name_H-M     'P n c 2'
_symmetry_Int_Tables_number        30
_refine_ls_R_factor_all            .052
loop_
_symmetry_equiv_pos_site_id
_symmetry_equiv_pos_as_xyz
  1	'x, -y+.5, z+.5'
  2	'-x, y+.5, z+.5'
  3	'-x, -y, z'
  4	'x, y, z'
loop_
_atom_type_symbol
_atom_type_oxidation_number
B3+	3
H1+	1
Li1+	1
O2-	-2
loop_
_atom_site_label
_atom_site_type_symbol
_atom_site_symmetry_multiplicity
_atom_site_Wyckoff_symbol
_atom_site_fract_x
_atom_site_fract_y
_atom_site_fract_z
_atom_site_occupancy
_atom_site_attached_hydrogens
_atom_site_B_iso_or_equiv
B1 B3+ 4 c 0.000(2) 0.1724(5) 0.140(2) 1. 0 0 
B2 B3+ 4 c 0.917(2) 0.4260(5) 0.013(2) 1. 0 0 
B3 B3+ 4 c 0.824(2) 0.246(5) 0.180(1) 1. 0 0 
B4 B3+ 4 c 0.500(2) 0.3361(5) 0.904(1) 1. 0 0 
B5 B3+ 4 c 0.936(2) 0.0868(6) 0.037(2) 1. 0 0 
B6 B3+ 2 b 0.5 0 0.915(2) 1. 0 0 
B7 B3+ 2 a 0 0 0.662(3) 1. 0 0 
B8 B3+ 4 c 0.063(2) 0.2566(5) 0.031(2) 1. 0 0 
B9 B3+ 4 c 0.187(2) 0.0986(5) 0.159(1) 1. 0 0 
B10 B3+ 4 c 0.659(2) 0.4158(5) 0.883(2) 1. 0 0 
B11 B3+ 4 c 0.690(2) 0.0733(5) 0.890(2) 1. 0 0 
B12 B3+ 4 c 0.323(2) 0.2648(5) 0.902(1) 1. 0 0 
B13 B3+ 4 c 0.156(2) 0.4231(5) 0.171(2) 1. 0 0 
B14 B3+ 4 c 0.573(1) 0.2586(4) 0.038(1) 1. 0 0 
B15 B3+ 4 c 0.432(2) 0.0840(4) 0.017(1) 1. 0 0 
B16 B3+ 4 c 0.426(2) 0.4134(4) 0.046(1) 1. 0 0 
Li1 Li1+ 4 c 0.842(2) 0.325(6) 0.923(2) 1. 0 0 
Li2 Li1+ 4 c 0.176(3) 0.3599(9) 0.908(3) 1. 0 0 
Li3 Li1+ 4 c 0.175(3) 0.0163(7) 0.939(2) 1. 0 0 
Li4 Li1+ 4 c 0.674(3) 0.485(7) 0.137(2) 1. 0 0 
Li5 Li1+ 4 c 0.691(3) 0.1537(8) 0.128(3) 1. 0 0 
Li6 Li1+ 4 c 0.312(3) 0.1900(7) 0.134(2) 1. 0 0 
Li7 Li1+ 4 c 0.288(2) 0.3202(6) 0.152(2) 1. 0 0 
Li8 Li1+ 4 c 0.907(2) 0.3416(6) 0.300(2) 1. 0 3.9(3) 
Li9 Li1+ 4 c 0.431(2) 0.0221(6) 0.229(2) 1. 0 4.1(3) 
O1 O2- 4 c 0.394(1) 0.3641(3) 0 1. 0 0 
O2 O2- 4 c 0.622(1) 0.3066(3) 0.0150(9) 1. 0 0 
O3 O2- 4 c 0.9007(9) 0.1376(2) 0.0494(8) 1. 0 0 
O4 O2- 4 c 0.0935(9) 0.2041(3) 0.0380(9) 1. 0 0 
O5 O2- 4 c 0.8895(9) 0.4740(3) 0.0516(9) 1. 0 0 
O6 O2- 4 c 0.0633(9) 0.4040(3) 0.0457(8) 1. 0 0 
O7 O2- 4 c 0.074(1) 0.0670(3) 0.0742(9) 1. 0 0 
O8 O2- 4 c 0.422(1) 0.2432(3) 0.0149(9) 1. 0 0 
O9 O2- 4 c 0.5782(9) 0.1056(3) 0.978(1) 1. 0 0 
O10 O2- 4 c 0.929(1) 0.2758(3) 0.079(1) 1. 0 0 
O11 O2- 4 c 0.108(9) 0.1410(3) 0.2199(9) 1. 0 0 
O12 O2- 4 c 0.0845(9) 0.4641(3) 0.2482(9) 1. 0 0 
O13 O2- 4 c 0.900(1) 0.2008(3) 0.2328(9) 1. 0 0 
O14 O2- 4 c 0.816(1) 0.3995(3) 0.9280(9) 1. 0 0 
O15 O2- 4 c 0.403(1) 0.0347(3) 0.0102(9) 1. 0 0 
O16 O2- 4 c 0.584(1) 0.1270(3) 0.3141(9) 1. 0 0 
O17 O2- 4 c 0.3977(9) 0.1956(3) 0.3224(8) 1. 0 0 
O18 O2- 4 c 0.177(1) 0.2873(3) 0.9768(9) 1. 0 0 
O19 O2- 4 c 0.822(1) 0.0555(3) 0.9810(9) 1. 0 0 
O20 O2- 4 c 0.170(1) 0.3754(3) 0.2627(9) 1. 0 0 
O21 O2- 4 c 0.317(1) 0.4393(3) 0.1193(9) 1. 0 0 
O22 O2- 4 c 0.610(1) 0.4700(3) 0.3284(9) 1. 0 0 
O23 O2- 4 c 0.563(1) 0.4372(3) 0.002(1) 1. 0 0 
O24 O2- 4 c 0.668(1) 0.0428(3) 0.279(1) 1. 0 0 
O25 O2- 4 c 0.756(1) 0.3947(3) 0.2731(9) 1. 0 0 
O26 O2- 4 c 0.316(1) 0.1170(3) 0.064(1) 1. 0 0 
O27 O2- 4 c 0.678(1) 0.2299(3) 0.1080(9) 1. 0 0 
O28 O2- 4 c 0.2647(9) 0.2748(3) 0.3018(9) 1. 0 0 
O29 O2- 4 c 0.259(1) 0.0688(3) 0.2737(9) 1. 0 0 
O30 O2- 4 c 0.794(1) 0.2828(3) 0.298(1) 1. 0 0 
H1 H1+ 4 c 0.816 0.392 0.2 1. 0 2. 
H2 H1+ 4 c 0.727(9) 0.047(4) 0.206(8) 1. 0 2. 
H3 H1+ 4 c 0.158(8) 0.375(4) 0.356(8) 1. 0 2. 
H4 H1+ 4 c 0.150(9) 0.441(3) 0.875(9) 1. 0 2. 
H5 H1+ 4 c 0.702(9) 0.227(3) 0.882(9) 1. 0 2. 
H6 H1+ 4 c 0.175(9) 0.227(3) 0.870(9) 1. 0 2. 

loop_
_atom_site_aniso_label
_atom_site_aniso_type_symbol
_atom_site_aniso_B_11
_atom_site_aniso_B_22
_atom_site_aniso_B_33
_atom_site_aniso_B_12
_atom_site_aniso_B_13
_atom_site_aniso_B_23
B1 B3+ 1.4(6) 0.7(5) 0.8(5) -.5(5) -.6(6) 0.4(5)
B2 B3+ 1.7(7) 0.9(5) 1.3(6) 0.0(5) 1.1(6) 0.2(5)
B3 B3+ 0.7(2) 0.4(4) 0.5(5) -.2(5) -.5(5) 0.3(4)
B4 B3+ 0.3(4) 1.0(5) 0.6(5) 0.2(4) -.4(5) -.1(5)
B5 B3+ 1.8(7) 2.4(6) 1.3(6) -.6(6) 0.6(6) -1.2(6)
B6 B3+ 1.6(9) 0.9(6) 1.5(9) -1.1(6) 0 0
B7 B3+ 0.5(8) 0.3(7) 2.(1) -.2(6) 0 0
B8 B3+ 1.0(6) 1.2(5) 0.7(5) -.3(5) 0.2(6) 0.5(5)
B9 B3+ 1.0(6) 1.3(5) 0.7(5) 0.2(5) -.5(5) -.7(4)
B10 B3+ 1.2(6) 0.8(5) 0.8(5) 0.1(5) 0.7(5) 0.5(5)
B11 B3+ 0.7(5) 0.9(5) 1.2(5) -.3(4) 0.4(5) 0.2(5)
B12 B3+ 1.4(6) 1.6(5) 0.3(5) -.4(5) 0.5(6) -.3(5)
B13 B3+ 0.3(5) 1.3(5) 1.4(6) 0.2(5) 0.3(5) 0.1(5)
B14 B3+ 0.3(5) 0.4(4) 0.7(5) 0.2(4) -.3(5) 0.0(4)
B15 B3+ 0.3(5) 0.2(4) 0.7(5) -.1(4) -.4(4) 0.1(4)
B16 B3+ 0.3(5) 0.7(4) 0.5(5) -.1(4) 0.0(5) 0.0(4)
Li1 Li1+ 0.5(7) 0.2(5) 1.2(7) 0.0(6) -.7(7) 0.0(5)
Li2 Li1+ 1.4(1) 2.8(1) 2.1(1) 0.1(9) 1.3(10) -1.2(9)
Li3 Li1+ 0.7(9) 0.9(7) 1.8(9) -.6(7) 0.2(8) 1.1(7)
Li4 Li1+ 0.5(8) 0.9(7) 1.0(8) -.4(7) 0.2(8) -.1(6)
Li5 Li1+ 2.70(13) 1.7(9) 1.8(10) -.7(9) -.8(10) -.3(8)
Li6 Li1+ 1.7(1) 0.9(7) 0.7(7) -.9(8) -1.0(8) -.6(6)
Li7 Li1+ 0.3(7) 0.2(6) 0.3(7) 0.6(6) -.3(6) 0.7(6)
O1 O2- 1.9(4) 0.7(3) 2.5(5) 0.3(3) 0.1(4) -.5(3)
O2 O2- 1.8(4) 1.1(3) 1.3(4) 0.2(3) -.3(4) 0.5(3)
O3 O2- 0.5(3) 0.1(2) 0.8(3) 0.4(2) -.7(3) -.7(3)
O4 O2- 0.4(3) 0.7(3) 1.0(3) 0.3(3) 0.5(3) 0.6(3)
O5 O2- 0.2(3) 1.0(3) 1.6(4) 0.2(3) -.5(3) 0.6(3)
O6 O2- 0.4(3) 0.8(3) 0.7(3) 0.1(3) -.4(3) -.3(3)
O7 O2- 0.7(3) 0.5(3) 1.5(4) 0.1(3) 0.2(3) 0.6(3)
O8 O2- 0.9(4) 1.2(3) 1.1(4) 0.1(3) 0.0(3) 0.3(3)
O9 O2- 0.2(3) 0.7(3) 1.1(3) 0.0(3) 0.2(3) -.7(3)
O10 O2- 0.8(4) 1.5(3) 1.6(4) 0.1(3) -.2(4) 0.4(3)
O11 O2- 0.9(3) 0.3(3) 0.9(3) 0.2(3) 0.3(3) -.3(3)
O12 O2- 0.2(3) 0.9(3) 0.4(3) 0.6(3) -.2(3) -.1(3)
O13 O2- 0.8(3) 0.9(3) 0.7(3) 0.3(3) 0.1(3) 0.7(3)
O14 O2- 1.0(4) 1.0(3) 1.5(4) 0.2(3) -.3(3) -.2(3)
O15 O2- 2.2(5) 1.3(3) 0.8(4) 0.0(3) 0.4(4) -.8(3)
O16 O2- 1.4(4) 0.3(3) 1.0(3) 0.1(3) 0.5(3) 0.0(3)
O17 O2- 0.8(3) 0.9(3) 0.6(3) -.1(3) -.2(3) -.1(3)
O18 O2- 0.6(4) 0.8(3) 1.4(3) 0.6(3) -.4(3) -.2(3)
O19 O2- 1.3(4) 0.3(3) 1.4(4) -.4(3) -.7(3) -.4(3)
O20 O2- 1.0(4) 1.3(3) 1.3(3) 0.3(3) -.1(4) 0.6(3)
O21 O2- 0.2(3) 0.8(3) 1.3(3) 0.1(3) 0.2(3) -.5(3)
O22 O2- 1.1(4) 1.0(3) 1.1(3) 0.3(3) 0.8(3) -.1(3)
O23 O2- 1.3(4) 1.2(3) 1.7(4) 0.2(3) 0.3(3) -.7(3)
O24 O2- 1.1(4) 0.7(3) 1.7(4) -.2(3) 0.6(4) 0.1(3)
O25 O2- 1.0(3) 1.0(3) 0.5(3) 0.2(3) 0.0(3) 0.1(3)
O26 O2- 0.4(3) 1.1(3) 1.0(3) -.2(3) 0.1(3) -.5(3)
O27 O2- 0.8(4) 1.0(3) 0.9(3) 0.0(3) -.1(3) -.2(3)
O28 O2- 0.5(3) 0.5(3) 1.3(4) 0.0(3) -.2(3) 0.3(3)
O29 O2- 1.9(4) 0.6(3) 0.9(3) 0.3(3) -.4(4) -.2(3)
O30 O2- 1.1(4) 1.4(3) 2.3(4) 0.6(3) 0.0(4) -.6(3)
#End of data_36431-ICSD


