data_100826-ICSD
#?2014 by Fachinformationszentrum Karlsruhe, and the U.S. Secretary of 
#Commerce on behalf of the United States.  All rights reserved.
_database_code_ICSD                100826
_audit_creation_date               1981/12/31
_audit_update_record               2013/08/01
_chemical_name_systematic          'Calcium Iron Oxide (2/9/13)'
_chemical_formula_structural       'Ca2 Fe9 O13'
_chemical_formula_sum              'Ca2 Fe9 O13'
_publ_section_title
;
Preparation et caracterisation des ferrites de calcium Ca Fe2+n O4+n 
a valeurs fractionnaires de n (3/2, 5/2) et leur incidence sur le 
diagramme Fe-Ca-O a 1120 C
;
loop_
_citation_id
_citation_journal_abbrev
_citation_year
_citation_journal_volume
_citation_page_first
_citation_page_last
_citation_journal_id_ASTM
primary 'Materials Research Bulletin' 1981 16 1139 1148 MRBUAC
_publ_author_name
;
Malaman, B.;Alebouyeh, H.;Jeannot, F.;Courtois, A.;Gerardin, 
R.;Evrard, O.
;
_cell_length_a                     10.022(2)
_cell_length_b                     3.047(1)
_cell_length_c                     16.877(3)
_cell_angle_alpha                  90.
_cell_angle_beta                   99.2(2)
_cell_angle_gamma                  90.
_cell_volume                       508.74
_cell_formula_units_Z              2
_symmetry_space_group_name_H-M     'C 1 2/m 1'
_symmetry_Int_Tables_number        12
_refine_ls_R_factor_all            .054
loop_
_symmetry_equiv_pos_site_id
_symmetry_equiv_pos_as_xyz
  1	'-x, y, -z'
  2	'-x, -y, -z'
  3	'x, -y, z'
  4	'x, y, z'
  5	'-x+.5, y+.5, -z'
  6	'-x+.5, -y+.5, -z'
  7	'x+.5, -y+.5, z'
  8	'x+.5, y+.5, z'
loop_
_atom_type_symbol
_atom_type_oxidation_number
Ca2+	2
Fe2+	2
Fe3+	3
O2-	-2
loop_
_atom_site_label
_atom_site_type_symbol
_atom_site_symmetry_multiplicity
_atom_site_Wyckoff_symbol
_atom_site_fract_x
_atom_site_fract_y
_atom_site_fract_z
_atom_site_occupancy
_atom_site_attached_hydrogens
_atom_site_B_iso_or_equiv
Ca1 Ca2+ 4 i 0.2139(2) 0 0.2314(2) 1. 0 0.9 
Fe1 Fe2+ 2 d 0 0.5 0.5 1. 0 0.54 
Fe2 Fe2+ 4 i 0.6465(2) 0 0.0413(1) 1. 0 0.47 
Fe3 Fe2+ 4 i 0.7509(2) 0 0.4193(1) 1. 0 0.5 
Fe4 Fe3+ 4 i 0.9371(2) 0 0.1257(1) 1. 0 0.5 
Fe5 Fe3+ 4 i 0.9911(2) 0 0.3332(1) 1. 0 0.5 
O1 O2- 2 a 0 0 0 1. 0 0.84 
O2 O2- 4 i 0.8821(8) 0 0.2289(5) 1. 0 0.65 
O3 O2- 4 i 0.2988(8) 0 0.0716(5) 1. 0 1.1 
O4 O2- 4 i 0.5801(8) 0 0.1427(5) 1. 0 0.88 
O5 O2- 4 i 0.6238(8) 0 0.3188(4) 1. 0 0.79 
O6 O2- 4 i 0.3785(9) 0 0.3840(6) 1. 0 1.25 
O7 O2- 4 i 0.1324(9) 0 0.4666(5) 1. 0 0.82 

#End of data_100826-ICSD


