data_33718-ICSD
#?2014 by Fachinformationszentrum Karlsruhe, and the U.S. Secretary of 
#Commerce on behalf of the United States.  All rights reserved.
_database_code_ICSD                33718
_audit_creation_date               1991/07/10
_audit_update_record               2010/08/01
_chemical_name_systematic          'Trisodium Phosphate(V) - T'
_chemical_formula_structural       'Na3 (P O4)'
_chemical_formula_sum              'Na3 O4 P1'
_publ_section_title
;
Bestimmung der Kristallstruktur von T - Na3 P O4 mit Roentgen- und 
Neutronenpulvertechniken
;
loop_
_citation_id
_citation_journal_abbrev
_citation_year
_citation_journal_volume
_citation_page_first
_citation_page_last
_citation_journal_id_ASTM
primary 'Zeitschrift fuer Kristallographie (1979-2010)' 1990 192 233 243 ZEKRDZ
2 'Phase Transition' 1992 38 127 220 PHTRDP
_publ_author_name
;
Lissel, E.;Jansen, M.;Jansen, E.;Will, G.
;
_cell_length_a                     10.8084(6)
_cell_length_b                     10.8084(6)
_cell_length_c                     6.8178(5)
_cell_angle_alpha                  90.
_cell_angle_beta                   90.
_cell_angle_gamma                  90.
_cell_volume                       796.47
_cell_formula_units_Z              8
_symmetry_space_group_name_H-M     'P -4 21 c'
_symmetry_Int_Tables_number        114
_refine_ls_R_factor_all            .041
loop_
_symmetry_equiv_pos_site_id
_symmetry_equiv_pos_as_xyz
  1	'y+.5, x+.5, z+.5'
  2	'y, -x, -z'
  3	'-y+.5, -x+.5, z+.5'
  4	'-y, x, -z'
  5	'x+.5, -y+.5, -z+.5'
  6	'-x, -y, z'
  7	'-x+.5, y+.5, -z+.5'
  8	'x, y, z'
loop_
_atom_type_symbol
_atom_type_oxidation_number
Na1+	1
O2-	-2
P5+	5
loop_
_atom_site_label
_atom_site_type_symbol
_atom_site_symmetry_multiplicity
_atom_site_Wyckoff_symbol
_atom_site_fract_x
_atom_site_fract_y
_atom_site_fract_z
_atom_site_occupancy
_atom_site_attached_hydrogens
_atom_site_U_iso_or_equiv
P1 P5+ 8 e 0.261(1) -.016(1) 0.229(1) 1. 0 0.014(2) 
O1 O2- 8 e 0.166(2) -.081(2) 0.356(2) 1. 0 0.016(2) 
O2 O2- 8 e 0.375(2) -.105(2) 0.207(3) 1. 0 0.016(2) 
O3 O2- 8 e 0.211(2) 0.015(2) 0.033(2) 1. 0 0.016(2) 
O4 O2- 8 e 0.307(2) 0.103(2) 0.334(3) 1. 0 0.016(2) 
Na1 Na1+ 8 e 0.257(1) 0.034(1) 0.695(2) 1. 0 0.026(1) 
Na2 Na1+ 8 e 0.220(1) 0.241(1) 0.038(2) 1. 0 0.026(1) 
Na3 Na1+ 2 a 0 0 0 1. 0 0.025(1) 
Na4 Na1+ 2 b 0 0 0.5 1. 0 0.025(1) 
Na5 Na1+ 4 d 0 0.5 0.048(2) 1. 0 0.026(2) 

#End of data_33718-ICSD


