data_281462-ICSD
#?2014 by Fachinformationszentrum Karlsruhe, and the U.S. Secretary of 
#Commerce on behalf of the United States.  All rights reserved.
_database_code_ICSD                281462
_audit_creation_date               2004/04/01
_chemical_name_systematic
;
Hexacalcium Hexanitridodichromate Hydride
;
_chemical_formula_structural       'Ca6 (Cr2 N6) H'
_chemical_formula_sum              'H1 Ca6 Cr2 N6'
_publ_section_title
;
Ca6 (Cr2 N6) H, the first quaternary nitride - hydride
;
loop_
_citation_id
_citation_journal_abbrev
_citation_year
_citation_journal_volume
_citation_journal_issue
_citation_page_first
_citation_page_last
_citation_journal_id_ASTM
primary 'Inorganic Chemistry' 2003 42 18 5572 5578 INOCAJ
_publ_author_name
;
Bailey, M.S.;Obrovac, M.N.;Baillet, E.;Reynolds, T.K.;Zax, 
D.B.;DiSalvo, F.J.
;
_cell_length_a                     9.0042(2)
_cell_length_b                     9.0042(2)
_cell_length_c                     9.1898(3)
_cell_angle_alpha                  90.
_cell_angle_beta                   90.
_cell_angle_gamma                  120.
_cell_volume                       645.25
_cell_formula_units_Z              3
_symmetry_space_group_name_H-M     'R -3 H'
_symmetry_Int_Tables_number        148
_refine_ls_R_factor_all            .037
loop_
_symmetry_equiv_pos_site_id
_symmetry_equiv_pos_as_xyz
  1	'x-y, x, -z'
  2	'y, -x+y, -z'
  3	'-x, -y, -z'
  4	'-x+y, -x, z'
  5	'-y, x-y, z'
  6	'x, y, z'
  7	'x-y+.6666, x+.3333, -z+.3333'
  8	'x-y+.3333, x+.6666, -z+.6666'
  9	'y+.6666, -x+y+.3333, -z+.3333'
 10	'y+.3333, -x+y+.6666, -z+.6666'
 11	'-x+.6666, -y+.3333, -z+.3333'
 12	'-x+.3333, -y+.6666, -z+.6666'
 13	'-x+y+.6666, -x+.3333, z+.3333'
 14	'-x+y+.3333, -x+.6666, z+.6666'
 15	'-y+.6666, x-y+.3333, z+.3333'
 16	'-y+.3333, x-y+.6666, z+.6666'
 17	'x+.6666, y+.3333, z+.3333'
 18	'x+.3333, y+.6666, z+.6666'
loop_
_atom_type_symbol
_atom_type_oxidation_number
Ca2+	2
Cr3.5+	3.5
H1-	-1
N3-	-3
loop_
_atom_site_label
_atom_site_type_symbol
_atom_site_symmetry_multiplicity
_atom_site_Wyckoff_symbol
_atom_site_fract_x
_atom_site_fract_y
_atom_site_fract_z
_atom_site_occupancy
_atom_site_attached_hydrogens
_atom_site_U_iso_or_equiv
Cr1 Cr3.5+ 6 c 0 0 0.37719(5) 1. 0 0.00293(11) 
Ca1 Ca2+ 18 f 0.05439(4) 0.26823(5) 0.15872(3) 1. 0 0.00530(11) 
N1 N3- 18 f 0.21229(19) 0.16756(19) 0.31966(15) 1. 0 0.0049(2) 
H1 H1- 3 a 0 0 0 1. 0 0.004(7) 

loop_
_atom_site_aniso_label
_atom_site_aniso_type_symbol
_atom_site_aniso_U_11
_atom_site_aniso_U_22
_atom_site_aniso_U_33
_atom_site_aniso_U_12
_atom_site_aniso_U_13
_atom_site_aniso_U_23
Cr1 Cr3.5+ 0.00313(14) 0.00313(14) 0.00255(17) 0.00156(7) 0 0
Ca1 Ca2+ 0.00524(16) 0.00687(16) 0.00416(14) 0.00330(12) 0.00051(9) 
0.00158(9)
N1 N3- 0.0048(6) 0.0056(6) 0.0046(5) 0.0027(5) -0.0001(4) -0.0002(4)
#End of data_281462-ICSD


