data_98845-ICSD
#?2014 by Fachinformationszentrum Karlsruhe, and the U.S. Secretary of 
#Commerce on behalf of the United States.  All rights reserved.
_database_code_ICSD                98845
_audit_creation_date               2005/04/01
_audit_update_record               2007/08/01
_chemical_name_systematic
;
Dilithium Tecto-dialumotetrasilicate
;
_chemical_formula_structural       'Li2 (Al2 Si4 O12)'
_chemical_formula_sum              'Al2 Li2 O12 Si4'
_chemical_name_mineral             'Bikitaite (dehydrated)'
_publ_section_title
;
Dehydration dynamics of bikitaite: part I. In situ synchrotron powder 
X-ray diffraction study
;
loop_
_citation_id
_citation_journal_abbrev
_citation_year
_citation_journal_volume
_citation_page_first
_citation_page_last
_citation_journal_id_ASTM
primary 'American Mineralogist' 2004 89 94 101 AMMIAY
_publ_author_name
;
Ferro, O.;Quartieri, S.;Vezzalini, G.;Ceriani, C.;Fois, E.;Gamba, 
A.;Cruciani, G.
;
_cell_length_a                     8.6274(2)
_cell_length_b                     4.9898(1)
_cell_length_c                     7.5729(2)
_cell_angle_alpha                  89.737(3)
_cell_angle_beta                   114.072(1)
_cell_angle_gamma                  90.169(2)
_cell_volume                       297.65
_cell_formula_units_Z              1
_symmetry_space_group_name_H-M     'P 1'
_symmetry_Int_Tables_number        1
_refine_ls_R_factor_all            .067
loop_
_symmetry_equiv_pos_site_id
_symmetry_equiv_pos_as_xyz
  1	'x, y, z'
loop_
_atom_type_symbol
_atom_type_oxidation_number
Al3+	3
Li1+	1
O2-	-2
Si4+	4
loop_
_atom_site_label
_atom_site_type_symbol
_atom_site_symmetry_multiplicity
_atom_site_Wyckoff_symbol
_atom_site_fract_x
_atom_site_fract_y
_atom_site_fract_z
_atom_site_occupancy
_atom_site_attached_hydrogens
_atom_site_B_iso_or_equiv
Si1 Si4+ 1 a 0.105(3) 0.866(3) 0.090(2) 1. 0 4.5(2) 
Si2 Si4+ 1 a 0.1038 0.8006 0.5049 1. 0 4.5(2) 
Al1 Al3+ 1 a 0.377(2) 0.874(4) 0.931(3) 1. 0 4.1(4) 
Al2 Al3+ 1 a 0.891(3) 0.357(4) 0.895(3) 1. 0 4.1(4) 
Si3 Si4+ 1 a 0.886(2) 0.313(4) 0.494(2) 1. 0 4.5(2) 
Si4 Si4+ 1 a 0.618(2) 0.367(4) 0.068(3) 1. 0 4.5(2) 
O1 O2- 1 a 0.264(3) 0.727(5) 0.055(4) 1. 0 4.3(6) 
O2 O2- 1 a 0.083(3) 0.191(4) 0.039(4) 1. 0 4.3(6) 
O3 O2- 1 a 0.135(4) 0.808(7) 0.310(3) 1. 0 5.0(3) 
O4 O2- 1 a 0.044(3) 0.520(3) 0.559(4) 1. 0 5.0(3) 
O5 O2- 1 a 0.267(3) 0.914(5) 0.687(3) 1. 0 5.0(3) 
O6 O2- 1 a 0.445(3) 0.190(5) 0.018(4) 1. 0 4.3(6) 
O7 O2- 1 a 0.738(3) 0.246(5) 0.972(4) 1. 0 4.6(6) 
O8 O2- 1 a 0.938(3) 0.684(4) 0.972(4) 1. 0 4.6(6) 
O9 O2- 1 a 0.795(3) 0.326(6) 0.644(3) 1. 0 5.0(3) 
O10 O2- 1 a 0.954(3) 0.012(5) 0.479(5) 1. 0 5.0(3) 
O11 O2- 1 a 0.721(3) 0.380(6) 0.299(3) 1. 0 5.0(3) 
O12 O2- 1 a 0.559(3) 0.673(5) 0.997(4) 1. 0 4.6(6) 
Li1 Li1+ 1 a 0.320(4) 0.352(5) 0.167(5) 1. 0 7.2(18) 
Li2 Li1+ 1 a 0.718(4) 0.859(5) 0.911(8) 1. 0 7.2(18) 

#End of data_98845-ICSD


