data_158515-ICSD
#?2014 by Fachinformationszentrum Karlsruhe, and the U.S. Secretary of 
#Commerce on behalf of the United States.  All rights reserved.
_database_code_ICSD                158515
_audit_creation_date               2008/02/01
_chemical_name_systematic          'Zinc Catena-silicate'
_chemical_formula_structural       'Zn (Si O3)'
_chemical_formula_sum              'O3 Si1 Zn1'
_chemical_name_mineral             Unnamed_Clinopyroxene
_publ_section_title
;
Displacive phase transitions in C-centred clinopyroxenes: spodumene, 
Li Sc Si2 O6 and Zn Si O3
;
loop_
_citation_id
_citation_journal_abbrev
_citation_year
_citation_journal_volume
_citation_page_first
_citation_page_last
_citation_journal_id_ASTM
primary 'Physics and Chemistry of Minerals' 2000 27 719 731 PCMIDU
_publ_author_name                  'Arlt, T.;Angel, R.J.'
_cell_length_a                     9.7633(3)
_cell_length_b                     9.1598(5)
_cell_length_c                     5.2889(2)
_cell_angle_alpha                  90.
_cell_angle_beta                   111.294(3)
_cell_angle_gamma                  90.
_cell_volume                       440.69
_cell_formula_units_Z              8
_symmetry_space_group_name_H-M     'C 1 2/c 1'
_symmetry_Int_Tables_number        15
_refine_ls_R_factor_all            .046
loop_
_symmetry_equiv_pos_site_id
_symmetry_equiv_pos_as_xyz
  1	'x, -y, z+.5'
  2	'-x, -y, -z'
  3	'-x, y, -z+.5'
  4	'x, y, z'
  5	'x+.5, -y+.5, z+.5'
  6	'-x+.5, -y+.5, -z'
  7	'-x+.5, y+.5, -z+.5'
  8	'x+.5, y+.5, z'
loop_
_atom_type_symbol
_atom_type_oxidation_number
O2-	-2
Si4+	4
Zn2+	2
loop_
_atom_site_label
_atom_site_type_symbol
_atom_site_symmetry_multiplicity
_atom_site_Wyckoff_symbol
_atom_site_fract_x
_atom_site_fract_y
_atom_site_fract_z
_atom_site_occupancy
_atom_site_attached_hydrogens
_atom_site_B_iso_or_equiv
Zn1 Zn2+ 4 e 0.5 0.3930(2) 0.250 1. 0 0.36(3) 
Zn2 Zn2+ 4 e 0 0.2364(3) 0.250 1. 0 0.38(4) 
Si1 Si4+ 8 f 0.3025(3) 0.0855(3) 0.2668(55) 1. 0 0.14(5) 
O1 O2- 8 f 0.1227(10) 0.0863(9) 0.1428(14) 1. 0 0.57(12) 
O2 O2- 8 f 0.3802(9) 0.2393(8) 0.3732(13) 1. 0 0.39(11) 
O3 O2- 8 f 0.3543(9) 0.0259(8) 0.0244(13) 1. 0 0.41(11) 

#End of data_158515-ICSD


