data_419858-ICSD
#?2014 by Fachinformationszentrum Karlsruhe, and the U.S. Secretary of 
#Commerce on behalf of the United States.  All rights reserved.
_database_code_ICSD                419858
_audit_creation_date               2011/02/01
_chemical_name_systematic
;
Samarium Potassium Sodium Tantalate
;
_chemical_formula_structural       'Sm K Na Ta O5'
_chemical_formula_sum              'K1 Na1 O5 Sm1 Ta1'
_publ_section_title
;
Crystal growth of a new series of layered tantalates Ln K Na Ta O5 
(Ln: La, Pr, Nd, Sm, Gd)
;
loop_
_citation_id
_citation_journal_abbrev
_citation_year
_citation_journal_volume
_citation_journal_issue
_citation_page_first
_citation_page_last
_citation_journal_id_ASTM
primary 'Solid State Sciences' 2010 12 5 759 764 SSSCFJ
_publ_author_name
;
Roof, I.P.;Smith, M.D.;zur Loye, H.C.
;
_cell_length_a                     5.70350(10)
_cell_length_b                     5.70350(10)
_cell_length_c                     8.2313(2)
_cell_angle_alpha                  90.00
_cell_angle_beta                   90.00
_cell_angle_gamma                  90.00
_cell_volume                       267.76
_cell_formula_units_Z              2
_symmetry_space_group_name_H-M     'P 4/n m m Z'
_symmetry_Int_Tables_number        129
_refine_ls_R_factor_all            .0168
loop_
_symmetry_equiv_pos_site_id
_symmetry_equiv_pos_as_xyz
  1	'y+.5, x+.5, -z'
  2	'-y, x+.5, -z'
  3	'y+.5, -x, -z'
  4	'-y, -x, -z'
  5	'x+.5, y+.5, -z'
  6	'-x, y+.5, -z'
  7	'x+.5, -y, -z'
  8	'-x, -y, -z'
  9	'-y+.5, -x+.5, z'
 10	'y, -x+.5, z'
 11	'-y+.5, x, z'
 12	'y, x, z'
 13	'-x+.5, -y+.5, z'
 14	'x, -y+.5, z'
 15	'-x+.5, y, z'
 16	'x, y, z'
loop_
_atom_type_symbol
_atom_type_oxidation_number
K1+	1
Na1+	1
O2-	-2
Sm3+	3
Ta5+	5
loop_
_atom_site_label
_atom_site_type_symbol
_atom_site_symmetry_multiplicity
_atom_site_Wyckoff_symbol
_atom_site_fract_x
_atom_site_fract_y
_atom_site_fract_z
_atom_site_occupancy
_atom_site_attached_hydrogens
_atom_site_U_iso_or_equiv
Ta1 Ta5+ 2 c 0.2500 0.2500 0.25972(2) 1 0 0.00797(7) 
Sm1 Sm3+ 2 b 0.7500 0.2500 0.5000 1 0 0.00893(7) 
K1 K1+ 2 a 0.7500 0.2500 0.0000 1 0 0.0249(3) 
Na1 Na1+ 2 c 0.2500 0.2500 0.7595(3) 1 0 0.0103(4) 
O1 O2- 8 j 0.0193(2) 0.0193(2) 0.3305(3) 1 0 0.0126(3) 
O2 O2- 2 c 0.2500 0.2500 0.0363(5) 1 0 0.0175(8) 

loop_
_atom_site_aniso_label
_atom_site_aniso_type_symbol
_atom_site_aniso_U_11
_atom_site_aniso_U_22
_atom_site_aniso_U_33
_atom_site_aniso_U_12
_atom_site_aniso_U_13
_atom_site_aniso_U_23
Ta1 Ta5+ 0.00786(7) 0.00786(7) 0.00818(10) 0.000 0.000 0.000
Sm1 Sm3+ 0.00803(8) 0.00803(8) 0.01073(13) 0.000 0.000 0.000
K1 K1+ 0.0176(4) 0.0176(4) 0.0396(10) 0.000 0.000 0.000
Na1 Na1+ 0.0095(6) 0.0095(6) 0.0119(11) 0.000 0.000 0.000
O1 O2- 0.0106(5) 0.0106(5) 0.0166(9) -0.0005(6) 0.0002(5) 0.0002(5)
O2 O2- 0.0212(12) 0.0212(12) 0.0100(18) 0.000 0.000 0.000
#End of data_419858-ICSD


