data_65763-ICSD
#?2014 by Fachinformationszentrum Karlsruhe, and the U.S. Secretary of 
#Commerce on behalf of the United States.  All rights reserved.
_database_code_ICSD                65763
_audit_creation_date               1990/06/08
_audit_update_record               2010/02/01
_chemical_name_systematic          'Pentacalcium Fluoride Tris(borate)'
_chemical_formula_structural       'Ca5 F (B O3)3'
_chemical_formula_sum              'B3 Ca5 F1 O9'
_publ_section_title
;
Structure of calcium fluoroborate, Ca5 (B O3)3 F
;
loop_
_citation_id
_citation_journal_abbrev
_citation_year
_citation_journal_volume
_citation_page_first
_citation_page_last
_citation_journal_id_ASTM
primary 'Acta Crystallographica, Section C: Crystal Structure Communications'
 1989 45 1861 1863 ACSCEE
_publ_author_name
;
Lei, S.;Huang, Q.;Zheng, Y.;Jiang, A.;Chen, C.
;
_cell_length_a                     8.129(3)
_cell_length_b                     16.051(5)
_cell_length_c                     3.5390(4)
_cell_angle_alpha                  90.
_cell_angle_beta                   100.94(6)
_cell_angle_gamma                  90.
_cell_volume                       453.37
_cell_formula_units_Z              2
_symmetry_space_group_name_H-M     'C 1 m 1'
_symmetry_Int_Tables_number        8
_refine_ls_R_factor_all            .038
loop_
_symmetry_equiv_pos_site_id
_symmetry_equiv_pos_as_xyz
  1	'x, -y, z'
  2	'x, y, z'
  3	'x+.5, -y+.5, z'
  4	'x+.5, y+.5, z'
loop_
_atom_type_symbol
_atom_type_oxidation_number
B3+	3
Ca2+	2
F1-	-1
O2-	-2
loop_
_atom_site_label
_atom_site_type_symbol
_atom_site_symmetry_multiplicity
_atom_site_Wyckoff_symbol
_atom_site_fract_x
_atom_site_fract_y
_atom_site_fract_z
_atom_site_occupancy
_atom_site_attached_hydrogens
Ca1 Ca2+ 4 b 0.6691 0.11750(8) 0.7352 1. 0 
Ca2 Ca2+ 4 b 0.0473(2) 0.1782(1) 0.3973(5) 1. 0 
Ca3 Ca2+ 2 a 0.2816(3) 0 0.0310(7) 1. 0 
F1 F1- 2 a 0.4864(8) 0 -.357(2) 1. 0 
O1 O2- 4 b 0.8376(7) 0.0737(3) 0.309(2) 1. 0 
O2 O2- 4 b 0.0186(6) 0.3278(4) 0.188(2) 1. 0 
O3 O2- 2 a 0.099(1) 0 0.450(2) 1. 0 
O4 O2- 4 b 0.8457(7) 0.2293(3) 0.796(2) 1. 0 
O5 O2- 4 b 0.2250(6) 0.1439(3) -.024(2) 1. 0 
B1 B3+ 4 b 0.8616(9) 0.3043(5) -.016(2) 1. 0 
B2 B3+ 2 a 0.926(1) 0 0.357(3) 1. 0 

loop_
_atom_site_aniso_label
_atom_site_aniso_type_symbol
_atom_site_aniso_B_11
_atom_site_aniso_B_22
_atom_site_aniso_B_33
_atom_site_aniso_B_12
_atom_site_aniso_B_13
_atom_site_aniso_B_23
Ca1 Ca2+ 0.53(3) 0.31(3) 0.60(4) -.04(4) 0.08(3) 0.04(4)
Ca2 Ca2+ 0.67(4) 0.95(4) 0.57(4) 0.18(4) 0.15(3) 0.12(4)
Ca3 Ca2+ 0.42(5) 0.57(6) 0.54(6) 0 0.04(5) 0
F1 F1- 0.8(2) 0.4(2) 1.1(2) 0 0.2(2) 0
O1 O2- 1.5(2) 0.4(1) 1.0(2) 0.7(1) 0.1(2) 0.3(2)
O2 O2- 0.5(1) 0.4(2) 0.9(2) -.4(1) 0.0(1) -.1(2)
O3 O2- 0.4(2) 2.8(4) 0.7(3) 0 0.2(2) 0
O4 O2- 1.4(2) 0.5(2) 1.1(2) -.2(2) 0.4(2) -.3(2)
O5 O2- 0.6(1) 0.8(2) 0.8(2) -.3(1) 0.1(1) -.2(2)
B1 B3+ 0.5(2) 0.6(2) 0.4(2) -.1(2) 0.0(2) 0.1(2)
B2 B3+ 0.4(8) 0.2(3) 0.5(3) 0 -.1(3) 0
#End of data_65763-ICSD


