data_84303-ICSD
#?2014 by Fachinformationszentrum Karlsruhe, and the U.S. Secretary of 
#Commerce on behalf of the United States.  All rights reserved.
_database_code_ICSD                84303
_audit_creation_date               1999/01/19
_chemical_name_systematic
;
Dipotassium Catena-tetraselenocuprovanadate
;
_chemical_formula_structural       'K2 (Cu V Se4)'
_chemical_formula_sum              'Cu1 K2 Se4 V1'
_publ_section_title
;
Synthesis, crystal structures and optical properties of new 
quaternary chalcogenides of Va-metals: Rb2 Cu V S4, K2 Cu V Se4, Rb2 
Cu Nb Se4, Cs2 Cu Nb Se4 and Rb2 Cu Nb S4
;
loop_
_citation_id
_citation_journal_abbrev
_citation_year
_citation_journal_volume
_citation_page_first
_citation_page_last
_citation_journal_id_ASTM
primary 'European Journal of Solid State Inorganic Chemistry'
 1997 34 1187 1198 EJSCE5
_publ_author_name
;
Rumpf, C.;Tillinski, R.;Naether, C.;Duerichen, P.;Jess, I.;Bensch, W.
;
_cell_length_a                     5.6312(9)
_cell_length_b                     13.264(2)
_cell_length_c                     23.4680(30)
_cell_angle_alpha                  90.
_cell_angle_beta                   90.
_cell_angle_gamma                  90.
_cell_volume                       1752.88
_cell_formula_units_Z              8
_symmetry_space_group_name_H-M     'F d d d Z'
_symmetry_Int_Tables_number        70
_refine_ls_R_factor_all            .018
loop_
_symmetry_equiv_pos_site_id
_symmetry_equiv_pos_as_xyz
  1	'x+.75, y+.75, -z'
  2	'x+.75, -y, z+.75'
  3	'-x, y+.75, z+.75'
  4	'-x, -y, -z'
  5	'-x+.25, -y+.25, z'
  6	'-x+.25, y, -z+.25'
  7	'x, -y+.25, -z+.25'
  8	'x, y, z'
  9	'x+.75, y+.25, -z+.5'
 10	'x+.25, y+.75, -z+.5'
 11	'x+.25, y+.25, -z'
 12	'x+.75, -y+.5, z+.25'
 13	'x+.25, -y, z+.25'
 14	'x+.25, -y+.5, z+.75'
 15	'-x, y+.25, z+.25'
 16	'-x+.5, y+.75, z+.25'
 17	'-x+.5, y+.25, z+.75'
 18	'-x, -y+.5, -z+.5'
 19	'-x+.5, -y, -z+.5'
 20	'-x+.5, -y+.5, -z'
 21	'-x+.25, -y+.75, z+.5'
 22	'-x+.75, -y+.25, z+.5'
 23	'-x+.75, -y+.75, z'
 24	'-x+.25, y+.5, -z+.75'
 25	'-x+.75, y, -z+.75'
 26	'-x+.75, y+.5, -z+.25'
 27	'x, -y+.75, -z+.75'
 28	'x+.5, -y+.25, -z+.75'
 29	'x+.5, -y+.75, -z+.25'
 30	'x, y+.5, z+.5'
 31	'x+.5, y, z+.5'
 32	'x+.5, y+.5, z'
loop_
_atom_type_symbol
_atom_type_oxidation_number
Cu1+	1
K1+	1
Se2-	-2
V5+	5
loop_
_atom_site_label
_atom_site_type_symbol
_atom_site_symmetry_multiplicity
_atom_site_Wyckoff_symbol
_atom_site_fract_x
_atom_site_fract_y
_atom_site_fract_z
_atom_site_occupancy
_atom_site_attached_hydrogens
_atom_site_U_iso_or_equiv
K1 K1+ 16 g 0.375 0.375 0.0550(1) 1. 0 0.031(1) 
Cu1 Cu1+ 8 b 0.125 0.625 0.125 1. 0 0.024(1) 
V1 V5+ 8 a 0.625 0.625 0.125 1. 0 0.015(1) 
Se1 Se2- 32 h 0.8576(1) 0.5239(1) 0.0681(1) 1. 0 0.023(1) 

#End of data_84303-ICSD


