data_99687-ICSD
#?2014 by Fachinformationszentrum Karlsruhe, and the U.S. Secretary of 
#Commerce on behalf of the United States.  All rights reserved.
_database_code_ICSD                99687
_audit_creation_date               2005/04/01
_chemical_name_systematic
;
Tetrapotassium Dieuropium Decatantalate
;
_chemical_formula_structural       'K4 Eu2 (Ta10 O30)'
_chemical_formula_sum              'Eu2 K4 O30 Ta10'
_publ_section_title
;
Luminescent and structural properties of the series Ba6-x Eux Ti2+x 
Ta8-x O30 and Ba4-y Ky Eu2 Ti4-y Ta6+y O30
;
loop_
_citation_id
_citation_journal_abbrev
_citation_year
_citation_journal_volume
_citation_page_first
_citation_page_last
_citation_journal_id_ASTM
primary 'Journal of Solid State Chemistry' 2004 177 875 882 JSSCBI
_publ_author_name
;
Li Guo Bao;Lei Cheng;Liao Fuhui;Tian Shujian;Jing Xiping;Lin Jian Hua
;
_cell_length_a                     12.5006(1)
_cell_length_b                     12.5006(1)
_cell_length_c                     3.8742(1)
_cell_angle_alpha                  90
_cell_angle_beta                   90
_cell_angle_gamma                  90
_cell_volume                       605.4
_cell_formula_units_Z              1
_symmetry_space_group_name_H-M     'P 4/m b m'
_symmetry_Int_Tables_number        127
_refine_ls_R_factor_all            .06
loop_
_symmetry_equiv_pos_site_id
_symmetry_equiv_pos_as_xyz
  1	'y+.5, x+.5, -z'
  2	'-y+.5, -x+.5, -z'
  3	'-y, x, -z'
  4	'y, -x, -z'
  5	'x+.5, -y+.5, -z'
  6	'-x+.5, y+.5, -z'
  7	'x, y, -z'
  8	'-x, -y, -z'
  9	'-y+.5, -x+.5, z'
 10	'y+.5, x+.5, z'
 11	'y, -x, z'
 12	'-y, x, z'
 13	'-x+.5, y+.5, z'
 14	'x+.5, -y+.5, z'
 15	'-x, -y, z'
 16	'x, y, z'
loop_
_atom_type_symbol
_atom_type_oxidation_number
Eu3+	3
K1+	1
O2-	-2
Ta5+	5
loop_
_atom_site_label
_atom_site_type_symbol
_atom_site_symmetry_multiplicity
_atom_site_Wyckoff_symbol
_atom_site_fract_x
_atom_site_fract_y
_atom_site_fract_z
_atom_site_occupancy
_atom_site_attached_hydrogens
Eu1 Eu3+ 2 a 0 0 0 1. 0 
K1 K1+ 4 g 0.1698(1) 0.6698(1) 0 1. 0 
Ta1 Ta5+ 2 c 0 0.5 0.5 1. 0 
Ta2 Ta5+ 8 j 0.0758(1) 0.2140(1) 0.5 1. 0 
O1 O2- 2 d 0 0.5 0 1. 0 
O2 O2- 4 h 0.2808(1) 0.7808(1) 0.5 1. 0 
O3 O2- 8 i 0.0735(1) 0.1979(1) 0 1. 0 
O4 O2- 8 j 0.3463(1) 0.0051(1) 0.5 1. 0 
O5 O2- 8 j 0.1395(1) 0.0633(1) 0.5 1. 0 

#End of data_99687-ICSD


