data_241137-ICSD
#?2014 by Fachinformationszentrum Karlsruhe, and the U.S. Secretary of 
#Commerce on behalf of the United States.  All rights reserved.
_database_code_ICSD                241137
_audit_creation_date               2008/08/01
_chemical_name_systematic
;
Tripotassium Digallium Triphosphate
;
_chemical_formula_structural       'K3 Ga2 (P O4)3'
_chemical_formula_sum              'Ga2 K3 O12 P3'
_publ_section_title                'K3 Ga2 (P O4)3 and Na3 Ga (P O4)2'
loop_
_citation_id
_citation_journal_abbrev
_citation_year
_citation_journal_volume
_citation_journal_issue
_citation_page_first
_citation_page_last
_citation_journal_id_ASTM
primary 'Acta Crystallographica, Section C: Crystal Structure Communications'
 2008 64 1 i5 i8 ACSCEE
_publ_author_name
;
Beaurain, M.;Astier, R.;van der Lee, A.;Armand, P.
;
_cell_length_a                     8.67110(15)
_cell_length_b                     17.0109(3)
_cell_length_c                     8.38857(16)
_cell_angle_alpha                  90
_cell_angle_beta                   90
_cell_angle_gamma                  90
_cell_volume                       1237.34
_cell_formula_units_Z              4
_symmetry_space_group_name_H-M     'P n a 21'
_symmetry_Int_Tables_number        33
_refine_ls_R_factor_all            .0344
loop_
_symmetry_equiv_pos_site_id
_symmetry_equiv_pos_as_xyz
  1	'x+.5, -y+.5, z'
  2	'-x+.5, y+.5, z+.5'
  3	'-x, -y, z+.5'
  4	'x, y, z'
loop_
_atom_type_symbol
_atom_type_oxidation_number
Ga3+	3
K1+	1
O2-	-2
P5+	5
loop_
_atom_site_label
_atom_site_type_symbol
_atom_site_symmetry_multiplicity
_atom_site_Wyckoff_symbol
_atom_site_fract_x
_atom_site_fract_y
_atom_site_fract_z
_atom_site_occupancy
_atom_site_attached_hydrogens
_atom_site_U_iso_or_equiv
P1 P5+ 4 a 0.15194(16) 0.71520(9) 1.28804(18) 1.0000 0 0.0072 
P2 P5+ 4 a 0.29802(17) 0.81310(9) 0.79667(18) 1.0000 0 0.0087 
P3 P5+ 4 a 0.26191(18) 0.50328(10) 0.86661(19) 1.0000 0 0.0107 
K1 K1+ 4 a 0.45271(15) 0.64660(8) 0.59513(16) 1.0000 0 0.0126 
K2 K1+ 4 a 0.00977(15) 0.90013(8) 1.12307(16) 1.0000 0 0.0142 
K3 K1+ 4 a 0.18095(18) 0.51039(8) 0.39470(18) 1.0000 0 0.0212 
Ga1 Ga3+ 4 a 0.13278(6) 0.66831(3) 0.94007(10) 1.0000 0 0.0080 
Ga2 Ga3+ 4 a 0.34700(6) 0.84139(3) 1.42835(10) 1.0000 0 0.0079 
O1 O2- 4 a 0.2085(5) 0.8010(2) 1.2861(5) 1.0000 0 0.0103 
O2 O2- 4 a 0.0312(4) 0.7091(2) 1.4225(5) 1.0000 0 0.0126 
O3 O2- 4 a 0.2809(5) 0.6573(3) 1.3087(5) 1.0000 0 0.0148 
O4 O2- 4 a 0.0625(4) 0.7052(3) 1.1300(5) 1.0000 0 0.0114 
O5 O2- 4 a 0.1859(6) 0.8666(3) 0.8761(6) 1.0000 0 0.0226 
O6 O2- 4 a 0.2647(5) 0.8088(3) 0.6167(5) 1.0000 0 0.0218 
O7 O2- 4 a 0.2904(5) 0.7266(2) 0.8591(5) 1.0000 0 0.0164 
O8 O2- 4 a 0.4661(5) 0.8404(3) 0.8104(5) 1.0000 0 0.0228 
O9 O2- 4 a 0.2189(5) 0.5732(3) 0.9791(5) 1.0000 0 0.0143 
O10 O2- 4 a 0.4055(5) 0.4651(2) 0.9277(6) 1.0000 0 0.0161 
O11 O2- 4 a 0.1208(5) 0.4443(2) 0.8917(5) 1.0000 0 0.0169 
O12 O2- 4 a 0.2674(5) 0.5301(3) 0.6966(5) 1.0000 0 0.0156 

loop_
_atom_site_aniso_label
_atom_site_aniso_type_symbol
_atom_site_aniso_U_11
_atom_site_aniso_U_22
_atom_site_aniso_U_33
_atom_site_aniso_U_12
_atom_site_aniso_U_13
_atom_site_aniso_U_23
P1 P5+ 0.0075(6) 0.0074(6) 0.0068(6) -0.0014(6) 0.0001(6) -0.0001(5)
P2 P5+ 0.0107(7) 0.0093(7) 0.0061(6) 0.0000(6) 0.0011(6) 0.0004(6)
P3 P5+ 0.0142(7) 0.0060(7) 0.0120(6) -0.0003(6) -0.0010(6) 0.0003(6)
K1 K1+ 0.0117(6) 0.0108(6) 0.0154(6) 0.0003(5) 0.0008(5) 0.0001(5)
K2 K1+ 0.0119(6) 0.0192(7) 0.0115(5) 0.0002(6) -0.0004(5) 0.0016(5)
K3 K1+ 0.0227(7) 0.0143(7) 0.0266(8) 0.0019(6) -0.0056(5) -0.0007(6)
Ga1 Ga3+ 0.0083(3) 0.0081(3) 0.0076(3) 0.0012(2) -0.0007(3) -0.0005(3)
Ga2 Ga3+ 0.0071(2) 0.0092(3) 0.0073(3) 0.0001(2) 0.0003(3) 0.0004(3)
O1 O2- 0.0125(19) 0.0055(19) 0.0129(18) -0.0025(17) -0.0041(18) 0.0024(17)
O2 O2- 0.0131(18) 0.0157(19) 0.0090(18) -0.0051(16) 0.0009(19) -0.0029(19)
O3 O2- 0.018(2) 0.012(2) 0.015(2) 0.0042(18) -0.0009(18) 0.0003(19)
O4 O2- 0.0090(18) 0.016(2) 0.0094(18) 0.0018(17) 0.0001(16) -0.0056(16)
O5 O2- 0.026(3) 0.015(2) 0.027(2) 0.003(2) 0.016(2) 0.003(2)
O6 O2- 0.016(2) 0.039(3) 0.0099(18) -0.005(2) 0.0018(19) 0.004(2)
O7 O2- 0.019(2) 0.010(2) 0.020(2) -0.005(2) 0.0024(19) -0.0004(17)
O8 O2- 0.020(2) 0.035(3) 0.014(2) -0.006(2) -0.0088(19) 0.009(2)
O9 O2- 0.023(2) 0.007(2) 0.0126(19) 0.0040(19) -0.0056(18) -0.0038(15)
O10 O2- 0.0168(19) 0.0145(19) 0.017(2) 0.0040(16) -0.005(2) -0.004(2)
O11 O2- 0.017(2) 0.0068(19) 0.027(3) -0.0003(17) 0.0070(18) 0.0053(17)
O12 O2- 0.017(2) 0.018(2) 0.013(2) -0.0022(19) 0.0020(18) 0.0006(18)
#End of data_241137-ICSD


