data_4343-ICSD
#?2014 by Fachinformationszentrum Karlsruhe, and the U.S. Secretary of 
#Commerce on behalf of the United States.  All rights reserved.
_database_code_ICSD                4343
_audit_creation_date               1980/01/01
_audit_update_record               2012/08/01
_chemical_name_systematic
;
Iron Dicalcium Hydroxopentadecaoxoborodialumotetrasilicate
;
_chemical_formula_structural       'Fe Ca2 (Al2 B Si4 O15 (O H))'
_chemical_formula_sum              'H1 Al2 B1 Ca2 Fe1 O16 Si4'
_chemical_name_mineral             Axinite-(Fe)
_publ_section_title
;
The B2 Si8 O30 groups of tetrahedra in axinite and comments on the 
deformation of Si tetrahedra in silicates
;
loop_
_citation_id
_citation_journal_abbrev
_citation_year
_citation_journal_volume
_citation_page_first
_citation_page_last
_citation_journal_id_ASTM
primary
;
Zeitschrift fuer Kristallographie, Kristallgeometrie, Kristallphysik, 
Kristallchemie (-144,1977)
;
 1974 140 289 312 ZEKGAX
2 'Proceedings of the Japan Academy' 1969 45 490 494 PJACAW
3
;
Zeitschrift fuer Kristallographie, Kristallgeometrie, Kristallphysik, 
Kristallchemie (-144,1977)
;
 1975 141 471 472 ZEKGAX
_publ_author_name
;
Takeuchi, Y.;Ozawa, T.;Ito, T.;Araki, T.;Zoltai, T.;Finney, J.J.
;
_cell_length_a                     7.1566(15)
_cell_length_b                     9.1995(20)
_cell_length_c                     8.959(2)
_cell_angle_alpha                  91.8(8)
_cell_angle_beta                   98.14(2)
_cell_angle_gamma                  77.30(2)
_cell_volume                       569.61
_cell_formula_units_Z              2
_symmetry_space_group_name_H-M     'P -1'
_symmetry_Int_Tables_number        2
_refine_ls_R_factor_all            .042
loop_
_symmetry_equiv_pos_site_id
_symmetry_equiv_pos_as_xyz
  1	'-x, -y, -z'
  2	'x, y, z'
loop_
_atom_type_symbol
_atom_type_oxidation_number
Al3+	3
B3+	3
Ca2+	2
Fe2+	2
H1+	1
O2-	-2
Si4+	4
loop_
_atom_site_label
_atom_site_type_symbol
_atom_site_symmetry_multiplicity
_atom_site_Wyckoff_symbol
_atom_site_fract_x
_atom_site_fract_y
_atom_site_fract_z
_atom_site_occupancy
_atom_site_attached_hydrogens
Fe1 Fe2+ 2 i 0.7687(5) 0.5904(5) 0.1120(5) 1. 0 
Ca1 Ca2+ 2 i 0.7465(6) 0.3480(6) 0.3956(6) 1. 0 
Ca2 Ca2+ 2 i 0.1831(6) 0.1006(6) 0.0837(6) 1. 0 
Al1 Al3+ 2 i 0.0529(9) 0.8009(9) 0.2543(9) 1. 0 
Al2 Al3+ 2 i 0.3520(9) 0.9362(9) 0.4212(9) 1. 0 
Si1 Si4+ 2 i 0.2120(8) 0.4502(8) 0.2356(8) 1. 0 
Si2 Si4+ 2 i 0.2189(8) 0.2748(8) 0.5242(8) 1. 0 
Si3 Si4+ 2 i 0.6995(8) 0.2553(8) 0.0112(8) 1. 0 
Si4 Si4+ 2 i 0.6413(8) 0.0189(8) 0.2304(8) 1. 0 
B1 B3+ 2 i 0.4619(33) 0.6346(31) 0.2860(31) 1. 0 
O1 O2- 2 i 0.0564(23) 0.6033(22) 0.1897(22) 1. 0 
O2 O2- 2 i 0.2333(24) 0.3386(23) 0.0982(22) 1. 0 
O3 O2- 2 i 0.4202(23) 0.4864(22) 0.3135(22) 1. 0 
O4 O2- 2 i 0.1357(24) 0.3739(25) 0.3713(23) 1. 0 
O5 O2- 2 i 0.0218(22) 0.2419(23) 0.5638(22) 1. 0 
O6 O2- 2 i 0.3261(22) 0.3791(22) 0.6455(22) 1. 0 
O7 O2- 2 i 0.3802(22) 0.1274(21) 0.4956(22) 1. 0 
O8 O2- 2 i 0.5371(23) 0.3433(23) 0.8773(21) 1. 0 
O9 O2- 2 i 0.8759(22) 0.1543(22) 0.9334(21) 1. 0 
O10 O2- 2 i 0.7693(25) 0.3655(24) 0.1394(23) 1. 0 
O11 O2- 2 i 0.6037(24) 0.1348(24) 0.0863(23) 1. 0 
O12 O2- 2 i 0.4359(22) 0.9817(22) 0.2442(22) 1. 0 
O13 O2- 2 i 0.7204(23) 0.0998(22) 0.3842(22) 1. 0 
O14 O2- 2 i 0.7943(22) 0.8735(23) 0.1783(23) 1. 0 
O15 O2- 2 i 0.3256(22) 0.7464(21) 0.3545(21) 1. 0 
O16 O2- 2 i 0.0968(21) 0.9954(22) 0.3232(21) 1. 0 
H1 H1+ 2 i 0.002(67) 0.970(67) 0.626(67) 1. 0 

#End of data_4343-ICSD


