data_50281-ICSD
#?2014 by Fachinformationszentrum Karlsruhe, and the U.S. Secretary of 
#Commerce on behalf of the United States.  All rights reserved.
_database_code_ICSD                50281
_audit_creation_date               1999/06/02
_audit_update_record               2012/08/01
_chemical_name_systematic          'Calcium Titanium Silicate Oxide'
_chemical_formula_structural       'Ca Ti (Si O4) O'
_chemical_formula_sum              'Ca1 O5 Si1 Ti1'
_chemical_name_mineral             Titanite
_publ_section_title
;
The two-step phase transition of titanate, Ca Ti Si O5: a synchroton 
radiation study
;
loop_
_citation_id
_citation_journal_abbrev
_citation_year
_citation_journal_volume
_citation_page_first
_citation_page_last
_citation_journal_id_ASTM
primary 'Zeitschrift fuer Kristallographie (1979-2010)' 1997 212 9 19 ZEKRDZ
2 'Golden Book of Phase Transitions, Wroclaw' 2002 1 1 123 GBOPT5
_publ_author_name
;
Kek, S.;Aroyo, M.;Bismayer, U.;Schmidt, C.;Eichhorn, K.D.;Krane, H.G.
;
_cell_length_a                     7.0697(3)
_cell_length_b                     8.7223(4)
_cell_length_c                     6.5654(4)
_cell_angle_alpha                  90.
_cell_angle_beta                   113.853(4)
_cell_angle_gamma                  90.
_cell_volume                       370.27
_cell_formula_units_Z              4
_symmetry_space_group_name_H-M     'P 1 21/a 1'
_symmetry_Int_Tables_number        14
_refine_ls_R_factor_all            .027
loop_
_symmetry_equiv_pos_site_id
_symmetry_equiv_pos_as_xyz
  1	'x+.5, -y+.5, z'
  2	'-x, -y, -z'
  3	'-x+.5, y+.5, -z'
  4	'x, y, z'
loop_
_atom_type_symbol
_atom_type_oxidation_number
Ca2+	2
O2-	-2
Si4+	4
Ti4+	4
loop_
_atom_site_label
_atom_site_type_symbol
_atom_site_symmetry_multiplicity
_atom_site_Wyckoff_symbol
_atom_site_fract_x
_atom_site_fract_y
_atom_site_fract_z
_atom_site_occupancy
_atom_site_attached_hydrogens
Ca1 Ca2+ 4 e 0.24136(5) 0.41845(4) 0.25121(1) 1. 0 
Ti1 Ti4+ 4 e 0.51481(6) 0.25444(2) 0.74945(1) 1. 0 
Si1 Si4+ 4 e 0.74806(4) 0.43293(5) 0.24881(2) 1. 0 
O1 O2- 4 e 0.74940(6) 0.32080(8) 0.74950(5) 1. 0 
O2 O2- 4 e 0.91054(10) 0.31627(6) 0.4346(1) 1. 0 
O3 O2- 4 e 0.08692(9) 0.18418(6) 0.06300(11) 1. 0 
O4 O2- 4 e 0.38378(12) 0.46085(6) 0.64690(11) 1. 0 
O5 O2- 4 e 0.61856(12) 0.04020(6) 0.85343(11) 1. 0 

loop_
_atom_site_aniso_label
_atom_site_aniso_type_symbol
_atom_site_aniso_U_11
_atom_site_aniso_U_22
_atom_site_aniso_U_33
_atom_site_aniso_U_12
_atom_site_aniso_U_13
_atom_site_aniso_U_23
Ca1 Ca2+ 0.0183(3) 0.0055(3) 0.0063(3) -0.0006(1) -0.0008(2) -0.0001(1)
Ti1 Ti4+ 0.0035(3) 0.0045(3) 0.0041(3) -0.0001(1) 0.0010(2) 0.0000(1)
Si1 Si4+ 0.0021(3) 0.0024(3) 0.0018(3) 0.0001(1) 0.0007(2) -0.0001(1)
O1 O2- 0.0062(5) 0.0054(5) 0.0109(5) 0.0000(2) 0.0046(4) 0.0004(1)
O2 O2- 0.0084(5) 0.0066(5) 0.0066(5) 0.0072(2) 0.0016(3) 0.0011(2)
O3 O2- 0.0085(5) 0.0071(5) 0.0063(5) 0.0009(2) 0.0024(3) 0.0006(2)
O4 O2- 0.0080(5) 0.0070(5) 0.0069(4) 0.0019(2) 0.0040(3) 0.0012(2)
O5 O2- 0.0079(5) 0.0072(5) 0.0069(4) 0.0015(2) 0.0039(3) 0.0012(1)
#End of data_50281-ICSD


