data_83536-ICSD
#?2014 by Fachinformationszentrum Karlsruhe, and the U.S. Secretary of 
#Commerce on behalf of the United States.  All rights reserved.
_database_code_ICSD                83536
_audit_creation_date               1998/06/26
_chemical_name_systematic          'Potassium Tecto-alumotrisilicate'
_chemical_formula_structural       'K (Al Si3 O8)'
_chemical_formula_sum              'Al1 K1 O8 Si3'
_chemical_name_mineral             'Microcline (ordered)'
_publ_section_title
;
A high-pressure structural study of microcline (K Al Si3 O8) to 7 GPa
;
loop_
_citation_id
_citation_journal_abbrev
_citation_year
_citation_journal_volume
_citation_page_first
_citation_page_last
_citation_journal_id_ASTM
primary 'European Journal of Mineralogy' 1997 9 263 275 EJMIER
_publ_author_name                  'Allan, D.R.;Angel, R.J.'
_cell_length_a                     8.0764(12)
_cell_length_b                     12.8471(15)
_cell_length_c                     6.9991(8)
_cell_angle_alpha                  90.548(16)
_cell_angle_beta                   116.830(9)
_cell_angle_gamma                  87.903(19)
_cell_volume                       647.58
_cell_formula_units_Z              4
_symmetry_space_group_name_H-M     'C -1'
_symmetry_Int_Tables_number        2
_refine_ls_R_factor_all            .084
loop_
_symmetry_equiv_pos_site_id
_symmetry_equiv_pos_as_xyz
  1	'-x, -y, -z'
  2	'x, y, z'
  3	'-x+.5, -y+.5, -z'
  4	'x+.5, y+.5, z'
loop_
_atom_type_symbol
_atom_type_oxidation_number
Al3+	3
K1+	1
O2-	-2
Si4+	4
loop_
_atom_site_label
_atom_site_type_symbol
_atom_site_symmetry_multiplicity
_atom_site_Wyckoff_symbol
_atom_site_fract_x
_atom_site_fract_y
_atom_site_fract_z
_atom_site_occupancy
_atom_site_attached_hydrogens
_atom_site_B_iso_or_equiv
K1 K1+ 4 i 0.2586(5) -.0035(8) 0.1437(5) 1. 0 1.85(10) 
Al1 Al3+ 4 i -.0129(7) 0.1911(11) 0.2134(7) 1. 0 1.26(9) 
Si2 Si4+ 4 i -.0117(7) 0.8185(12) 0.2292(7) 1. 0 1.48(8) 
Si3 Si4+ 4 i 0.6912(6) 0.1199(10) 0.3357(6) 1. 0 1.36(8) 
Si4 Si4+ 4 i 0.6856(6) 0.8866(11) 0.3476(6) 1. 0 1.36(8) 
O1 O2- 4 i 0.0004(15) 0.1529(23) -.0145(15) 1. 0 1.60(19) 
O2 O2- 4 i 0.6064(19) 0.0057(29) 0.2901(18) 1. 0 2.36(24) 
O3 O2- 4 i 0.7819(16) 0.1491(23) 0.1827(16) 1. 0 1.78(21) 
O4 O2- 4 i 0.7887(16) 0.8612(23) 0.1980(15) 1. 0 1.74(21) 
O5 O2- 4 i 0.0064(18) 0.3181(27) 0.2731(17) 1. 0 2.04(21) 
O6 O2- 4 i 0.0196(17) 0.6964(28) 0.2875(17) 1. 0 2.08(23) 
O7 O2- 4 i 0.1707(16) 0.1222(23) 0.4074(17) 1. 0 2.00(24) 
O8 O2- 4 i 0.1574(16) 0.8786(25) 0.4154(17) 1. 0 1.81(21) 

#End of data_83536-ICSD


