data_88779-ICSD
#?2014 by Fachinformationszentrum Karlsruhe, and the U.S. Secretary of 
#Commerce on behalf of the United States.  All rights reserved.
_database_code_ICSD                88779
_audit_creation_date               2001/07/16
_chemical_name_systematic          'Calcium Diniobate(III)'
_chemical_formula_structural       'Ca (Nb2 O4)'
_chemical_formula_sum              'Ca1 Nb2 O4'
_publ_section_title
;
Preparation and crystal structure of a new reduced calcium niobium 
oxide: Ca Nb2 O4
;
loop_
_citation_id
_citation_journal_abbrev
_citation_year
_citation_journal_volume
_citation_page_first
_citation_page_last
_citation_journal_id_ASTM
primary 'Journal of Solid State Chemistry' 1999 147 671 675 JSSCBI
_publ_author_name                  'Kumada, N.;Kinomiura, N.'
_cell_length_a                     5.054(1)
_cell_length_b                     11.904(1)
_cell_length_c                     5.839(1)
_cell_angle_alpha                  90.
_cell_angle_beta                   90.
_cell_angle_gamma                  90.
_cell_volume                       351.29
_cell_formula_units_Z              4
_symmetry_space_group_name_H-M     'P b c m'
_symmetry_Int_Tables_number        57
_refine_ls_R_factor_all            .027
loop_
_symmetry_equiv_pos_site_id
_symmetry_equiv_pos_as_xyz
  1	'x, -y+.5, z+.5'
  2	'-x, y+.5, z'
  3	'x, y, -z+.5'
  4	'-x, -y, -z'
  5	'-x, y+.5, -z+.5'
  6	'x, -y+.5, -z'
  7	'-x, -y, z+.5'
  8	'x, y, z'
loop_
_atom_type_symbol
_atom_type_oxidation_number
Ca2+	2
Nb3+	3
O2-	-2
loop_
_atom_site_label
_atom_site_type_symbol
_atom_site_symmetry_multiplicity
_atom_site_Wyckoff_symbol
_atom_site_fract_x
_atom_site_fract_y
_atom_site_fract_z
_atom_site_occupancy
_atom_site_attached_hydrogens
Nb1 Nb3+ 4 d 0.65911(9) 0.24615(4) 0.25 1. 0 
Nb2 Nb3+ 4 c 0.15567(9) 0.25 0.5 1. 0 
Ca1 Ca2+ 4 d 0.6926(2) 0.9965(1) 0.75 1. 0 
O1 O2- 8 e 0.4929(8) 0.1381(2) 0.5058(8) 1. 0 
O2 O2- 4 d 0.9925(9) 0.1403(3) 0.25 1. 0 
O3 O2- 4 d 0.986(1) 0.3563(3) 0.25 1. 0 

loop_
_atom_site_aniso_label
_atom_site_aniso_type_symbol
_atom_site_aniso_U_11
_atom_site_aniso_U_22
_atom_site_aniso_U_33
_atom_site_aniso_U_12
_atom_site_aniso_U_13
_atom_site_aniso_U_23
Nb1 Nb3+ 0.0023(2) 0.0028(1) 0.0035(2) 0.0002(1) 0 0
Nb2 Nb3+ 0.0027(2) 0.0029(1) 0.0035(2) 0 0 0.0001(1)
Ca1 Ca2+ 0.0055(3) 0.0040(3) 0.0080(3) 0.0001(4) 0 0
O1 O2- 0.0039(8) 0.0032(7) 0.0072(9) -.0008(9) -.0004(8) -.0002(9)
O2 O2- 0.002(2) 0.004(1) 0.009(1) 0.002(1) 0 0
O3 O2- 0.004(2) 0.003(1) 0.009(2) -.001(1) 0 0
#End of data_88779-ICSD


