data_40280-ICSD
#?2014 by Fachinformationszentrum Karlsruhe, and the U.S. Secretary of 
#Commerce on behalf of the United States.  All rights reserved.
_database_code_ICSD                40280
_audit_creation_date               1999/11/30
_chemical_name_systematic
;
Dipotassium Dicadmium Sulfate(VI) - Ht
;
_chemical_formula_structural       'K2 Cd2 (S O4)3'
_chemical_formula_sum              'Cd2 K2 O12 S3'
_chemical_name_mineral
;
Langbeinite, cadmian (Co-doped, high)
;
_publ_section_title
;
Structure of cobalt doped K2 Cd2 (S O4)3 langbeinite at three 
temperatures above the p213 - p212121 phase transition, and a new 
trigger mechanism for the ferroelastic transformation
;
loop_
_citation_id
_citation_journal_abbrev
_citation_year
_citation_journal_volume
_citation_page_first
_citation_page_last
_citation_journal_id_ASTM
primary 'Physics and Chemistry of Minerals' 1989 16 569 574 PCMIDU
_publ_author_name
;
Percival, M.J.L.;Schmahl, W.W.;Salje, E.
;
_cell_length_a                     10.3043(8)
_cell_length_b                     10.3043
_cell_length_c                     10.3043
_cell_angle_alpha                  90.
_cell_angle_beta                   90.
_cell_angle_gamma                  90.
_cell_volume                       1094.1
_cell_formula_units_Z              4
_symmetry_space_group_name_H-M     'P 21 3'
_symmetry_Int_Tables_number        198
_refine_ls_R_factor_all            .0415
loop_
_symmetry_equiv_pos_site_id
_symmetry_equiv_pos_as_xyz
  1	'-z+.5, -x, y+.5'
  2	'-y+.5, -z, x+.5'
  3	'-x+.5, -y, z+.5'
  4	'-z, x+.5, -y+.5'
  5	'-y, z+.5, -x+.5'
  6	'-x, y+.5, -z+.5'
  7	'z+.5, -x+.5, -y'
  8	'y+.5, -z+.5, -x'
  9	'x+.5, -y+.5, -z'
 10	'z, x, y'
 11	'y, z, x'
 12	'x, y, z'
loop_
_atom_type_symbol
_atom_type_oxidation_number
Cd2+	2
K1+	1
O2-	-2
S6+	6
loop_
_atom_site_label
_atom_site_type_symbol
_atom_site_symmetry_multiplicity
_atom_site_Wyckoff_symbol
_atom_site_fract_x
_atom_site_fract_y
_atom_site_fract_z
_atom_site_occupancy
_atom_site_attached_hydrogens
K1 K1+ 4 a 0.0648(3) 0.0648(3) 0.0648(3) 1. 0 
K2 K1+ 4 a 0.3016(4) 0.3016(4) 0.3016(4) 1. 0 
Cd1 Cd2+ 4 a 0.5805(1) 0.5805(1) 0.5805(1) 1. 0 
Cd2 Cd2+ 4 a 0.8376(1) 0.8376(1) 0.8376(1) 1. 0 
S1 S6+ 12 b 0.6249(2) 0.4763(2) 0.2621(2) 1. 0 
O1 O2- 12 b 0.3478(10) 0.2580(15) 0.5760(11) 1. 0 
O2 O2- 12 b 0.5365(12) 0.5671(11) 0.2083(15) 1. 0 
O3 O2- 12 b 0.6670(14) 0.5132(14) 0.3912(11) 1. 0 
O4 O2- 12 b 0.1835(12) 0.7378(13) 0.4934(14) 1. 0 

loop_
_atom_site_aniso_label
_atom_site_aniso_type_symbol
_atom_site_aniso_U_11
_atom_site_aniso_U_22
_atom_site_aniso_U_33
_atom_site_aniso_U_12
_atom_site_aniso_U_13
_atom_site_aniso_U_23
K1 K1+ 0.0528(13) 0.0528 0.0528 -.0014(13) -.0014 -.0014
K2 K1+ 0.0576(15) 0.0576 0.0576 0.0020(15) 0.002 0.002
Cd1 Cd2+ 0.0322(3) 0.0322 0.0322 -.0027(3) -.0027 -.0027
Cd2 Cd2+ 0.0311(3) 0.0311 0.0311 -.0016(3) -.0016 -.0016
S1 S6+ 0.0239(10) 0.0242(12) 0.0229(11) 0.0047(8) 0.0018(8) 0.0000(9)
O1 O2- 0.0301(49) 0.118(11) 0.0715(72) 0.0153(60) -.0188(47) -.0377(73)
O2 O2- 0.0625(79) 0.0592(75) 0.125(12) 0.0340(61) -.0465(72) -.001(7)
O3 O2- 0.0819(88) 0.0909(90) 0.0460(59) 0.0052(78) -.0091(60) -.0309(55)
O4 O2- 0.0749(87) 0.0638(80) 0.112(10) 0.0483(74) 0.0061(82) 0.0191(72)
#End of data_40280-ICSD


