data_30957-ICSD
#?2014 by Fachinformationszentrum Karlsruhe, and the U.S. Secretary of 
#Commerce on behalf of the United States.  All rights reserved.
_database_code_ICSD                30957
_audit_creation_date               1986/12/03
_audit_update_record               1998/06/26
_chemical_name_systematic          'Magnesium Silicate'
_chemical_formula_structural       'Mg2 (Si O4)'
_chemical_formula_sum              'Mg2 O4 Si1'
_chemical_name_mineral             Forsterite
_publ_section_title
;
The crystal structure of forsterite Mg2 Si O4 under high pressure up 
to 149 kb
;
loop_
_citation_id
_citation_journal_abbrev
_citation_year
_citation_journal_volume
_citation_page_first
_citation_page_last
_citation_journal_id_ASTM
primary 'Zeitschrift fuer Kristallographie (1979-2010)' 1985 171 291 302 ZEKRDZ
_publ_author_name                  'Kudoh, Y.;Takeuchi, T.'
_cell_length_a                     4.716(1)
_cell_length_b                     10.031(3)
_cell_length_c                     5.901(5)
_cell_angle_alpha                  90.
_cell_angle_beta                   90.
_cell_angle_gamma                  90.
_cell_volume                       279.15
_cell_formula_units_Z              4
_symmetry_space_group_name_H-M     'P b n m'
_symmetry_Int_Tables_number        62
_refine_ls_R_factor_all            .036
loop_
_symmetry_equiv_pos_site_id
_symmetry_equiv_pos_as_xyz
  1	'-x+.5, y+.5, z'
  2	'x, y, -z+.5'
  3	'x+.5, -y+.5, z+.5'
  4	'-x, -y, -z'
  5	'x+.5, -y+.5, -z'
  6	'-x, -y, z+.5'
  7	'-x+.5, y+.5, -z+.5'
  8	'x, y, z'
loop_
_atom_type_symbol
_atom_type_oxidation_number
Mg2+	2
O2-	-2
Si4+	4
loop_
_atom_site_label
_atom_site_type_symbol
_atom_site_symmetry_multiplicity
_atom_site_Wyckoff_symbol
_atom_site_fract_x
_atom_site_fract_y
_atom_site_fract_z
_atom_site_occupancy
_atom_site_attached_hydrogens
_atom_site_B_iso_or_equiv
Mg1 Mg2+ 4 a 0 0 0 1. 0 0.28(5) 
Mg2 Mg2+ 4 c 0.9920(8) 0.2776(3) 0.25 1. 0 0.08(5) 
Si1 Si4+ 4 c 0.4263(6) 0.0939(3) 0.25 1. 0 0.05(4) 
O1 O2- 4 c 0.7667(13) 0.0910(7) 0.25 1. 0 0.37(11) 
O2 O2- 4 c 0.2222(14) 0.4471(7) 0.25 1. 0 0.25(11) 
O3 O2- 8 d 0.2785(9) 0.1634(5) 0.0329(14) 1. 0 0.22(7) 

#End of data_30957-ICSD


