data_163465-ICSD
#?2014 by Fachinformationszentrum Karlsruhe, and the U.S. Secretary of 
#Commerce on behalf of the United States.  All rights reserved.
_database_code_ICSD                163465
_audit_creation_date               2009/08/01
_chemical_name_systematic
;
Pentasodium Gadolinium Tetrakis(molybdate)
;
_chemical_formula_structural       'Na5 Gd (Mo O4)4'
_chemical_formula_sum              'Gd1 Mo4 Na5 O16'
_publ_section_title
;
Syntheses, crystal structures, energy bands and optical 
characterizations of Na5 Ln (Mo O4)4 (Ln= Gd, Er)
;
loop_
_citation_id
_citation_journal_abbrev
_citation_year
_citation_journal_volume
_citation_page_first
_citation_page_last
_citation_journal_id_ASTM
primary 'Journal of Molecular Structure' 2009 919 178 184 JMOSB4
_publ_author_name
;
Zhao, D.;Cheng, W.-D.;Zhang, H.;Huang, S.-P.;Fang, M.;Zhang, W.-
L.;Yang, S.-L.
;
_cell_length_a                     11.4720(3)
_cell_length_b                     11.4720(3)
_cell_length_c                     11.5363(4)
_cell_angle_alpha                  90.
_cell_angle_beta                   90.
_cell_angle_gamma                  90.
_cell_volume                       1518.26
_cell_formula_units_Z              4
_symmetry_space_group_name_H-M     'I 41/a Z'
_symmetry_Int_Tables_number        88
_refine_ls_R_factor_all            .0546
loop_
_symmetry_equiv_pos_site_id
_symmetry_equiv_pos_as_xyz
  1	'-y+.75, x+.75, -z+.75'
  2	'y+.25, -x+.75, -z+.75'
  3	'x, y+.5, -z'
  4	'-x, -y, -z'
  5	'y+.25, -x+.25, z+.25'
  6	'-y+.75, x+.25, z+.25'
  7	'-x, -y+.5, z'
  8	'x, y, z'
  9	'-y+.25, x+.25, -z+.25'
 10	'y+.75, -x+.25, -z+.25'
 11	'x+.5, y, -z+.5'
 12	'-x+.5, -y+.5, -z+.5'
 13	'y+.75, -x+.75, z+.75'
 14	'-y+.25, x+.75, z+.75'
 15	'-x+.5, -y, z+.5'
 16	'x+.5, y+.5, z+.5'
loop_
_atom_type_symbol
_atom_type_oxidation_number
Gd3+	3
Mo6+	6
Na1+	1
O2-	-2
loop_
_atom_site_label
_atom_site_type_symbol
_atom_site_symmetry_multiplicity
_atom_site_Wyckoff_symbol
_atom_site_fract_x
_atom_site_fract_y
_atom_site_fract_z
_atom_site_occupancy
_atom_site_attached_hydrogens
_atom_site_U_iso_or_equiv
Na1 Na1+ 16 f 0.3791(4) -0.0454(4) 0.3433(5) 1. 0 0.0180(11) 
Na2 Na1+ 4 a 0.5 0.250 0.3750 1. 0 0.029(3) 
Gd1 Gd3+ 4 b 0 0.250 0.625 1. 0 0.0096(5) 
Mo1 Mo6+ 16 f 0.31947(9) 0.15560(7) 0.61150(9) 1. 0 0.0106(5) 
O1 O2- 16 f 0.1821(6) 0.1649(6) 0.6864(6) 1. 0 0.0134(15) 
O2 O2- 16 f 0.3238(7) 0.0352(6) 0.5195(6) 1. 0 0.0188(16) 
O3 O2- 16 f 0.1130(6) 0.1882(6) 0.4594(7) 1. 0 0.0156(16) 
O4 O2- 16 f 0.3501(6) 0.2802(6) 0.5263(7) 1. 0 0.0182(16) 

#End of data_163465-ICSD


