data_25837-ICSD
#?2014 by Fachinformationszentrum Karlsruhe, and the U.S. Secretary of 
#Commerce on behalf of the United States.  All rights reserved.
_database_code_ICSD                25837
_audit_creation_date               1980/01/01
_audit_update_record               2006/04/01
_chemical_name_systematic          'Pentasodium Triphosphate - I, Ht'
_chemical_formula_structural       'Na5 (P3 O10)'
_chemical_formula_sum              'Na5 O10 P3'
_publ_section_title
;
The crystal structure of sodium triphosphate, Na5 P3 O10, phase I
;
loop_
_citation_id
_citation_journal_abbrev
_citation_year
_citation_journal_volume
_citation_page_first
_citation_page_last
_citation_journal_id_ASTM
primary 'Acta Crystallographica (1,1948-23,1967)' 1960 13 263 269 ACCRA9
2 'Golden Book of Phase Transitions, Wroclaw' 2002 1 1 123 GBOPT5
_publ_author_name                  'Corbridge, D.E.C.'
_cell_length_a                     9.61(3)
_cell_length_b                     5.34(2)
_cell_length_c                     19.73(5)
_cell_angle_alpha                  90.
_cell_angle_beta                   112.0(5)
_cell_angle_gamma                  90.
_cell_volume                       938.77
_cell_formula_units_Z              4
_symmetry_space_group_name_H-M     'C 1 2/c 1'
_symmetry_Int_Tables_number        15
_refine_ls_R_factor_all            .13
loop_
_symmetry_equiv_pos_site_id
_symmetry_equiv_pos_as_xyz
  1	'x, -y, z+.5'
  2	'-x, -y, -z'
  3	'-x, y, -z+.5'
  4	'x, y, z'
  5	'x+.5, -y+.5, z+.5'
  6	'-x+.5, -y+.5, -z'
  7	'-x+.5, y+.5, -z+.5'
  8	'x+.5, y+.5, z'
loop_
_atom_type_symbol
_atom_type_oxidation_number
Na1+	1
O2-	-2
P5+	5
loop_
_atom_site_label
_atom_site_type_symbol
_atom_site_symmetry_multiplicity
_atom_site_Wyckoff_symbol
_atom_site_fract_x
_atom_site_fract_y
_atom_site_fract_z
_atom_site_occupancy
_atom_site_attached_hydrogens
_atom_site_B_iso_or_equiv
P1 P5+ 4 e 0 0.655 0.25 1. 0 1.5 
P2 P5+ 8 f 0.07 0.523 0.4 1. 0 1.5 
O1 O2- 8 f 0.143 0.806 0.267 1. 0 2. 
O2 O2- 8 f 0.013 0.448 0.312 1. 0 2. 
O3 O2- 8 f 0.98 0.329 0.42 1. 0 2. 
O4 O2- 8 f 0.035 0.79 0.405 1. 0 2. 
O5 O2- 8 f 0.232 0.533 0.438 1. 0 2. 
Na1 Na1+ 4 a 0 0 0 1. 0 2. 
Na2 Na1+ 8 f 0.357 0.552 0.326 1. 0 2. 
Na3 Na1+ 8 f 0.258 0.965 0.429 1. 0 2. 

#End of data_25837-ICSD


