data_82277-ICSD
#?2014 by Fachinformationszentrum Karlsruhe, and the U.S. Secretary of 
#Commerce on behalf of the United States.  All rights reserved.
_database_code_ICSD                82277
_audit_creation_date               1997/11/10
_chemical_name_systematic          'Lithium Bismuth Trioxide'
_chemical_formula_structural       'Li Bi O3'
_chemical_formula_sum              'Bi1 Li1 O3'
_publ_section_title
;
Preparation and crystal structure of a new lithium bismuth oxide: Li 
Bi O3
;
loop_
_citation_id
_citation_journal_abbrev
_citation_year
_citation_journal_volume
_citation_page_first
_citation_page_last
_citation_journal_id_ASTM
primary 'Journal of Solid State Chemistry' 1996 126 121 126 JSSCBI
_publ_author_name
;
Kumada, N.;Takahashi, N.;Kinomura, N.;Sleight, A.W.
;
_cell_length_a                     8.8278(3)
_cell_length_b                     4.9135(2)
_cell_length_c                     10.6914(3)
_cell_angle_alpha                  90.
_cell_angle_beta                   90.
_cell_angle_gamma                  90.
_cell_volume                       463.74
_cell_formula_units_Z              8
_symmetry_space_group_name_H-M     'P c c n'
_symmetry_Int_Tables_number        56
_refine_ls_R_factor_all            .039
loop_
_symmetry_equiv_pos_site_id
_symmetry_equiv_pos_as_xyz
  1	'x, -y+.5, z+.5'
  2	'-x+.5, y, z+.5'
  3	'x+.5, y+.5, -z'
  4	'-x, -y, -z'
  5	'-x, y+.5, -z+.5'
  6	'x+.5, -y, -z+.5'
  7	'-x+.5, -y+.5, z'
  8	'x, y, z'
loop_
_atom_type_symbol
_atom_type_oxidation_number
Bi5+	5
Li1+	1
O2-	-2
loop_
_atom_site_label
_atom_site_type_symbol
_atom_site_symmetry_multiplicity
_atom_site_Wyckoff_symbol
_atom_site_fract_x
_atom_site_fract_y
_atom_site_fract_z
_atom_site_occupancy
_atom_site_attached_hydrogens
_atom_site_B_iso_or_equiv
Bi1 Bi5+ 8 e 0.414(1) 0.006(3) 0.3647(8) 1. 0 0.4(2) 
Li1 Li1+ 8 e 0.783(5) -.004(17) 0.402(4) 1. 0 2.(1) 
O1 O2- 8 e 0.406(2) 0.302(3) 0.043(2) 1. 0 1.1(4) 
O2 O2- 8 e 0.420(2) 0.776(3) 0.200(2) 1. 0 0.4(4) 
O3 O2- 4 c 0.25 0.25 0.285(3) 1. 0 0.8(7) 
O4 O2- 4 d 0.25 0.75 0.952(3) 1. 0 0.4(6) 

#End of data_82277-ICSD


