data_87959-ICSD
#?2014 by Fachinformationszentrum Karlsruhe, and the U.S. Secretary of 
#Commerce on behalf of the United States.  All rights reserved.
_database_code_ICSD                87959
_audit_creation_date               2001/07/16
_audit_update_record               2007/08/01
_chemical_name_systematic          'Dicesium Tetraiodozincate - I'
_chemical_formula_structural       'Cs2 (Zn I4)'
_chemical_formula_sum              'Cs2 I4 Zn1'
_publ_section_title
;
Powder x-ray diffraction study in Cs2 Zn I4
;
loop_
_citation_id
_citation_journal_abbrev
_citation_year
_citation_journal_volume
_citation_page_first
_citation_page_last
_citation_journal_id_ASTM
primary Ferroelectrics 1999 229 195 200 FEROA8
2 'Golden Book of Phase Transitions, Wroclaw' 2002 1 1 123 GBOPT5
_publ_author_name                  'Kurihama, T.;Shimizu, F.;Izumi, T.'
_cell_length_a                     8.3127(4)
_cell_length_b                     14.4755(7)
_cell_length_c                     10.8293(6)
_cell_angle_alpha                  90.
_cell_angle_beta                   90.
_cell_angle_gamma                  90.
_cell_volume                       1303.09
_cell_formula_units_Z              4
_symmetry_space_group_name_H-M     'P m c n'
_symmetry_Int_Tables_number        62
_refine_ls_R_factor_all            .075
loop_
_symmetry_equiv_pos_site_id
_symmetry_equiv_pos_as_xyz
  1	'x, -y+.5, z+.5'
  2	'-x+.5, y, z'
  3	'x+.5, y+.5, -z+.5'
  4	'-x, -y, -z'
  5	'-x, y+.5, -z+.5'
  6	'x+.5, -y, -z'
  7	'-x+.5, -y+.5, z+.5'
  8	'x, y, z'
loop_
_atom_type_symbol
_atom_type_oxidation_number
Cs1+	1
I1-	-1
Zn2+	2
loop_
_atom_site_label
_atom_site_type_symbol
_atom_site_symmetry_multiplicity
_atom_site_Wyckoff_symbol
_atom_site_fract_x
_atom_site_fract_y
_atom_site_fract_z
_atom_site_occupancy
_atom_site_attached_hydrogens
_atom_site_B_iso_or_equiv
Cs1 Cs1+ 4 c 0.25 0.6652(8) 0.5186(14) 1. 0 8.1(4) 
Cs2 Cs1+ 4 c 0.25 0.3843(9) 0.8730(13) 1. 0 8.1(4) 
Zn1 Zn2+ 4 c 0.25 0.4028(19) 0.2534(19) 1. 0 5.7(7) 
I1 I1- 4 c 0.25 0.3992(8) 0.5046(12) 1. 0 5.5(2) 
I2 I1- 4 c 0.25 0.5896(8) 0.1829(16) 1. 0 5.5(2) 
I3 I1- 8 d 0.5025(19) 0.3465(5) 0.1727(8) 1. 0 5.5(2) 

#End of data_87959-ICSD


