data_79777-ICSD
#?2014 by Fachinformationszentrum Karlsruhe, and the U.S. Secretary of 
#Commerce on behalf of the United States.  All rights reserved.
_database_code_ICSD                79777
_audit_creation_date               1996/10/14
_audit_update_record               2006/04/01
_chemical_name_systematic          'Dipotassium Sulfate(VI)'
_chemical_formula_structural       'K2 (S O4)'
_chemical_formula_sum              'K2 O4 S1'
_publ_section_title
;
Structure of potassium sulfate at temperatures from 296 K down to 15 
K
;
loop_
_citation_id
_citation_journal_abbrev
_citation_year
_citation_journal_volume
_citation_page_first
_citation_page_last
_citation_journal_id_ASTM
primary 'Acta Crystallographica, Section B: Structural Science'
 1995 51 287 293 ASBSDK
2 'Golden Book of Phase Transitions, Wroclaw' 2002 1 1 123 GBOPT5
_publ_author_name                  'Ojima, K.;Nishihata, Y.;Sawada, A.'
_cell_length_a                     5.7704(3)
_cell_length_b                     10.0712(9)
_cell_length_c                     7.4776(4)
_cell_angle_alpha                  90.
_cell_angle_beta                   90.
_cell_angle_gamma                  90.
_cell_volume                       434.56
_cell_formula_units_Z              4
_symmetry_space_group_name_H-M     'P m c n'
_symmetry_Int_Tables_number        62
_refine_ls_R_factor_all            .036
loop_
_symmetry_equiv_pos_site_id
_symmetry_equiv_pos_as_xyz
  1	'x, -y+.5, z+.5'
  2	'-x+.5, y, z'
  3	'x+.5, y+.5, -z+.5'
  4	'-x, -y, -z'
  5	'-x, y+.5, -z+.5'
  6	'x+.5, -y, -z'
  7	'-x+.5, -y+.5, z+.5'
  8	'x, y, z'
loop_
_atom_type_symbol
_atom_type_oxidation_number
K1+	1
O2-	-2
S6+	6
loop_
_atom_site_label
_atom_site_type_symbol
_atom_site_symmetry_multiplicity
_atom_site_Wyckoff_symbol
_atom_site_fract_x
_atom_site_fract_y
_atom_site_fract_z
_atom_site_occupancy
_atom_site_attached_hydrogens
K1 K1+ 4 c 0.25 0.08935(6) 0.17398(7) 1. 0 
K2 K1+ 4 c 0.25 0.79550(5) 0.48915(7) 1. 0 
S1 S6+ 4 c 0.25 0.41985(5) 0.23295(7) 1. 0 
O1 O2- 4 c 0.25 0.4162(3) 0.0368(3) 1. 0 
O2 O2- 4 c 0.25 0.5585(2) 0.2976(3) 1. 0 
O3 O2- 8 d 0.0412(3) 0.3522(2) 0.3017(2) 1. 0 

loop_
_atom_site_aniso_label
_atom_site_aniso_type_symbol
_atom_site_aniso_U_11
_atom_site_aniso_U_22
_atom_site_aniso_U_33
_atom_site_aniso_U_12
_atom_site_aniso_U_13
_atom_site_aniso_U_23
K1 K1+ 0.0169(2) 0.0197(2) 0.0164(2) 0 0 0.0006(2)
K2 K1+ 0.0185(2) 0.0150(1) 0.0132(1) 0 0 -.0005(1)
S1 S6+ 0.0101(1) 0.0095(1) 0.0101(1) 0 0 -.0005(1)
O1 O2- 0.0382(1) 0.0318(10) 0.0089(5) 0 0 -.0019(7)
O2 O2- 0.0254(8) 0.0120(6) 0.0210(7) 0 0 -.0044(5)
O3 O2- 0.0140(4) 0.0227(5) 0.0298(6) -.0063(4) 0.0032(5) 0.0052(5)
#End of data_79777-ICSD


