data_280688-ICSD
#?2014 by Fachinformationszentrum Karlsruhe, and the U.S. Secretary of 
#Commerce on behalf of the United States.  All rights reserved.
_database_code_ICSD                280688
_audit_creation_date               2002/10/01
_audit_update_record               2012/02/01
_chemical_name_systematic
;
Dipotassium Dioxotetrakis(iodato(V))tris(dioxouranate)
;
_chemical_formula_structural       'K2 ((U O2)3 (I O3)4 O2)'
_chemical_formula_sum              'I4 K2 O20 U3'
_publ_section_title
;
Excision of uranium oxide chains and ribbons in the novel one-
dimensional uranyl iodates K2 ((U O2)3 (I O3)4 O2) and Ba ((U O2)2 (I 
O3)2 O2) (H2 O)
;
loop_
_citation_id
_citation_journal_abbrev
_citation_year
_citation_journal_volume
_citation_page_first
_citation_page_last
_citation_journal_id_ASTM
primary 'Inorganic Chemistry' 2001 40 3959 3963 INOCAJ
_publ_author_name
;
Bean, A.C.;Ruf, M.;Albrecht Schmitt, T.E.
;
_cell_length_a                     7.0372(5)
_cell_length_b                     7.7727(5)
_cell_length_c                     8.9851(6)
_cell_angle_alpha                  93.386(1)
_cell_angle_beta                   105.668(1)
_cell_angle_gamma                  91.339(1)
_cell_volume                       471.98
_cell_formula_units_Z              1
_symmetry_space_group_name_H-M     'P -1'
_symmetry_Int_Tables_number        2
_refine_ls_R_factor_all            .0303
loop_
_symmetry_equiv_pos_site_id
_symmetry_equiv_pos_as_xyz
  1	'-x, -y, -z'
  2	'x, y, z'
loop_
_atom_type_symbol
_atom_type_oxidation_number
I5+	5
K1+	1
O2-	-2
U6+	6
loop_
_atom_site_label
_atom_site_type_symbol
_atom_site_symmetry_multiplicity
_atom_site_Wyckoff_symbol
_atom_site_fract_x
_atom_site_fract_y
_atom_site_fract_z
_atom_site_occupancy
_atom_site_attached_hydrogens
U1 U6+ 2 i 0.44929(2) 0.08259(2) -.19264(2) 1. 0 
U2 U6+ 1 a 0 0 0 1. 0 
I1 I5+ 2 i -.12565(4) 0.19926(4) -.37855(3) 1. 0 
I2 I5+ 2 i 0.29190(4) 0.34426(4) -.56525(3) 1. 0 
K1 K1+ 2 i 0.24713(14) -.39939(13) -.16200(11) 1. 0 
O1 O2- 2 i -.2285(5) 0.0893(5) -.2379(4) 1. 0 
O2 O2- 2 i 0.1046(5) 0.1013(5) -.2917(4) 1. 0 
O3 O2- 2 i -.0885(6) 0.4066(5) -.2781(4) 1. 0 
O4 O2- 2 i 0.0436(4) 0.2813(5) -.5635(4) 1. 0 
O5 O2- 2 i 0.3461(5) 0.5278(5) -.4284(4) 1. 0 
O6 O2- 2 i 0.4256(5) 0.1831(5) -.4440(4) 1. 0 
O7 O2- 2 i 0.3079(4) -.0170(4) -.0160(3) 1. 0 
O8 O2- 2 i 0.4681(6) 0.3023(5) -.1146(4) 1. 0 
O9 O2- 2 i 0.4279(5) -.1349(5) -.2768(4) 1. 0 
O10 O2- 2 i 0.0500(5) 0.2184(5) 0.0792(4) 1. 0 

loop_
_atom_site_aniso_label
_atom_site_aniso_type_symbol
_atom_site_aniso_U_11
_atom_site_aniso_U_22
_atom_site_aniso_U_33
_atom_site_aniso_U_12
_atom_site_aniso_U_13
_atom_site_aniso_U_23
U1 U6+ 0.00276(8) 0.00654(9) 0.00270(8) 0.00122(6) 0.00027(6) 0.00138(5)
U2 U6+ 0.00188(10) 0.00911(11) 0.00829(10) 0.00157(8) 0.00006(8) -.00125(8)
I1 I5+ 0.00380(12) 0.00889(13) 0.00373(11) 0.00033(9) 0.00019(9) 0.00220(9)
I2 I5+ 0.00481(12) 0.00790(13) 0.00352(11) 0.00156(9) 0.00037(8) 0.00205(9)
K1 K1+ 0.0094(4) 0.0128(4) 0.0102(4) 0.0021(3) 0.0016(3) -.0004(3)
O1 O2- 0.0064(13) 0.019(2) 0.0070(13) -.0006(12) 0.0024(11) 0.0063(12)
O2 O2- 0.0034(13) 0.023(2) 0.022(2) 0.0026(13) -.0027(12) 0.0111(15)
O3 O2- 0.018(2) 0.010(2) 0.013(2) -.0007(13) 0.0017(13) 0.0003(13)
O4 O2- 0.0043(13) 0.018(2) 0.0115(14) -.0010(12) 0.0018(11) 0.0052(12)
O5 O2- 0.0099(14) 0.013(2) 0.0122(15) 0.0004(12) 0.0033(12) -.0043(12)
O6 O2- 0.0117(15) 0.018(2) 0.0089(14) 0.0077(12) 0.0037(12) 0.0078(12)
O7 O2- 0.0031(12) 0.014(2) 0.0063(12) 0.0033(11) 0.0016(10) 0.0045(11)
O8 O2- 0.013(2) 0.011(2) 0.0083(14) 0.0023(13) -.0009(12) 0.0008(12)
O9 O2- 0.0102(15) 0.012(2) 0.0072(13) -.0022(12) 0.0023(11) 0.0008(11)
O10 O2- 0.009(2) 0.014(2) 0.016(2) -.0017(13) 0.0007(13) -.0011(13)
#End of data_280688-ICSD


