data_65337-ICSD
#?2014 by Fachinformationszentrum Karlsruhe, and the U.S. Secretary of 
#Commerce on behalf of the United States.  All rights reserved.
_database_code_ICSD                65337
_audit_creation_date               1989/12/04
_audit_update_record               2012/08/01
_chemical_name_systematic
;
Potassium Indium Bis(catena-germanate)
;
_chemical_formula_structural       'K In (Ge O3)2'
_chemical_formula_sum              'Ge2 In1 K1 O6'
_publ_section_title
;
Synthesis and crystal structure of K, In pyroxene K In Ge2 O6
;
loop_
_citation_id
_citation_journal_abbrev
_citation_year
_citation_journal_volume
_citation_page_first
_citation_page_last
_citation_journal_id_ASTM
primary Kristallografiya 1988 33 1108 1112 KRISAJ
2 'Soviet Physics, Crystallography (= Kristallografiya)'
 1988 33 655 658 SPHCA6
_publ_author_name
;
Genkina, E.A.;Dem'yanets, L.N.
;
_cell_length_a                     10.304(7)
_cell_length_b                     9.509(3)
_cell_length_c                     5.617(10)
_cell_angle_alpha                  90.
_cell_angle_beta                   104.9(2)
_cell_angle_gamma                  90.
_cell_volume                       531.85
_cell_formula_units_Z              4
_symmetry_space_group_name_H-M     'C 1 2/c 1'
_symmetry_Int_Tables_number        15
_refine_ls_R_factor_all            .042
loop_
_symmetry_equiv_pos_site_id
_symmetry_equiv_pos_as_xyz
  1	'x, -y, z+.5'
  2	'-x, -y, -z'
  3	'-x, y, -z+.5'
  4	'x, y, z'
  5	'x+.5, -y+.5, z+.5'
  6	'-x+.5, -y+.5, -z'
  7	'-x+.5, y+.5, -z+.5'
  8	'x+.5, y+.5, z'
loop_
_atom_type_symbol
_atom_type_oxidation_number
Ge4+	4
In3+	3
K1+	1
O2-	-2
loop_
_atom_site_label
_atom_site_type_symbol
_atom_site_symmetry_multiplicity
_atom_site_Wyckoff_symbol
_atom_site_fract_x
_atom_site_fract_y
_atom_site_fract_z
_atom_site_occupancy
_atom_site_attached_hydrogens
K1 K1+ 4 e 0 0.6891(1) 0.25 1. 0 
In1 In3+ 4 e 0 0.1025(2) 0.25 1. 0 
Ge1 Ge4+ 8 f 0.2149 0.4107 0.2905 1. 0 
O1 O2- 8 f 0.3904(3) 0.4284(3) 0.3692(6) 1. 0 
O2 O2- 8 f 0.1514(3) 0.2445(3) 0.2165(7) 1. 0 
O3 O2- 8 f 0.1493(3) 0.4850(4) 0.5235(6) 1. 0 

#End of data_65337-ICSD


