data_201438-ICSD
#?2014 by Fachinformationszentrum Karlsruhe, and the U.S. Secretary of 
#Commerce on behalf of the United States.  All rights reserved.
_database_code_ICSD                201438
_audit_creation_date               1985/03/08
_audit_update_record               2012/02/01
_chemical_name_systematic          'Dipotassium Magnesium Tetraamide'
_chemical_formula_structural       'K2 Mg (N H2)4'
_chemical_formula_sum              'H8 K2 Mg1 N4'
_publ_section_title
;
Darstellung und Eigenschaften der Amidomagnesate des Kaliums und 
Rubidiums K2 (Mg (N H2)4)- und Rb2 (Mg (N H2)4)- Verbindungen mit 
isolierten (Mg (N H2)4)(2-)Tetraedern
;
loop_
_citation_id
_citation_journal_abbrev
_citation_year
_citation_journal_volume
_citation_page_first
_citation_page_last
_citation_journal_id_ASTM
primary 'Journal of the Less-Common Metals' 1984 97 205 214 JCOMAH
_publ_author_name
;
Jacobs, H.;Birkenbeul, J.;Kockelkorn, J.
;
_cell_length_a                     7.455(2)
_cell_length_b                     7.024(2)
_cell_length_c                     13.545(9)
_cell_angle_alpha                  90.
_cell_angle_beta                   105.6(1)
_cell_angle_gamma                  90.
_cell_volume                       683.14
_cell_formula_units_Z              4
_symmetry_space_group_name_H-M     'P 1 21/c 1'
_symmetry_Int_Tables_number        14
_refine_ls_R_factor_all            .037
loop_
_symmetry_equiv_pos_site_id
_symmetry_equiv_pos_as_xyz
  1	'x, -y+.5, z+.5'
  2	'-x, -y, -z'
  3	'-x, y+.5, -z+.5'
  4	'x, y, z'
loop_
_atom_type_symbol
_atom_type_oxidation_number
H1+	1
K1+	1
Mg2+	2
N3-	-3
loop_
_atom_site_label
_atom_site_type_symbol
_atom_site_symmetry_multiplicity
_atom_site_Wyckoff_symbol
_atom_site_fract_x
_atom_site_fract_y
_atom_site_fract_z
_atom_site_occupancy
_atom_site_attached_hydrogens
_atom_site_B_iso_or_equiv
K1 K1+ 4 e 0.57038(9) 0.1410(1) 0.39157(4) 1. 0 0 
K2 K1+ 4 e 0.07859(9) 0.1549(1) 0.39603(5) 1. 0 0 
Mg1 Mg2+ 4 e 0.7033(1) 0.2038(1) 0.15065(6) 1. 0 0 
N1 N3- 4 e 0.7458(3) 0.9560(4) 0.2316(2) 1. 0 0 
N2 N3- 4 e 0.7520(3) 0.4304(4) 0.2493(2) 1. 0 0 
N3 N3- 4 e 0.4316(3) 0.2343(3) 0.0585(2) 1. 0 0 
N4 N3- 4 e 0.8780(3) 0.2377(3) 0.0542(1) 1. 0 0 
H1 H1+ 4 e 0.664(5) 0.891(5) 0.248(3) 1. 0 5.6(9) 
H2 H1+ 4 e 0.155(6) 0.410(6) 0.258(3) 1. 0 7.7(9) 
H3 H1+ 4 e 0.139(5) 0.976(5) 0.221(3) 1. 0 5.6(9) 
H4 H1+ 4 e 0.328(4) 0.969(5) 0.214(2) 1. 0 4.2(8) 
H5 H1+ 4 e 0.651(5) 0.737(5) 0.405(3) 1. 0 5.4(9) 
H6 H1+ 4 e 0.538(4) 0.638(5) 0.481(2) 1. 0 5.0(9) 
H7 H1+ 4 e 0.993(4) 0.243(5) 0.088(2) 1. 0 4.9(8) 
H8 H1+ 4 e 0.876(4) 0.360(4) 0.512(2) 1. 0 3.7(7) 

loop_
_atom_site_aniso_label
_atom_site_aniso_type_symbol
_atom_site_aniso_U_11
_atom_site_aniso_U_22
_atom_site_aniso_U_33
_atom_site_aniso_U_12
_atom_site_aniso_U_13
_atom_site_aniso_U_23
K1 K1+ 0.0401(3) 0.0480(3) 0.0263(2) -.0073(3) 0.0078(2) -.0032(3)
K2 K1+ 0.0386(3) 0.0489(4) 0.0332(2) 0.0032(3) 0.0094(2) -.0035(3)
Mg1 Mg2+ 0.0281(3) 0.0241(4) 0.0188(3) -.0001(4) 0.0054(2) 0.0014(3)
N1 N3- 0.044(1) 0.038(1) 0.049(1) 0.004(1) 0.016(1) 0.016(1)
N2 N3- 0.043(1) 0.040(1) 0.034(1) -.005(1) 0.008(1) -.014(1)
N3 N3- 0.027(1) 0.034(1) 0.029(1) 0.000(1) 0.005(1) -.002(1)
N4 N3- 0.028(1) 0.038(1) 0.026(1) 0.000(1) 0.008(1) 0.000(1)
#End of data_201438-ICSD


