data_36216-ICSD
#?2014 by Fachinformationszentrum Karlsruhe, and the U.S. Secretary of 
#Commerce on behalf of the United States.  All rights reserved.
_database_code_ICSD                36216
_audit_creation_date               1983/12/31
_audit_update_record               2007/08/01
_chemical_name_systematic          'Rubidium Lithium Chloride'
_chemical_formula_structural       'Rb Li Cl2'
_chemical_formula_sum              'Cl2 Li1 Rb1'
_publ_section_title
;
Synthesis and crystal structure of the inner-alkali-metall chloride 
Rb Li Cl2
;
loop_
_citation_id
_citation_journal_abbrev
_citation_year
_citation_journal_volume
_citation_page_first
_citation_page_last
_citation_journal_id_ASTM
primary 'Materials Research Bulletin' 1983 18 429 436 MRBUAC
_publ_author_name                  'Gaebell, H.C.;Meyer, G.;Hoppe, R.'
_cell_length_a                     14.413(3)
_cell_length_b                     4.1257(8)
_cell_length_c                     7.209(1)
_cell_angle_alpha                  90.
_cell_angle_beta                   90.
_cell_angle_gamma                  90.
_cell_volume                       428.67
_cell_formula_units_Z              4
_symmetry_space_group_name_H-M     'C c m m'
_symmetry_Int_Tables_number        63
_refine_ls_R_factor_all            .074
loop_
_symmetry_equiv_pos_site_id
_symmetry_equiv_pos_as_xyz
  1	'x, -y, -z+.5'
  2	'-x, -y, z+.5'
  3	'x, -y, z'
  4	'-x, -y, -z'
  5	'-x, y, z+.5'
  6	'x, y, -z+.5'
  7	'-x, y, -z'
  8	'x, y, z'
  9	'x+.5, -y+.5, -z+.5'
 10	'-x+.5, -y+.5, z+.5'
 11	'x+.5, -y+.5, z'
 12	'-x+.5, -y+.5, -z'
 13	'-x+.5, y+.5, z+.5'
 14	'x+.5, y+.5, -z+.5'
 15	'-x+.5, y+.5, -z'
 16	'x+.5, y+.5, z'
loop_
_atom_type_symbol
_atom_type_oxidation_number
Cl1-	-1
Li1+	1
Rb1+	1
loop_
_atom_site_label
_atom_site_type_symbol
_atom_site_symmetry_multiplicity
_atom_site_Wyckoff_symbol
_atom_site_fract_x
_atom_site_fract_y
_atom_site_fract_z
_atom_site_occupancy
_atom_site_attached_hydrogens
Rb1 Rb1+ 4 c 0.62955(8) 0 0.25 1. 0 
Li1 Li1+ 4 c 0.1041(15) 0 0.75 1. 0 
Cl1 Cl1- 4 a 0 0 0 1. 0 
Cl2 Cl1- 4 c 0.3094(2) 0 0.25 1. 0 

loop_
_atom_site_aniso_label
_atom_site_aniso_type_symbol
_atom_site_aniso_U_11
_atom_site_aniso_U_22
_atom_site_aniso_U_33
_atom_site_aniso_U_12
_atom_site_aniso_U_13
_atom_site_aniso_U_23
Rb1 Rb1+ 0.0216(6) 0.0241(6) 0.0388(8) 0 0 0
Li1 Li1+ 0.0204(96) 0.031(12) 0.0151(96) 0 0 0
Cl1 Cl1- 0.0270(14) 0.0347(17) 0.0169(14) 0.0036(12) 0 0
Cl2 Cl1- 0.0250(15) 0.0251(16) 0.0520(23) 0 0 0
#End of data_36216-ICSD


