data_182657-ICSD
#?2014 by Fachinformationszentrum Karlsruhe, and the U.S. Secretary of 
#Commerce on behalf of the United States.  All rights reserved.
_database_code_ICSD                182657
_audit_creation_date               2012/02/01
_chemical_name_systematic          'Potassium Titanium Oxide Phosphate'
_chemical_formula_structural       'K Ti O (P O4)'
_chemical_formula_sum              'K1 O5 P1 Ti1'
_publ_section_title
;
A neutron total scattering study of local coordination in K Ti O P O4 
from room temperature to 900 C
;
loop_
_citation_id
_citation_journal_abbrev
_citation_year
_citation_journal_volume
_citation_page_first
_citation_page_last
_citation_journal_id_ASTM
primary 'Journal of Physics: Condensed Matter' 2011 23 175401-1 175401-11 JCOMEL
_publ_author_name
;
Norberg, S.T.;Thomas, P.A.;Tucker, M.G.
;
_cell_length_a                     12.80809(9)
_cell_length_b                     6.39916(5)
_cell_length_c                     10.58137(5)
_cell_angle_alpha                  90.
_cell_angle_beta                   90.
_cell_angle_gamma                  90.
_cell_volume                       867.26
_cell_formula_units_Z              8
_symmetry_space_group_name_H-M     'P n a 21'
_symmetry_Int_Tables_number        33
_refine_ls_R_factor_all            .0139
loop_
_symmetry_equiv_pos_site_id
_symmetry_equiv_pos_as_xyz
  1	'x+.5, -y+.5, z'
  2	'-x+.5, y+.5, z+.5'
  3	'-x, -y, z+.5'
  4	'x, y, z'
loop_
_atom_type_symbol
_atom_type_oxidation_number
K1+	1
O2-	-2
P5+	5
Ti4+	4
loop_
_atom_site_label
_atom_site_type_symbol
_atom_site_symmetry_multiplicity
_atom_site_Wyckoff_symbol
_atom_site_fract_x
_atom_site_fract_y
_atom_site_fract_z
_atom_site_occupancy
_atom_site_attached_hydrogens
_atom_site_U_iso_or_equiv
K1 K1+ 4 a 0.3779(4) 0.2162(6) 0.3114(3) 1. 0 0.0160(5) 
K2 K1+ 4 a 0.1090(3) 0.3009(7) 0.0669(3) 1. 0 0.0160(5) 
Ti1 Ti4+ 4 a 0.37137(17) 0.4992(8) 0.0016(4) 1. 0 0.0026(4) 
Ti2 Ti4+ 4 a 0.2451(4) 0.7341(6) 0.2513(4) 1. 0 0.0026(4) 
P1 P5+ 4 a 0.4976(4) 0.6644(2) 0.2617(4) 1. 0 0.00264(17) 
P2 P5+ 4 a 0.18148(11) 0.4970(8) 0.5121(4) 1. 0 0.00264(17) 
O1 O2- 4 a 0.4835(2) 0.5126(4) 0.1504(3) 1. 0 0.00535(5) 
O2 O2- 4 a 0.5091(2) 0.5345(4) 0.3846(2) 1. 0 0.00535(5) 
O3 O2- 4 a 0.4006(2) 0.8002(5) 0.2777(3) 1. 0 0.00535(5) 
O4 O2- 4 a 0.5935(2) 0.8079(5) 0.2405(3) 1. 0 0.00535(5) 
O5 O2- 4 a 0.2765(2) 0.5325(5) 0.1415(3) 1. 0 0.00535(5) 
O6 O2- 4 a 0.2258(3) 0.9572(5) 0.3888(3) 1. 0 0.00535(5) 
O7 O2- 4 a 0.1103(3) 0.6895(6) 0.5422(2) 1. 0 0.00535(5) 
O8 O2- 4 a 0.1124(3) 0.3087(6) 0.4882(3) 1. 0 0.00535(5) 
O9 O2- 4 a 0.2549(3) 0.4610(5) 0.6257(3) 1. 0 0.00535(5) 
O10 O2- 4 a 0.2511(3) 0.5394(6) 0.3973(3) 1. 0 0.00535(5) 

#End of data_182657-ICSD


