data_32600-ICSD
#?2014 by Fachinformationszentrum Karlsruhe, and the U.S. Secretary of 
#Commerce on behalf of the United States.  All rights reserved.
_database_code_ICSD                32600
_audit_creation_date               1982/12/31
_audit_update_record               2014/08/01
_chemical_name_systematic
;
Heptadecasodium Pentaaluminium Oxide
;
_chemical_formula_structural       'Na17 Al5 O16'
_chemical_formula_sum              'Al5 Na17 O16'
_publ_section_title
;
A new sodium aluminate Na17 Al5 O16
;
loop_
_citation_id
_citation_journal_abbrev
_citation_year
_citation_journal_volume
_citation_page_first
_citation_page_last
_citation_journal_id_ASTM
primary 'Journal of the Chemical Society. Chemical Communications (1972-)'
 1982 1982 516 517 JCCCAT
2
;
Journal of the Chemical Society. Dalton Transactions, Inorganic 
Chemistry (1972-)
;
 1984 1984 1139 1146 JCDTBI
_publ_author_name
;
Barker, M.G.;Gadd, P.G.;Wallwork, S.C.
;
_cell_length_a                     5.961
_cell_length_b                     32.769
_cell_length_c                     5.989
_cell_angle_alpha                  90.
_cell_angle_beta                   120.07
_cell_angle_gamma                  90.
_cell_volume                       1012.42
_cell_formula_units_Z              2
_symmetry_space_group_name_H-M     'C 1 m 1'
_symmetry_Int_Tables_number        8
_refine_ls_R_factor_all            .0538
loop_
_symmetry_equiv_pos_site_id
_symmetry_equiv_pos_as_xyz
  1	'x, -y, z'
  2	'x, y, z'
  3	'x+.5, -y+.5, z'
  4	'x+.5, y+.5, z'
loop_
_atom_type_symbol
_atom_type_oxidation_number
Al3+	3
Na1+	1
O2-	-2
loop_
_atom_site_label
_atom_site_type_symbol
_atom_site_symmetry_multiplicity
_atom_site_Wyckoff_symbol
_atom_site_fract_x
_atom_site_fract_y
_atom_site_fract_z
_atom_site_occupancy
_atom_site_attached_hydrogens
Na1 Na1+ 4 b -.031(3) 0.3238(3) 0.466(3) 1. 0 
Na2 Na1+ 2 a 0.488(4) 0 0.489(4) 1. 0 
Na3 Na1+ 4 b 0.107(3) 0.4539(3) 0.078(3) 1. 0 
Na4 Na1+ 4 b 0.050(3) 0.1375(4) 0.584(3) 1. 0 
Na5 Na1+ 4 b 0.090(3) 0.3619(4) 0.062(3) 1. 0 
Na6 Na1+ 4 b 0.076(3) 0.0462(3) 0.614(3) 1. 0 
Na7 Na1+ 4 b 0.193(3) 0.0881(3) 0.195(3) 1. 0 
Na8 Na1+ 4 b 0.111(3) 0.2706(3) 0.052(3) 1. 0 
Na9 Na1+ 4 b 0.072(3) 0.2251(3) 0.625(3) 1. 0 
Al1 Al3+ 2 a 0 0 0 1. 0 
Al2 Al3+ 4 b -.326(2) 0.0897(2) -.323(2) 1. 0 
Al3 Al3+ 4 b -.010(3) 0.1804(2) -.005(3) 1. 0 
O1 O2- 2 a 0.308(4) 0 0.031(5) 1. 0 
O2 O2- 2 a 0.001(5) 0 0.286(6) 1. 0 
O3 O2- 4 b -.179(5) 0.0431(6) -.171(4) 1. 0 
O4 O2- 4 b -.619(4) 0.0939(5) -.342(4) 1. 0 
O5 O2- 4 b -.354(3) 0.0931(4) -.632(3) 1. 0 
O6 O2- 4 b -.124(4) 0.1302(5) -.116(3) 1. 0 
O7 O2- 4 b 0.295(4) 0.1847(4) 0.011(4) 1. 0 
O8 O2- 4 b -.010(4) 0.1863(5) 0.278(3) 1. 0 
O9 O2- 4 b 0.277(4) 0.2842(4) 0.772(3) 1. 0 

loop_
_atom_site_aniso_label
_atom_site_aniso_type_symbol
_atom_site_aniso_U_11
_atom_site_aniso_U_22
_atom_site_aniso_U_33
_atom_site_aniso_U_12
_atom_site_aniso_U_13
_atom_site_aniso_U_23
Na1 Na1+ 0.009(4) 0.022(5) 0.012(5) -.007(4) -.008(4) -.002(4)
Na2 Na1+ 0.020(9) 0.032(9) 0.008(7) 0 -.003(6) 0
Na3 Na1+ 0.017(7) 0.015(7) 0.024(7) 0.010(4) 0.013(6) 0.011(4)
Na4 Na1+ 0.019(5) 0.020(6) 0.020(6) 0.002(4) 0.012(4) -.001(4)
Na5 Na1+ 0.026(6) 0.046(7) 0.007(5) -.009(5) 0.009(5) -.005(5)
Na6 Na1+ 0.023(7) 0.006(6) 0.016(5) 0.006(4) 0.014(6) 0.005(4)
Na7 Na1+ 0.029(6) 0.032(7) 0.026(6) 0.000(6) 0.014(5) 0.005(7)
Na8 Na1+ 0.012(4) 0.018(4) 0.013(4) -.004(3) 0.004(4) -.003(3)
Na9 Na1+ 0.007(4) 0.007(4) 0.014(4) -.002(3) 0.008(3) -.007(3)
Al1 Al3+ 0.013(5) 0.021(7) 0.006(5) 0 -.001(4) 0
Al2 Al3+ 0.003(3) 0.007(3) 0.004(3) 0.002(3) 0.003(2) 0.004(3)
Al3 Al3+ 0.008(3) 0.004(3) 0.008(3) 0.002(2) 0.004(3) 0.001(2)
O1 O2- 0.016(9) 0.01(1) 0.03(1) 0 0.021(9) 0
O2 O2- 0.02(1) 0.04(2) 0.04(2) 0 0.02(1) 0
O3 O2- 0.013(5) 0.022(6) 0.006(5) 0.002(5) 0.001(4) 0.008(5)
O4 O2- 0.023(9) 0.03(1) 0.011(8) -.001(7) -.003(6) -.013(7)
O5 O2- 0.015(6) 0.008(6) 0.009(5) 0.008(5) -.009(4) 0.006(5)
O6 O2- 0.018(9) 0.007(7) 0.008(7) -.003(5) 0.011(7) -.001(5)
O7 O2- 0.009(6) 0.012(6) 0.033(8) 0.008(6) 0.011(6) -.001(5)
O8 O2- 0.008(6) 0.028(7) 0.002(6) 0.007(5) 0.001(5) 0.002(5)
O9 O2- 0.029(9) 0.011(6) 0.011(7) -.010(5) 0.009(6) -.010(6)
#End of data_32600-ICSD


