data_35344-ICSD
#?2014 by Fachinformationszentrum Karlsruhe, and the U.S. Secretary of 
#Commerce on behalf of the United States.  All rights reserved.
_database_code_ICSD                35344
_audit_creation_date               1983/12/31
_chemical_name_systematic
;
Calcium Tripotassium Hydrogenbis(phosphate)
;
_chemical_formula_structural       'Ca K3 H (P O4)2'
_chemical_formula_sum              'H1 Ca1 K3 O8 P2'
_publ_section_title
;
A Glaserite-Type Structure: Calcium Tripotassium 
Hydrogenbis(phosphate), Ca K3 H(P O4)2
;
loop_
_citation_id
_citation_journal_abbrev
_citation_year
_citation_journal_volume
_citation_page_first
_citation_page_last
_citation_journal_id_ASTM
primary 'Acta Crystallographica, Section C: Crystal Structure Communications'
 1983 39 166 169 ACSCEE
_publ_author_name                  'Takagi, S.;Mathew, M.;Brown, W.E.'
_cell_length_a                     9.878(1)
_cell_length_b                     5.735(1)
_cell_length_c                     7.436(1)
_cell_angle_alpha                  90.
_cell_angle_beta                   94.28(1)
_cell_angle_gamma                  90.
_cell_volume                       420.08
_cell_formula_units_Z              2
_symmetry_space_group_name_H-M     'C 1 2/m 1'
_symmetry_Int_Tables_number        12
_refine_ls_R_factor_all            .017
loop_
_symmetry_equiv_pos_site_id
_symmetry_equiv_pos_as_xyz
  1	'-x, y, -z'
  2	'-x, -y, -z'
  3	'x, -y, z'
  4	'x, y, z'
  5	'-x+.5, y+.5, -z'
  6	'-x+.5, -y+.5, -z'
  7	'x+.5, -y+.5, z'
  8	'x+.5, y+.5, z'
loop_
_atom_type_symbol
_atom_type_oxidation_number
Ca2+	2
H1+	1
K1+	1
O2-	-2
P5+	5
loop_
_atom_site_label
_atom_site_type_symbol
_atom_site_symmetry_multiplicity
_atom_site_Wyckoff_symbol
_atom_site_fract_x
_atom_site_fract_y
_atom_site_fract_z
_atom_site_occupancy
_atom_site_attached_hydrogens
_atom_site_U_iso_or_equiv
Ca1 Ca2+ 2 a 0 0 0 1. 0 0 
K1 K1+ 2 c 0 0 0.5 1. 0 0 
K2 K1+ 4 i 0.33047(5) 0 0.80904(7) 1. 0 0 
P1 P5+ 4 i 0.33947(5) 0 0.25110(7) 1. 0 0 
O1 O2- 4 i 0.1852(2) 0 0.2172(2) 1. 0 0 
O2 O2- 4 i 0.3759(2) 0 0.4589(2) 1. 0 0 
O3 O2- 8 j 0.4014(1) 0.2186(2) 0.1718(1) 1. 0 0 
H1 H1+ 2 d 0.5 0 0.5 1. 0 0.017 

loop_
_atom_site_aniso_label
_atom_site_aniso_type_symbol
_atom_site_aniso_U_11
_atom_site_aniso_U_22
_atom_site_aniso_U_33
_atom_site_aniso_U_12
_atom_site_aniso_U_13
_atom_site_aniso_U_23
Ca1 Ca2+ 0.0080(3) 0.0079(3) 0.0094(3) 0 0.0008(2) 0
K1 K1+ 0.0387(5) 0.0198(4) 0.0166(4) 0 0.0032(3) 0
K2 K1+ 0.0128(2) 0.0135(2) 0.0170(3) 0 0.0022(2) 0
P1 P5+ 0.0072(3) 0.0081(3) 0.0083(2) 0 0.0004(2) 0
O1 O2- 0.0080(7) 0.0155(8) 0.0162(8) 0 -.0020(6) 0
O2 O2- 0.0168(8) 0.0293(9) 0.0087(7) 0 -.0008(6) 0
O3 O2- 0.0148(5) 0.0121(6) 0.0214(6) -.0015(4) 0.0031(5) 0.0046(4)
#End of data_35344-ICSD


