data_201750-ICSD
#?2014 by Fachinformationszentrum Karlsruhe, and the U.S. Secretary of 
#Commerce on behalf of the United States.  All rights reserved.
_database_code_ICSD                201750
_audit_creation_date               1986/12/03
_audit_update_record               2013/02/01
_chemical_name_systematic          'Dialuminium Digermanate'
_chemical_formula_structural       'Al2 (Ge2 O7)'
_chemical_formula_sum              'Al2 Ge2 O7'
_publ_section_title
;
Crystal structure of a new digermanate: Al2 Ge2 O7
;
loop_
_citation_id
_citation_journal_abbrev
_citation_year
_citation_journal_volume
_citation_page_first
_citation_page_last
_citation_journal_id_ASTM
primary 'Journal of Solid State Chemistry' 1986 62 402 404 JSSCBI
_publ_author_name
;
Agafonov, V.;Kahn, A.;Michel, D.;Perez y Jorba, M.
;
_cell_length_a                     7.132(1)
_cell_length_b                     7.741(1)
_cell_length_c                     9.702(2)
_cell_angle_alpha                  90.
_cell_angle_beta                   110.62(2)
_cell_angle_gamma                  90.
_cell_volume                       501.32
_cell_formula_units_Z              4
_symmetry_space_group_name_H-M     'C 1 2/c 1'
_symmetry_Int_Tables_number        15
_refine_ls_R_factor_all            .051
loop_
_symmetry_equiv_pos_site_id
_symmetry_equiv_pos_as_xyz
  1	'x, -y, z+.5'
  2	'-x, -y, -z'
  3	'-x, y, -z+.5'
  4	'x, y, z'
  5	'x+.5, -y+.5, z+.5'
  6	'-x+.5, -y+.5, -z'
  7	'-x+.5, y+.5, -z+.5'
  8	'x+.5, y+.5, z'
loop_
_atom_type_symbol
_atom_type_oxidation_number
Al3+	3
Ge4+	4
O2-	-2
loop_
_atom_site_label
_atom_site_type_symbol
_atom_site_symmetry_multiplicity
_atom_site_Wyckoff_symbol
_atom_site_fract_x
_atom_site_fract_y
_atom_site_fract_z
_atom_site_occupancy
_atom_site_attached_hydrogens
Ge1 Ge4+ 8 f 0.2414(1) 0.2488(1) 0.2945(1) 1. 0 
Al1 Al3+ 8 f 0.3290(4) 0.0764(5) 0.0211(3) 1. 0 
O1 O2- 4 e 0 0.1694(18) 0.25 1. 0 
O2 O2- 8 f 0.2891(11) 0.4310(11) 0.3982(7) 1. 0 
O3 O2- 8 f 0.3972(10) 0.0834(11) 0.3973(7) 1. 0 
O4 O2- 8 f 0.2887(10) 0.2739(10) 0.1292(7) 1. 0 

#End of data_201750-ICSD


