data_2216-ICSD
#?2014 by Fachinformationszentrum Karlsruhe, and the U.S. Secretary of 
#Commerce on behalf of the United States.  All rights reserved.
_database_code_ICSD                2216
_audit_creation_date               1980/01/01
_audit_update_record               2007/04/01
_chemical_name_systematic          'Dipotassium Distannate(II)'
_chemical_formula_structural       'K2 (Sn2 O3)'
_chemical_formula_sum              'K2 O3 Sn2'
_publ_section_title
;
Das erste Oxostannat(II):  K2 Sn2 O3
;
loop_
_citation_id
_citation_journal_abbrev
_citation_year
_citation_journal_volume
_citation_page_first
_citation_page_last
_citation_journal_id_ASTM
primary 'Angewandte Chemie (German Edition)' 1978 90 475 476 ANCEAD
_publ_author_name                  'Braun, R.M.'
_cell_length_a                     6.
_cell_length_b                     6.
_cell_length_c                     14.33
_cell_angle_alpha                  90.
_cell_angle_beta                   90.
_cell_angle_gamma                  120.
_cell_volume                       446.77
_cell_formula_units_Z              3
_symmetry_space_group_name_H-M     'R 3 H'
_symmetry_Int_Tables_number        146
_refine_ls_R_factor_all            .047
loop_
_symmetry_equiv_pos_site_id
_symmetry_equiv_pos_as_xyz
  1	'-x+y, -x, z'
  2	'-y, x-y, z'
  3	'x, y, z'
  4	'-x+y+.6666, -x+.3333, z+.3333'
  5	'-x+y+.3333, -x+.6666, z+.6666'
  6	'-y+.6666, x-y+.3333, z+.3333'
  7	'-y+.3333, x-y+.6666, z+.6666'
  8	'x+.6666, y+.3333, z+.3333'
  9	'x+.3333, y+.6666, z+.6666'
loop_
_atom_type_symbol
_atom_type_oxidation_number
K1+	1
O2-	-2
Sn2+	2
loop_
_atom_site_label
_atom_site_type_symbol
_atom_site_symmetry_multiplicity
_atom_site_Wyckoff_symbol
_atom_site_fract_x
_atom_site_fract_y
_atom_site_fract_z
_atom_site_occupancy
_atom_site_attached_hydrogens
_atom_site_U_iso_or_equiv
K1 K1+ 3 a 0 0 0.7445(20) 1. 0 0 
K2 K1+ 3 a 0 0 0.238(2) 1. 0 0 
Sn1 Sn2+ 3 a 0 0 0 1. 0 0 
Sn2 Sn2+ 3 a 0 0 0.4820(1) 1. 0 0 
O1 O2- 9 b 0.1685(20) 0.338(2) 0.0618(10) 1. 0 0.0380(2) 

loop_
_atom_site_aniso_label
_atom_site_aniso_type_symbol
_atom_site_aniso_U_11
_atom_site_aniso_U_22
_atom_site_aniso_U_33
_atom_site_aniso_U_12
_atom_site_aniso_U_13
_atom_site_aniso_U_23
K1 K1+ 0.0183(10) 0.0183(10) 0.016(5) 0.0092(5) 0 0
K2 K1+ 0.022(1) 0.022(1) 0.012(2) 0.0110(5) 0 0
Sn1 Sn2+ 0.0106(5) 0.0106(5) 0.0135(20) 0.0053(3) 0 0
Sn2 Sn2+ 0.0079(4) 0.0079(4) 0.008(2) 0.0039(2) 0 0
#End of data_2216-ICSD


