data_24725-ICSD
#?2014 by Fachinformationszentrum Karlsruhe, and the U.S. Secretary of 
#Commerce on behalf of the United States.  All rights reserved.
_database_code_ICSD                24725
_audit_creation_date               1980/01/01
_audit_update_record               2011/02/01
_chemical_name_systematic          'Magnesium Uranate'
_chemical_formula_structural       'Mg (U O4)'
_chemical_formula_sum              'Mg1 O4 U1'
_publ_section_title
;
Crystal chemical studies of the 5f-series of elements. XXI. The 
crystal structure of magnesium orthouranate
;
loop_
_citation_id
_citation_journal_abbrev
_citation_year
_citation_journal_volume
_citation_page_first
_citation_page_last
_citation_journal_id_ASTM
primary 'Acta Crystallographica (1,1948-23,1967)' 1954 7 788 791 ACCRA9
_publ_author_name                  'Zachariasen, W.H.'
_cell_length_a                     6.520(2)
_cell_length_b                     6.595(2)
_cell_length_c                     6.924(2)
_cell_angle_alpha                  90.
_cell_angle_beta                   90.
_cell_angle_gamma                  90.
_cell_volume                       297.73
_cell_formula_units_Z              4
_symmetry_space_group_name_H-M     'I m a m'
_symmetry_Int_Tables_number        74
loop_
_symmetry_equiv_pos_site_id
_symmetry_equiv_pos_as_xyz
  1	'-x, -y, z+.5'
  2	'-x, y, -z+.5'
  3	'-x, y, z'
  4	'-x, -y, -z'
  5	'x, y, -z+.5'
  6	'x, -y, z+.5'
  7	'x, -y, -z'
  8	'x, y, z'
  9	'-x+.5, -y+.5, z'
 10	'-x+.5, y+.5, -z'
 11	'-x+.5, y+.5, z+.5'
 12	'-x+.5, -y+.5, -z+.5'
 13	'x+.5, y+.5, -z'
 14	'x+.5, -y+.5, z'
 15	'x+.5, -y+.5, -z+.5'
 16	'x+.5, y+.5, z+.5'
loop_
_atom_type_symbol
_atom_type_oxidation_number
Mg2+	2
O2-	-2
U6+	6
loop_
_atom_site_label
_atom_site_type_symbol
_atom_site_symmetry_multiplicity
_atom_site_Wyckoff_symbol
_atom_site_fract_x
_atom_site_fract_y
_atom_site_fract_z
_atom_site_occupancy
_atom_site_attached_hydrogens
Mg1 Mg2+ 4 b 0 0.5 0 1. 0 
U1 U6+ 4 e 0 0.0222(10) 0.25 1. 0 
O1 O2- 8 i 0.295(3) 0.022(3) 0.25 1. 0 
O2 O2- 8 h 0 0.200(4) -.012(4) 1. 0 

#End of data_24725-ICSD


