data_75412-ICSD
#?2014 by Fachinformationszentrum Karlsruhe, and the U.S. Secretary of 
#Commerce on behalf of the United States.  All rights reserved.
_database_code_ICSD                75412
_audit_creation_date               1996/04/22
_chemical_name_systematic          'Potassium Manganese Fluoride'
_chemical_formula_structural       'K Mn F3'
_chemical_formula_sum              'F3 K1 Mn1'
_publ_section_title
;
High-pressure crystal structures of K Mn F3 below and above the phase 
transition at Pc=3.1GPa
;
loop_
_citation_id
_citation_journal_abbrev
_citation_year
_citation_journal_volume
_citation_page_first
_citation_page_last
_citation_journal_id_ASTM
primary 'European Journal of Solid State Inorganic Chemistry'
 1994 31 747 755 EJSCE5
_publ_author_name                  'Asbrink, S.;Waskowska, A.'
_cell_length_a                     5.817(1)
_cell_length_b                     5.817(1)
_cell_length_c                     8.256(2)
_cell_angle_alpha                  90.
_cell_angle_beta                   90.
_cell_angle_gamma                  90.
_cell_volume                       279.36
_cell_formula_units_Z              4
_symmetry_space_group_name_H-M     'I 4/m c m'
_symmetry_Int_Tables_number        140
_refine_ls_R_factor_all            .052
loop_
_symmetry_equiv_pos_site_id
_symmetry_equiv_pos_as_xyz
  1	'y, x, -z+.5'
  2	'-y, -x, -z+.5'
  3	'-y, x, -z'
  4	'y, -x, -z'
  5	'x, -y, -z+.5'
  6	'-x, y, -z+.5'
  7	'x, y, -z'
  8	'-x, -y, -z'
  9	'-y, -x, z+.5'
 10	'y, x, z+.5'
 11	'y, -x, z'
 12	'-y, x, z'
 13	'-x, y, z+.5'
 14	'x, -y, z+.5'
 15	'-x, -y, z'
 16	'x, y, z'
 17	'y+.5, x+.5, -z'
 18	'-y+.5, -x+.5, -z'
 19	'-y+.5, x+.5, -z+.5'
 20	'y+.5, -x+.5, -z+.5'
 21	'x+.5, -y+.5, -z'
 22	'-x+.5, y+.5, -z'
 23	'x+.5, y+.5, -z+.5'
 24	'-x+.5, -y+.5, -z+.5'
 25	'-y+.5, -x+.5, z'
 26	'y+.5, x+.5, z'
 27	'y+.5, -x+.5, z+.5'
 28	'-y+.5, x+.5, z+.5'
 29	'-x+.5, y+.5, z'
 30	'x+.5, -y+.5, z'
 31	'-x+.5, -y+.5, z+.5'
 32	'x+.5, y+.5, z+.5'
loop_
_atom_type_symbol
_atom_type_oxidation_number
F1-	-1
K1+	1
Mn2+	2
loop_
_atom_site_label
_atom_site_type_symbol
_atom_site_symmetry_multiplicity
_atom_site_Wyckoff_symbol
_atom_site_fract_x
_atom_site_fract_y
_atom_site_fract_z
_atom_site_occupancy
_atom_site_attached_hydrogens
_atom_site_U_iso_or_equiv
Mn1 Mn2+ 4 c 0 0 0 1. 0 0 
K1 K1+ 4 b 0 0.5 0.25 1. 0 0 
F1 F1- 8 h 0.2406(17) 0.7406(17) 0 1. 0 0.0067(14) 
F2 F1- 4 a 0 0 0.25 1. 0 0.0074(19) 

loop_
_atom_site_aniso_label
_atom_site_aniso_type_symbol
_atom_site_aniso_U_11
_atom_site_aniso_U_22
_atom_site_aniso_U_33
_atom_site_aniso_U_12
_atom_site_aniso_U_13
_atom_site_aniso_U_23
Mn1 Mn2+ 0.017(1) 0.017(1) 0.045(2) 0 0 0
K1 K1+ 0.022(2) 0.022(2) 0.049(3) 0 0 0
#End of data_75412-ICSD


