data_409813-ICSD
#?2014 by Fachinformationszentrum Karlsruhe, and the U.S. Secretary of 
#Commerce on behalf of the United States.  All rights reserved.
_database_code_ICSD                409813
_audit_creation_date               2005/10/01
_chemical_name_systematic
;
Tripotassium Tetraselenidophosphate
;
_chemical_formula_structural       'K3 P Se4'
_chemical_formula_sum              'K3 P1 Se4'
_publ_section_title
;
Crystal structure of tripotassium tetraselenidophosphate, K3 P Se4
;
loop_
_citation_id
_citation_journal_abbrev
_citation_year
_citation_journal_volume
_citation_page_first
_citation_page_last
_citation_journal_id_ASTM
primary 'Zeitschrift fuer Kristallographie - New Crystal Structures'
 2005 220 11 11 ZKNSFT
_publ_author_name
;
Chan, B.-C.;Feng, P.L.;Hulvey, Z.;Dorhout, P.K.
;
_cell_length_a                     9.393(4)
_cell_length_b                     10.954(5)
_cell_length_c                     9.578(4)
_cell_angle_alpha                  90.00
_cell_angle_beta                   90.00
_cell_angle_gamma                  90.00
_cell_volume                       985.49
_cell_formula_units_Z              4
_symmetry_space_group_name_H-M     'P n m a'
_symmetry_Int_Tables_number        62
_refine_ls_R_factor_all            .0628
loop_
_symmetry_equiv_pos_site_id
_symmetry_equiv_pos_as_xyz
  1	'x+.5, y, -z+.5'
  2	'x, -y+.5, z'
  3	'-x+.5, y+.5, z+.5'
  4	'-x, -y, -z'
  5	'-x+.5, -y, z+.5'
  6	'-x, y+.5, -z'
  7	'x+.5, -y+.5, -z+.5'
  8	'x, y, z'
loop_
_atom_type_symbol
_atom_type_oxidation_number
K1+	1
P5+	5
Se2-	-2
loop_
_atom_site_label
_atom_site_type_symbol
_atom_site_symmetry_multiplicity
_atom_site_Wyckoff_symbol
_atom_site_fract_x
_atom_site_fract_y
_atom_site_fract_z
_atom_site_occupancy
_atom_site_attached_hydrogens
_atom_site_U_iso_or_equiv
Se1 Se2- 8 d 0.16168(5) 0.41608(4) 0.46283(5) 1 0 0.03066(16) 
Se2 Se2- 4 c 0.48781(6) 0.2500 0.41529(7) 1 0 0.02657(19) 
Se3 Se2- 4 c 0.30896(7) 0.2500 0.74941(6) 1 0 0.02727(18) 
K1 K1+ 4 c -0.14571(16) 0.2500 0.41277(17) 1 0 0.0467(5) 
P1 P5+ 4 c 0.27884(16) 0.2500 0.52181(16) 1 0 0.0191(3) 
K2 K1+ 8 d 0.55356(11) 0.45527(10) 0.69849(11) 1 0 0.0342(3) 

loop_
_atom_site_aniso_label
_atom_site_aniso_type_symbol
_atom_site_aniso_U_11
_atom_site_aniso_U_22
_atom_site_aniso_U_33
_atom_site_aniso_U_12
_atom_site_aniso_U_13
_atom_site_aniso_U_23
Se1 Se2- 0.0322(3) 0.0254(3) 0.0343(3) 0.0060(2) -0.0042(2) 0.0062(2)
Se2 Se2- 0.0223(3) 0.0331(4) 0.0243(4) 0.000 0.0047(3) 0.000
Se3 Se2- 0.0307(4) 0.0328(4) 0.0183(3) 0.000 0.0000(3) 0.000
K1 K1+ 0.0376(9) 0.0672(13) 0.0354(9) 0.000 0.0088(7) 0.000
P1 P5+ 0.0190(8) 0.0200(8) 0.0183(8) 0.000 -0.0004(6) 0.000
K2 K1+ 0.0392(6) 0.0290(6) 0.0344(6) -0.0026(5) 0.0003(5) 0.0039(5)
#End of data_409813-ICSD


