data_261836-ICSD
#?2014 by Fachinformationszentrum Karlsruhe, and the U.S. Secretary of 
#Commerce on behalf of the United States.  All rights reserved.
_database_code_ICSD                261836
_audit_creation_date               2012/02/01
_chemical_name_systematic          'Lithium Holmium Ditungstate'
_chemical_formula_structural       'Li Ho W2 O8'
_chemical_formula_sum              'Ho1 Li1 O8 W2'
_publ_section_title
;
Crystal structure of Li Ln W2 O8 (Ln=Lanthanides and Y): An X-ray 
powder diffraction study
;
loop_
_citation_id
_citation_journal_abbrev
_citation_year
_citation_journal_volume
_citation_journal_issue
_citation_page_first
_citation_page_last
_citation_journal_id_ASTM
primary 'Journal of Solid State Chemistry' 2011 184 8 2004 2008 JSSCBI
_publ_author_name
;
Postema, J.M.;Fu, W.T.;Ijdo, D.J.W.
;
_cell_length_a                     10.0017(1)
_cell_length_b                     5.79143(7)
_cell_length_c                     5.00734(7)
_cell_angle_alpha                  90.
_cell_angle_beta                   94.3372(7)
_cell_angle_gamma                  90.
_cell_volume                       289.22
_cell_formula_units_Z              2
_symmetry_space_group_name_H-M     'P 1 2/n 1'
_symmetry_Int_Tables_number        13
_refine_ls_R_factor_all            .0532
loop_
_symmetry_equiv_pos_site_id
_symmetry_equiv_pos_as_xyz
  1	'x+.5, -y, z+.5'
  2	'-x+.5, y, -z+.5'
  3	'-x, -y, -z'
  4	'x, y, z'
loop_
_atom_type_symbol
_atom_type_oxidation_number
Ho3+	3
Li1+	1
O2-	-2
W6+	6
loop_
_atom_site_label
_atom_site_type_symbol
_atom_site_symmetry_multiplicity
_atom_site_Wyckoff_symbol
_atom_site_fract_x
_atom_site_fract_y
_atom_site_fract_z
_atom_site_occupancy
_atom_site_attached_hydrogens
_atom_site_B_iso_or_equiv
Li1 Li1+ 2 f 0.25 0.217(6) 0.75 1. 0 0.31(2) 
Ho1 Ho3+ 2 e 0.25 0.6997(3) 0.25 1. 0 0.31(2) 
W1 W6+ 4 g 0.01731(7) 0.1827(1) 0.2525(2) 1. 0 0.31(2) 
O1 O2- 4 g 0.1119(8) 0.621(1) 0.894(1) 1. 0 0.31(2) 
O2 O2- 4 g 0.1362(8) 0.377(1) 0.410(2) 1. 0 0.31(2) 
O3 O2- 4 g 0.1137(8) 0.089(1) 0.964(2) 1. 0 0.31(2) 
O4 O2- 4 g 0.0960(8) 0.890(1) 0.456(1) 1. 0 0.31(2) 

#End of data_261836-ICSD


