data_261119-ICSD
#?2014 by Fachinformationszentrum Karlsruhe, and the U.S. Secretary of 
#Commerce on behalf of the United States.  All rights reserved.
_database_code_ICSD                261119
_audit_creation_date               2011/02/01
_chemical_name_systematic
;
Dipotassium Lanthanum Pentachloride
;
_chemical_formula_structural       'K2 La Cl5'
_chemical_formula_sum              'Cl5 K2 La1'
_publ_section_title                'K2 La Cl5'
loop_
_citation_id
_citation_journal_abbrev
_citation_year
_citation_journal_volume
_citation_journal_issue
_citation_page_first
_citation_page_last
_citation_journal_id_ASTM
primary 'Acta Crystallographica, Section E. Structure Reports Online'
 2010 66 12 i78 i78 ACSEBH
_publ_author_name                  'Schurz, C.M.;Schleid, T.;Meyer, G.'
_cell_length_a                     12.7402(8)
_cell_length_b                     8.8635(6)
_cell_length_c                     8.0174(5)
_cell_angle_alpha                  90.00
_cell_angle_beta                   90.00
_cell_angle_gamma                  90.00
_cell_volume                       905.35
_cell_formula_units_Z              4
_symmetry_space_group_name_H-M     'P n m a'
_symmetry_Int_Tables_number        62
_refine_ls_R_factor_all            .0592
loop_
_symmetry_equiv_pos_site_id
_symmetry_equiv_pos_as_xyz
  1	'x+.5, y, -z+.5'
  2	'x, -y+.5, z'
  3	'-x+.5, y+.5, z+.5'
  4	'-x, -y, -z'
  5	'-x+.5, -y, z+.5'
  6	'-x, y+.5, -z'
  7	'x+.5, -y+.5, -z+.5'
  8	'x, y, z'
loop_
_atom_type_symbol
_atom_type_oxidation_number
Cl1-	-1
K1+	1
La3+	3
loop_
_atom_site_label
_atom_site_type_symbol
_atom_site_symmetry_multiplicity
_atom_site_Wyckoff_symbol
_atom_site_fract_x
_atom_site_fract_y
_atom_site_fract_z
_atom_site_occupancy
_atom_site_attached_hydrogens
_atom_site_U_iso_or_equiv
K1 K1+ 8 d 0.67125(15) 0.4946(3) 0.5481(3) 1 0 0.0379(5) 
La1 La3+ 4 c 0.50680(5) 0.2500 0.07776(8) 1 0 0.0248(2) 
Cl1 Cl1- 4 c -0.0065(2) 0.7500 0.9311(4) 1 0 0.0310(6) 
Cl2 Cl1- 4 c 0.7911(2) 0.2500 0.3299(4) 1 0 0.0333(7) 
Cl3 Cl1- 4 c 0.6828(2) 0.2500 0.8662(4) 1 0 0.0374(8) 
Cl4 Cl1- 8 d 0.57990(17) 0.5441(3) 0.1663(3) 1 0 0.0342(5) 

loop_
_atom_site_aniso_label
_atom_site_aniso_type_symbol
_atom_site_aniso_U_11
_atom_site_aniso_U_22
_atom_site_aniso_U_33
_atom_site_aniso_U_12
_atom_site_aniso_U_13
_atom_site_aniso_U_23
K1 K1+ 0.0381(10) 0.0363(14) 0.0393(11) 0.0014(8) -0.0014(7) -0.0070(9)
La1 La3+ 0.0286(3) 0.0234(4) 0.0222(3) 0.000 0.0022(3) 0.000
Cl1 Cl1- 0.0347(13) 0.0354(17) 0.0228(11) 0.000 0.0016(12) 0.000
Cl2 Cl1- 0.0282(13) 0.039(2) 0.0322(15) 0.000 0.0006(11) 0.000
Cl3 Cl1- 0.0368(15) 0.045(2) 0.0308(15) 0.000 0.0088(12) 0.000
Cl4 Cl1- 0.0460(12) 0.0267(13) 0.0301(10) -0.0030(9) -0.0102(8) 0.0025(8)
#End of data_261119-ICSD


