data_10359-ICSD
#?2014 by Fachinformationszentrum Karlsruhe, and the U.S. Secretary of 
#Commerce on behalf of the United States.  All rights reserved.
_database_code_ICSD                10359
_audit_creation_date               1980/01/01
_audit_update_record               2000/07/15
_chemical_name_systematic          'Strontium Tetraoxohexaargentate(I)'
_chemical_formula_structural       'Sr (Ag6 O4)'
_chemical_formula_sum              'Ag6 O4 Sr1'
_publ_section_title                'Strontiumargentat Sr Ag6 O4'
loop_
_citation_id
_citation_journal_abbrev
_citation_year
_citation_journal_volume
_citation_page_first
_citation_page_last
_citation_journal_id_ASTM
primary 'Zeitschrift fuer Anorganische und Allgemeine Chemie (1950) (DE)'
 1972 393 266 274 ZAACAB
_publ_author_name                  'Keller, H.L.;Mueller Buschbaum, H.'
_cell_length_a                     6.518
_cell_length_b                     12.416
_cell_length_c                     8.909
_cell_angle_alpha                  90.
_cell_angle_beta                   90.
_cell_angle_gamma                  90.
_cell_volume                       720.98
_cell_formula_units_Z              4
_symmetry_space_group_name_H-M     'P n n a'
_symmetry_Int_Tables_number        52
loop_
_symmetry_equiv_pos_site_id
_symmetry_equiv_pos_as_xyz
  1	'x+.5, -y+.5, z+.5'
  2	'-x, y+.5, z+.5'
  3	'x+.5, y, -z'
  4	'-x, -y, -z'
  5	'-x+.5, y+.5, -z+.5'
  6	'x, -y+.5, -z+.5'
  7	'-x+.5, -y, z'
  8	'x, y, z'
loop_
_atom_type_symbol
_atom_type_oxidation_number
Ag1+	1
O2-	-2
Sr2+	2
loop_
_atom_site_label
_atom_site_type_symbol
_atom_site_symmetry_multiplicity
_atom_site_Wyckoff_symbol
_atom_site_fract_x
_atom_site_fract_y
_atom_site_fract_z
_atom_site_occupancy
_atom_site_attached_hydrogens
Sr1 Sr2+ 4 c 0.25 0 0.618 1. 0 
Ag1 Ag1+ 4 a 0 0 0 1. 0 
Ag2 Ag1+ 8 e 0.204 0.122 0.263 1. 0 
Ag3 Ag1+ 8 e 0.923 0.239 0.038 1. 0 
Ag4 Ag1+ 4 d 0.598 0.25 0.25 1. 0 
O1 O2- 8 e 0.453 0.12 0.416 1. 0 
O2 O2- 8 e 0.9 0.103 0.17 1. 0 

#End of data_10359-ICSD


