data_249162-ICSD
#?2014 by Fachinformationszentrum Karlsruhe, and the U.S. Secretary of 
#Commerce on behalf of the United States.  All rights reserved.
_database_code_ICSD                249162
_audit_creation_date               2008/02/01
_chemical_name_systematic
;
Dipotassium Bismuth Phosphate(V) Tungstate(VI)
;
_chemical_formula_structural       'K2 (Bi (P O4) (W O4))'
_chemical_formula_sum              'Bi1 K2 O8 P1 W1'
_publ_section_title
;
K2 Bi (P O4) (W O4) with a layered anionic substructure
;
loop_
_citation_id
_citation_journal_abbrev
_citation_year
_citation_journal_volume
_citation_journal_issue
_citation_page_first
_citation_page_last
_citation_journal_id_ASTM
primary 'Acta Crystallographica, Section E. Structure Reports Online'
 2006 62 9 i193 i195 ACSEBH
_publ_author_name
;
Zatovskii, I.V.;Terebilenko, V.;Slobodyanik, N.S.;Baumer, 
V.N.;Shishkin, O.V.
;
_cell_length_a                     19.7253(12)
_cell_length_b                     12.4764(8)
_cell_length_c                     7.0284(2)
_cell_angle_alpha                  90
_cell_angle_beta                   90
_cell_angle_gamma                  90
_cell_volume                       1729.69
_cell_formula_units_Z              8
_symmetry_space_group_name_H-M     'I b c a'
_symmetry_Int_Tables_number        73
_refine_ls_R_factor_all            .035
loop_
_symmetry_equiv_pos_site_id
_symmetry_equiv_pos_as_xyz
  1	'x, y+.5, -z'
  2	'x+.5, -y, z'
  3	'-x, y, z+.5'
  4	'-x, -y, -z'
  5	'-x, -y+.5, z'
  6	'-x+.5, y, -z'
  7	'x, -y, -z+.5'
  8	'x, y, z'
  9	'x+.5, y, -z+.5'
 10	'x, -y+.5, z+.5'
 11	'-x+.5, y+.5, z'
 12	'-x+.5, -y+.5, -z+.5'
 13	'-x+.5, -y, z+.5'
 14	'-x, y+.5, -z+.5'
 15	'x+.5, -y+.5, -z'
 16	'x+.5, y+.5, z+.5'
loop_
_atom_type_symbol
_atom_type_oxidation_number
Bi3+	3
K1+	1
O2-	-2
P5+	5
W6+	6
loop_
_atom_site_label
_atom_site_type_symbol
_atom_site_symmetry_multiplicity
_atom_site_Wyckoff_symbol
_atom_site_fract_x
_atom_site_fract_y
_atom_site_fract_z
_atom_site_occupancy
_atom_site_attached_hydrogens
_atom_site_U_iso_or_equiv
Bi1 Bi3+ 8 d 0.25 0.58132(3) 0 1 0 0.01877(16) 
K1 K1+ 16 f 0.09397(11) 0.82941(18) 0.2169(3) 1 0 0.0364(5) 
W1 W6+ 8 c 0.08130(2) 0.5 0.25 1 0 0.02461(17) 
P1 P5+ 8 d 0.25 0.8233(2) 0 1 0 0.0181(5) 
O1 O2- 16 f 0.2383(3) 0.9000(4) 0.1678(9) 1 0 0.0261(12) 
O2 O2- 16 f 0.3119(3) 0.7495(5) 0.0267(8) 1 0 0.0246(11) 
O3 O2- 16 f 0.1313(3) 0.5328(5) 0.0474(10) 1 0 0.0304(13) 
O4 O2- 16 f 0.0306(4) 0.3891(6) 0.1851(13) 1 0 0.0449(17) 

loop_
_atom_site_aniso_label
_atom_site_aniso_type_symbol
_atom_site_aniso_U_11
_atom_site_aniso_U_22
_atom_site_aniso_U_33
_atom_site_aniso_U_12
_atom_site_aniso_U_13
_atom_site_aniso_U_23
Bi1 Bi3+ 0.0193(2) 0.0175(2) 0.0195(2) 0 -0.00022(13) 0
K1 K1+ 0.0239(9) 0.0481(12) 0.0373(10) 0.0068(8) 0.0007(8) -0.0019(8)
W1 W6+ 0.0166(2) 0.0274(2) 0.0298(3) 0 0 0.00104(17)
P1 P5+ 0.0222(13) 0.0138(11) 0.0181(13) 0 0.0006(9) 0
O1 O2- 0.043(3) 0.021(2) 0.014(2) -0.004(2) 0.004(2) -0.002(2)
O2 O2- 0.025(3) 0.020(2) 0.029(3) 0.001(2) -0.002(2) 0.004(2)
O3 O2- 0.023(3) 0.033(3) 0.035(3) -0.003(2) 0.003(3) 0.007(3)
O4 O2- 0.035(4) 0.050(4) 0.049(4) -0.020(3) -0.002(3) -0.001(4)
#End of data_249162-ICSD


