data_66978-ICSD
#?2014 by Fachinformationszentrum Karlsruhe, and the U.S. Secretary of 
#Commerce on behalf of the United States.  All rights reserved.
_database_code_ICSD                66978
_audit_creation_date               1998/06/26
_audit_update_record               2013/08/01
_chemical_name_systematic          'Sodium Cis-dioxodinitrate(N-N)(I)'
_chemical_formula_structural       'Na2 (N2 O2)'
_chemical_formula_sum              'N2 Na2 O2'
_publ_section_title
;
Zur Kenntnis von cis-Natriumhyponitrit
;
loop_
_citation_id
_citation_journal_abbrev
_citation_year
_citation_journal_volume
_citation_page_first
_citation_page_last
_citation_journal_id_ASTM
primary 'Zeitschrift fuer Anorganische und Allgemeine Chemie (1950) (DE)'
 1997 623 1803 1809 ZAACAB
_publ_author_name                  'Feldmann, C.;Jansen, M.'
_cell_length_a                     5.107(1)
_cell_length_b                     9.211(1)
_cell_length_c                     6.159(1)
_cell_angle_alpha                  90.
_cell_angle_beta                   97.91(1)
_cell_angle_gamma                  90.
_cell_volume                       286.97
_cell_formula_units_Z              4
_symmetry_space_group_name_H-M     'P 1 21/c 1'
_symmetry_Int_Tables_number        14
_refine_ls_R_factor_all            .13
loop_
_symmetry_equiv_pos_site_id
_symmetry_equiv_pos_as_xyz
  1	'x, -y+.5, z+.5'
  2	'-x, -y, -z'
  3	'-x, y+.5, -z+.5'
  4	'x, y, z'
loop_
_atom_type_symbol
_atom_type_oxidation_number
N1+	1
Na1+	1
O2-	-2
loop_
_atom_site_label
_atom_site_type_symbol
_atom_site_symmetry_multiplicity
_atom_site_Wyckoff_symbol
_atom_site_fract_x
_atom_site_fract_y
_atom_site_fract_z
_atom_site_occupancy
_atom_site_attached_hydrogens
Na1 Na1+ 4 e 0.3206(7) 0.4389(3) 0.7177(5) 1. 0 
Na2 Na1+ 4 e 0.2176(6) 0.7512(3) 0.5568(5) 1. 0 
N1 N1+ 4 e 0.0957(11) 0.4310(7) 0.2519(10) 1. 0 
N2 N1+ 4 e 0.2065(9) 0.3335(6) 0.1699(8) 1. 0 
O1 O2- 4 e 0.2321(10) 0.5559(5) 0.3274(9) 1. 0 
O2 O2- 4 e 0.4763(8) 0.3518(5) 0.1516(7) 1. 0 

loop_
_atom_site_aniso_label
_atom_site_aniso_type_symbol
_atom_site_aniso_B_11
_atom_site_aniso_B_22
_atom_site_aniso_B_33
_atom_site_aniso_B_12
_atom_site_aniso_B_13
_atom_site_aniso_B_23
Na1 Na1+ 3.6(2) 3.6(2) 4.4(2) 1.3(2) 1.6(2) -.5(2)
Na2 Na1+ 3.6(2) 4.7(2) 5.0(2) -.6(2) -.1(2) 0.3(2)
N1 N1+ 3.8(5) 2.0(2) 6.3(5) 2.1(3) 1.9(4) -.8(3)
N2 N1+ 6.8(3) 3.6(3) 2.4(4) 1.2(3) 2.9(3) -.2(3)
O1 O2- 2.4(3) 4.2(3) 6.9(4) -2.0(3) 0.9(3) 0.4(3)
O2 O2- 2.5(2) 2.7(3) 4.5(4) 0.7(2) 1.8(3) -.6(3)
#End of data_66978-ICSD


