data_170822-ICSD
#?2014 by Fachinformationszentrum Karlsruhe, and the U.S. Secretary of 
#Commerce on behalf of the United States.  All rights reserved.
_database_code_ICSD                170822
_audit_creation_date               2006/04/01
_chemical_name_systematic          'Calcium Copper Germanate'
_chemical_formula_structural       'Ca Cu Ge2 O6'
_chemical_formula_sum              'Ca1 Cu1 Ge2 O6'
_chemical_name_mineral             Clinopyroxene
_publ_section_title
;
Crystal structure of the clinopyroxene-type compound Ca Cu Ge2 O6 
between 15 K and 700 K
;
loop_
_citation_id
_citation_journal_abbrev
_citation_year
_citation_journal_volume
_citation_page_first
_citation_page_last
_citation_journal_id_ASTM
primary 'Acta Crystallographica, Section B: Structural Science'
 2005 61 367 380 ASBSDK
_publ_author_name
;
Redhammer, G.J.;Tippelt, G.;Merz, M.;Roth, G.;Treutmann, W.;Amthauer, 
G.
;
_cell_length_a                     10.2405(12)
_cell_length_b                     9.1780(8)
_cell_length_c                     5.4003(7)
_cell_angle_alpha                  90
_cell_angle_beta                   107.072(11)
_cell_angle_gamma                  90
_cell_volume                       485.19
_cell_formula_units_Z              4
_symmetry_space_group_name_H-M     'C 1 2/c 1'
_symmetry_Int_Tables_number        15
_refine_ls_R_factor_all            .026
loop_
_symmetry_equiv_pos_site_id
_symmetry_equiv_pos_as_xyz
  1	'x, -y, z+.5'
  2	'-x, -y, -z'
  3	'-x, y, -z+.5'
  4	'x, y, z'
  5	'x+.5, -y+.5, z+.5'
  6	'-x+.5, -y+.5, -z'
  7	'-x+.5, y+.5, -z+.5'
  8	'x+.5, y+.5, z'
loop_
_atom_type_symbol
_atom_type_oxidation_number
Ca2+	2
Cu2+	2
Ge4+	4
O2-	-2
loop_
_atom_site_label
_atom_site_type_symbol
_atom_site_symmetry_multiplicity
_atom_site_Wyckoff_symbol
_atom_site_fract_x
_atom_site_fract_y
_atom_site_fract_z
_atom_site_occupancy
_atom_site_attached_hydrogens
_atom_site_U_iso_or_equiv
Ca1 Ca2+ 4 e 0 0.30077(17) 0.25 1 0 0.0207(4) 
Cu1 Cu2+ 4 e 0 0.90638(11) 0.25 1 0 0.0159(2) 
Ge1 Ge4+ 8 f 0.28308(5) 0.09741(6) 0.21294(11) 1 0 0.01320(19) 
O1 O2- 8 f 0.1064(3) 0.0916(5) 0.1211(8) 1 0 0.0195(8) 
O2 O2- 8 f 0.3599(4) 0.2586(4) 0.3324(9) 1 0 0.0301(11) 
O3 O2- 8 f 0.3558(4) 0.0266(5) -0.0208(8) 1 0 0.0204(9) 

loop_
_atom_site_aniso_label
_atom_site_aniso_type_symbol
_atom_site_aniso_U_11
_atom_site_aniso_U_22
_atom_site_aniso_U_33
_atom_site_aniso_U_12
_atom_site_aniso_U_13
_atom_site_aniso_U_23
Ca1 Ca2+ 0.0253(8) 0.0193(8) 0.0164(9) 0 0.0045(7) 0
Cu1 Cu2+ 0.0153(4) 0.0212(4) 0.0095(5) 0 0.0010(4) 0
Ge1 Ge4+ 0.0111(3) 0.0172(3) 0.0112(3) 0.0004(2) 0.0030(2) -0.0016(3)
O1 O2- 0.0096(14) 0.035(2) 0.012(2) 0.0061(17) -0.0009(15) 0.0016(18)
O2 O2- 0.036(2) 0.023(2) 0.029(3) -0.0069(16) 0.005(2) -0.0091(18)
O3 O2- 0.0146(17) 0.031(2) 0.015(2) 0.0009(15) 0.0028(17) -0.0097(17)
#End of data_170822-ICSD


