data_83434-ICSD
#?2014 by Fachinformationszentrum Karlsruhe, and the U.S. Secretary of 
#Commerce on behalf of the United States.  All rights reserved.
_database_code_ICSD                83434
_audit_creation_date               1998/06/26
_chemical_name_systematic          'Dialuminium Bromide'
_chemical_formula_structural       'Al2 Br6'
_chemical_formula_sum              'Al2 Br6'
_publ_section_title
;
Redetermination of the crystal structure of Al2 Br6. A comparison of 
three methods
;
loop_
_citation_id
_citation_journal_abbrev
_citation_year
_citation_journal_volume
_citation_page_first
_citation_page_last
_citation_journal_id_ASTM
primary 'Acta Chemica Scandinavica (43,1989-)' 1997 51 442 448 ACHSE7
_publ_author_name
;
Berg, R.W.;Poulsen, F.W.;Nielsen, K.
;
_cell_length_a                     10.3082(1)
_cell_length_b                     7.1012(1)
_cell_length_c                     7.5364(1)
_cell_angle_alpha                  90.
_cell_angle_beta                   96.418(2)
_cell_angle_gamma                  90.
_cell_volume                       548.21
_cell_formula_units_Z              2
_symmetry_space_group_name_H-M     'P 1 21/a 1'
_symmetry_Int_Tables_number        14
_refine_ls_R_factor_all            .045
loop_
_symmetry_equiv_pos_site_id
_symmetry_equiv_pos_as_xyz
  1	'x+.5, -y+.5, z'
  2	'-x, -y, -z'
  3	'-x+.5, y+.5, -z'
  4	'x, y, z'
loop_
_atom_type_symbol
_atom_type_oxidation_number
Al3+	3
Br1-	-1
loop_
_atom_site_label
_atom_site_type_symbol
_atom_site_symmetry_multiplicity
_atom_site_Wyckoff_symbol
_atom_site_fract_x
_atom_site_fract_y
_atom_site_fract_z
_atom_site_occupancy
_atom_site_attached_hydrogens
_atom_site_B_iso_or_equiv
Al1 Al3+ 4 e 0.0533(16) 0.1128(20) 0.1950(21) 1. 0 4.8(5) 
Br1 Br1- 4 e 0.1470(7) 0.0633(9) -.0784(11) 1. 0 6.01(7) 
Br2 Br1- 4 e 0.1650(7) -.0842(10) 0.4042(11) 1. 0 6.01(7) 
Br3 Br1- 4 e 0.0131(7) 0.3927(7) 0.2511(10) 1. 0 6.01(7) 

#End of data_83434-ICSD


