data_153175-ICSD
#?2014 by Fachinformationszentrum Karlsruhe, and the U.S. Secretary of 
#Commerce on behalf of the United States.  All rights reserved.
_database_code_ICSD                153175
_audit_creation_date               2006/10/01
_chemical_name_systematic
;
Tetrapotassium Bis(tellurato(IV))pentaoxopentakis(dioxouranate)
;
_chemical_formula_structural       'K4 ((U O2)5 (Te O3)2 O5)'
_chemical_formula_sum              'K4 O21 Te2 U5'
_publ_section_title
;
Molten salt flux synthesis and structure of the new layered uranyl 
tellurite, K4 ((U O2)5 (Te O3)2 O5)
;
loop_
_citation_id
_citation_journal_abbrev
_citation_year
_citation_journal_volume
_citation_page_first
_citation_page_last
_citation_journal_id_ASTM
primary 'Journal of Solid State Chemistry' 2005 178 2922 2926 JSSCBI
_publ_author_name
;
Woodward, J.D.;Albrecht Schmitt, T.E.
;
_cell_length_a                     6.8514(5)
_cell_length_b                     7.1064(5)
_cell_length_c                     11.3135(8)
_cell_angle_alpha                  99.642(1)
_cell_angle_beta                   93.591(1)
_cell_angle_gamma                  100.506(1)
_cell_volume                       531.48
_cell_formula_units_Z              1
_symmetry_space_group_name_H-M     'P -1'
_symmetry_Int_Tables_number        2
_refine_ls_R_factor_all            .0419
loop_
_symmetry_equiv_pos_site_id
_symmetry_equiv_pos_as_xyz
  1	'-x, -y, -z'
  2	'x, y, z'
loop_
_atom_type_symbol
_atom_type_oxidation_number
K1+	1
O2-	-2
Te4+	4
U6+	6
loop_
_atom_site_label
_atom_site_type_symbol
_atom_site_symmetry_multiplicity
_atom_site_Wyckoff_symbol
_atom_site_fract_x
_atom_site_fract_y
_atom_site_fract_z
_atom_site_occupancy
_atom_site_attached_hydrogens
_atom_site_U_iso_or_equiv
U1 U6+ 2 i 0.1242(1) 0.5686(1) 0.1805(1) 1. 0 0.011(1) 
U2 U6+ 1 a 0 0 0 1. 0 0.011(1) 
U3 U6+ 2 i 0.2231(1) 0.1234(1) 0.3156(1) 1. 0 0.012(1) 
Te1 Te4+ 2 i 0.6825(1) 0.3196(1) 0.5147(1) 1. 0 0.013(1) 
K1 K1+ 2 i 0.5627(3) 0.2947(3) 0.0830(2) 1. 0 0.022(1) 
K2 K1+ 2 i 0.3036(3) 0.1630(3) 0.7327(2) 1. 0 0.020(1) 
O1 O2- 2 i 0.3799(12) 0.6189(11) 0.1327(8) 1. 0 0.021(2) 
O2 O2- 2 i -0.1228(13) 0.5212(11) 0.2376(9) 1. 0 0.023(2) 
O3 O2- 2 i 0.0817(10) 0.8734(9) 0.1635(7) 1. 0 0.014(1) 
O4 O2- 1 c 0 0.5 0 1. 0 0.039(3) 
O5 O2- 2 i 0.1306(10) 0.2466(9) 0.1517(7) 1. 0 0.014(1) 
O6 O2- 2 i 0.2542(12) 0.0091(12) -0.0490(7) 1. 0 0.019(2) 
O7 O2- 2 i 0.4708(11) 0.1220(11) 0.2643(7) 1. 0 0.017(2) 
O8 O2- 2 i -0.0146(12) 0.1266(11) 0.3787(8) 1. 0 0.022(2) 
O9 O2- 2 i 0.4080(11) 0.2288(11) 0.5089(7) 1. 0 0.020(2) 
O10 O2- 2 i 0.7098(12) 0.5292(10) 0.6427(7) 1. 0 0.022(2) 
O11 O2- 2 i 0.7631(12) 0.1771(10) 0.6264(7) 1. 0 0.021(2) 

#End of data_153175-ICSD


