data_74594-ICSD
#?2014 by Fachinformationszentrum Karlsruhe, and the U.S. Secretary of 
#Commerce on behalf of the United States.  All rights reserved.
_database_code_ICSD                74594
_audit_creation_date               1995/10/17
_audit_update_record               2003/04/01
_chemical_name_systematic          'Potassium Oxotitanium Arsenate(V)'
_chemical_formula_structural       'K (Ti O) (As O4)'
_chemical_formula_sum              'As1 K1 O5 Ti1'
_publ_section_title
;
High-temperature single-crystal X-ray diffraction studies of 
potassium and (cesium,potassium) titanyl arsenates
;
loop_
_citation_id
_citation_journal_abbrev
_citation_year
_citation_journal_volume
_citation_page_first
_citation_page_last
_citation_journal_id_ASTM
primary 'Chemistry of Materials' 1994 6 434 440 CMATEX
_publ_author_name
;
Northrup, P.A.;Parise, J.B.;Cheng, L.K.;Cheng, L.T.;McCarron, E.M.
;
_cell_length_a                     13.2386(23)
_cell_length_b                     6.6417(12)
_cell_length_c                     10.7189(17)
_cell_angle_alpha                  90.
_cell_angle_beta                   90.
_cell_angle_gamma                  90.
_cell_volume                       942.48
_cell_formula_units_Z              8
_symmetry_space_group_name_H-M     'P n a 21'
_symmetry_Int_Tables_number        33
_refine_ls_R_factor_all            .056
loop_
_symmetry_equiv_pos_site_id
_symmetry_equiv_pos_as_xyz
  1	'x+.5, -y+.5, z'
  2	'-x+.5, y+.5, z+.5'
  3	'-x, -y, z+.5'
  4	'x, y, z'
loop_
_atom_type_symbol
_atom_type_oxidation_number
As5+	5
K1+	1
O2-	-2
Ti4+	4
loop_
_atom_site_label
_atom_site_type_symbol
_atom_site_symmetry_multiplicity
_atom_site_Wyckoff_symbol
_atom_site_fract_x
_atom_site_fract_y
_atom_site_fract_z
_atom_site_occupancy
_atom_site_attached_hydrogens
_atom_site_B_iso_or_equiv
K1 K1+ 4 a 0.3816(11) 0.785(2) 0.347(2) 1. 0 12.4(12) 
K2 K1+ 4 a 0.1077(8) 0.706(3) 0.094(2) 1. 0 11.4(12) 
Ti1 Ti4+ 4 a 0.3725(2) 0.501(1) 0 1. 0 2.1(2) 
Ti2 Ti4+ 4 a 0.2505(5) 0.251(1) 0.2526(11) 1. 0 2.3(1) 
As1 As5+ 4 a 0.5006(2) 0.3278(2) 0.2540(9) 1. 0 1.86(5) 
As2 As5+ 4 a 0.1798(1) 0.4987(5) 0.5034(9) 1. 0 1.9(1) 
O1 O2- 4 a 0.9892(16) 0.017(6) 0.129(4) 1. 0 6.0(13) 
O2 O2- 4 a 0.5172(12) 0.477(3) 0.378(2) 1. 0 2.4(6) 
O3 O2- 4 a 0.3986(13) 0.183(4) 0.286(2) 1. 0 2.7(7) 
O4 O2- 4 a 0.1033(15) 0.324(3) 0.241(2) 1. 0 2.6(7) 
O5 O2- 4 a 0.3927(11) 0.801(3) 0.042(2) 1. 0 2.5(7) 
O6 O2- 4 a 0.6126(23) 0.798(4) 0.468(3) 1. 0 6.6(15) 
O7 O2- 4 a 0.2445(14) 0.037(4) 0.125(2) 1. 0 3.2(8) 
O8 O2- 4 a 0.2617(16) 0.456(4) 0.380(3) 1. 0 4.(1) 
O9 O2- 4 a 0.2152(17) 0.055(3) 0.372(3) 1. 0 2.7(7) 
O10 O2- 4 a 0.2764(16) 0.452(4) 0.122(3) 1. 0 3.0(8) 

#End of data_74594-ICSD


