data_27554-ICSD
#?2014 by Fachinformationszentrum Karlsruhe, and the U.S. Secretary of 
#Commerce on behalf of the United States.  All rights reserved.
_database_code_ICSD                27554
_audit_creation_date               1980/01/01
_audit_update_record               2012/08/01
_chemical_name_systematic          'Trizinc Bis(phosphate(V)) - Alpha'
_chemical_formula_structural       'Zn3 (P O4)2'
_chemical_formula_sum              'O8 P2 Zn3'
_publ_section_title
;
The crystal structure of alpha-Zn3 (P O4)2
;
loop_
_citation_id
_citation_journal_abbrev
_citation_year
_citation_journal_volume
_citation_page_first
_citation_page_last
_citation_journal_id_ASTM
primary 'Canadian Journal of Chemistry' 1965 43 436 445 CJCHAG
2 'Phase Transition' 1992 38 127 220 PHTRDP
_publ_author_name                  'Calvo, C.'
_cell_length_a                     8.14(2)
_cell_length_b                     5.63(1)
_cell_length_c                     15.04(4)
_cell_angle_alpha                  90.
_cell_angle_beta                   105.13(8)
_cell_angle_gamma                  90.
_cell_volume                       665.36
_cell_formula_units_Z              4
_symmetry_space_group_name_H-M     'C 1 2/c 1'
_symmetry_Int_Tables_number        15
_refine_ls_R_factor_all            .091
loop_
_symmetry_equiv_pos_site_id
_symmetry_equiv_pos_as_xyz
  1	'x, -y, z+.5'
  2	'-x, -y, -z'
  3	'-x, y, -z+.5'
  4	'x, y, z'
  5	'x+.5, -y+.5, z+.5'
  6	'-x+.5, -y+.5, -z'
  7	'-x+.5, y+.5, -z+.5'
  8	'x+.5, y+.5, z'
loop_
_atom_type_symbol
_atom_type_oxidation_number
O2-	-2
P5+	5
Zn2+	2
loop_
_atom_site_label
_atom_site_type_symbol
_atom_site_symmetry_multiplicity
_atom_site_Wyckoff_symbol
_atom_site_fract_x
_atom_site_fract_y
_atom_site_fract_z
_atom_site_occupancy
_atom_site_attached_hydrogens
Zn1 Zn2+ 4 e 0 0.7448(9) 0.25 1. 0 
Zn2 Zn2+ 8 f 0.2678(2) 0.5548(7) 0.0675(1) 1. 0 
P1 P5+ 8 f 0.1592(4) 0.0634(14) 0.1286(2) 1. 0 
O1 O2- 8 f 0.2929(14) 0.0607(39) 0.2211(8) 1. 0 
O2 O2- 8 f 0.1197(16) 0.3092(43) 0.0770(8) 1. 0 
O3 O2- 8 f 0.2129(14) 0.9021(41) 0.0625(7) 1. 0 
O4 O2- 8 f 0.9935(13) 0.9676(33) 0.1429(6) 1. 0 

loop_
_atom_site_aniso_label
_atom_site_aniso_type_symbol
_atom_site_aniso_U_11
_atom_site_aniso_U_22
_atom_site_aniso_U_33
_atom_site_aniso_U_12
_atom_site_aniso_U_13
_atom_site_aniso_U_23
Zn1 Zn2+ 0.004 0.009 0.005 0 0 0
Zn2 Zn2+ 0.007 0.009 0.01 0 0.001 0.002
P1 P5+ 0.004 0.007 0.004 -.003 0.001 -.001
O1 O2- 0.009 0.008 0.014 0.001 -.003 -.01
O2 O2- 0.017 0.011 0.013 -.013 0.002 0
O3 O2- 0.017 0.01 0.013 -.004 0 -.004
O4 O2- 0.011 0.013 0.006 0.006 -.001 0.005
#End of data_27554-ICSD


