data_249657-ICSD
#?2014 by Fachinformationszentrum Karlsruhe, and the U.S. Secretary of 
#Commerce on behalf of the United States.  All rights reserved.
_database_code_ICSD                249657
_audit_creation_date               2009/02/01
_chemical_name_systematic
;
Magnesium Bis(borohydride) Diammine
;
_chemical_formula_structural       'Mg (B H4)2 (N H3)2'
_chemical_formula_sum              'H14 B2 Mg1 N2'
_publ_section_title
;
Ammine magnesium borohydride complex as a new material for hydrogen 
storage: structure and properties of Mg (B H4)2 * 2 NH3
;
loop_
_citation_id
_citation_journal_abbrev
_citation_year
_citation_journal_volume
_citation_journal_issue
_citation_page_first
_citation_page_last
_citation_journal_id_ASTM
primary 'Inorganic Chemistry' 2008 47 10 4290 4298 INOCAJ
_publ_author_name
;
Soloveichik, G.;Her Jae-Hyuk;Stephens, P.W.;Gao Yan;Rijssenbeek, 
J.;Andrus, M.;Zhao, J.-C.
;
_cell_length_a                     17.4872(4)
_cell_length_b                     9.4132(2)
_cell_length_c                     8.7304(2)
_cell_angle_alpha                  90
_cell_angle_beta                   90
_cell_angle_gamma                  90
_cell_volume                       1437.12
_cell_formula_units_Z              8
_symmetry_space_group_name_H-M     'P c a b'
_symmetry_Int_Tables_number        61
_refine_ls_R_factor_all            .019
loop_
_symmetry_equiv_pos_site_id
_symmetry_equiv_pos_as_xyz
  1	'x+.5, -y+.5, z'
  2	'x, y+.5, -z+.5'
  3	'-x+.5, y, z+.5'
  4	'-x, -y, -z'
  5	'-x+.5, y+.5, -z'
  6	'-x, -y+.5, z+.5'
  7	'x+.5, -y, -z+.5'
  8	'x, y, z'
loop_
_atom_type_symbol
_atom_type_oxidation_number
B3+	3
H1-	-1
H1+	1
Mg2+	2
N3-	-3
loop_
_atom_site_label
_atom_site_type_symbol
_atom_site_symmetry_multiplicity
_atom_site_Wyckoff_symbol
_atom_site_fract_x
_atom_site_fract_y
_atom_site_fract_z
_atom_site_occupancy
_atom_site_attached_hydrogens
_atom_site_B_iso_or_equiv
Mg1 Mg2+ 8 c 0.62298(17) 0.15583(20) 0.46634(17) 1 0 3.71(7) 
N1 N3- 8 c 0.52544(54) 0.29429(85) 0.47670(76) 1 0 5.1(1) 
H1 H1+ 8 c 0.5282(38) 0.3531(68) 0.5719(71) 1 0 5.1(1) 
H2 H1+ 8 c 0.5252(33) 0.3580(86) 0.3850(63) 1 0 5.1(1) 
H3 H1+ 8 c 0.4776(44) 0.2362(67) 0.4780(76) 1 0 5.1(1) 
N2 N3- 8 c 0.70955(47) 0.28597(78) 0.53200(86) 1 0 5.1(1) 
H4 H1+ 8 c 0.6961(35) 0.3324(66) 0.6314(69) 1 0 5.1(1) 
H5 H1+ 8 c 0.7574(52) 0.2291(60) 0.5449(75) 1 0 5.1(1) 
H6 H1+ 8 c 0.7178(34) 0.3605(80) 0.4520(68) 1 0 5.1(1) 
B1 B3+ 8 c 0.63702(63) 0.0861(10) 0.2121(11) 1 0 3.7(2) 
H7 H1- 8 c 0.6340(43) 0.2126(56) 0.2281(18) 1 0 3.7(2) 
H8 H1- 8 c 0.6534(29) 0.0588(63) 0.0819(54) 1 0 3.7(2) 
H9 H1- 8 c 0.5760(31) 0.0350(59) 0.2421(63) 1 0 3.7(2) 
H10 H1- 8 c 0.6847(33) 0.0380(21) 0.2963(22) 1 0 3.7(2) 
B2 B3+ 8 c 0.60569(58) -0.02974(84) 0.6607(11) 1 0 3.7(2) 
H11 H1- 8 c 0.6692(30) -0.0167(19) 0.6106(53) 1 0 3.7(2) 
H12 H1- 8 c 0.5982(29) 0.0453(53) 0.7708(63) 1 0 3.7(2) 
H13 H1- 8 c 0.5953(27) -0.1512(58) 0.6969(56) 1 0 3.7(2) 
H14 H1- 8 c 0.56009(94) 0.0037(22) 0.5645(25) 1 0 3.7(2) 

#End of data_249657-ICSD


