data_76936-ICSD
#?2014 by Fachinformationszentrum Karlsruhe, and the U.S. Secretary of 
#Commerce on behalf of the United States.  All rights reserved.
_database_code_ICSD                76936
_audit_creation_date               2001/07/16
_audit_update_record               2008/02/01
_chemical_name_systematic          'Dialuminium Silicate Oxide'
_chemical_formula_structural       'Al2 (Si O4) O'
_chemical_formula_sum              'Al2 O5 Si1'
_chemical_name_mineral             Andalusite
_publ_section_title
;
Sulla struttura cristallina dell' andalusite
;
loop_
_citation_id
_citation_journal_abbrev
_citation_year
_citation_journal_volume
_citation_page_first
_citation_page_last
_citation_journal_id_ASTM
primary 'Periodico di Mineralogia' 1962 31 43 61 PEMIA7
_publ_author_name                  'Sgarlata, F.'
_cell_length_a                     7.78(1)
_cell_length_b                     7.90(1)
_cell_length_c                     5.559(1)
_cell_angle_alpha                  90.
_cell_angle_beta                   90.
_cell_angle_gamma                  90.
_cell_volume                       341.67
_cell_formula_units_Z              4
_symmetry_space_group_name_H-M     'P n n m'
_symmetry_Int_Tables_number        58
_refine_ls_R_factor_all            .18
loop_
_symmetry_equiv_pos_site_id
_symmetry_equiv_pos_as_xyz
  1	'x+.5, -y+.5, z+.5'
  2	'-x+.5, y+.5, z+.5'
  3	'x, y, -z'
  4	'-x, -y, -z'
  5	'-x+.5, y+.5, -z+.5'
  6	'x+.5, -y+.5, -z+.5'
  7	'-x, -y, z'
  8	'x, y, z'
loop_
_atom_type_symbol
_atom_type_oxidation_number
Al3+	3
O2-	-2
Si4+	4
loop_
_atom_site_label
_atom_site_type_symbol
_atom_site_symmetry_multiplicity
_atom_site_Wyckoff_symbol
_atom_site_fract_x
_atom_site_fract_y
_atom_site_fract_z
_atom_site_occupancy
_atom_site_attached_hydrogens
_atom_site_B_iso_or_equiv
Al1 Al3+ 4 e 0 0 0.2462 1. 0 0.2 
Al2 Al3+ 4 g 0.3722 0.1399 0.5 1. 0 0.2 
Si1 Si4+ 4 g 0.2452 0.2533 0 1. 0 0.2 
O3 O2- 4 g 0.1014 0.3985 0 1. 0 0.4 
O2 O2- 4 g 0.411 0.3618 0 1. 0 0.4 
O1 O2- 4 g 0.4302 0.3631 0.5 1. 0 0.4 
O4 O2- 8 h 0.2313 0.1342 0.2408 1. 0 0.4 

#End of data_76936-ICSD


