data_62397-ICSD
#?2014 by Fachinformationszentrum Karlsruhe, and the U.S. Secretary of 
#Commerce on behalf of the United States.  All rights reserved.
_database_code_ICSD                62397
_audit_creation_date               1988/12/19
_audit_update_record               2012/08/01
_chemical_name_systematic
;
Dicalcium Trialuminium Tris(silicate) Hydroxide
;
_chemical_formula_structural       'Ca2 Al3 (Si O4)3 (O H)'
_chemical_formula_sum              'H1 Al3 Ca2 O13 Si3'
_chemical_name_mineral             Tanzanite
_publ_section_title
;
Neutron diffraction study of zoisite at 15K and x-ray study at room 
temperature
;
loop_
_citation_id
_citation_journal_abbrev
_citation_year
_citation_journal_volume
_citation_page_first
_citation_page_last
_citation_journal_id_ASTM
primary 'Zeitschrift fuer Kristallographie (1979-2010)' 1987 179 305 321 ZEKRDZ
_publ_author_name
;
Smith, J.V.;Pluth, J.J.;Richardson, J.W.jr.
;
_cell_length_a                     16.2180(30)
_cell_length_b                     5.5406(14)
_cell_length_c                     10.033(3)
_cell_angle_alpha                  90.
_cell_angle_beta                   90.
_cell_angle_gamma                  90.
_cell_volume                       901.54
_cell_formula_units_Z              4
_symmetry_space_group_name_H-M     'P n m a'
_symmetry_Int_Tables_number        62
_refine_ls_R_factor_all            .029
loop_
_symmetry_equiv_pos_site_id
_symmetry_equiv_pos_as_xyz
  1	'x+.5, y, -z+.5'
  2	'x, -y+.5, z'
  3	'-x+.5, y+.5, z+.5'
  4	'-x, -y, -z'
  5	'-x+.5, -y, z+.5'
  6	'-x, y+.5, -z'
  7	'x+.5, -y+.5, -z+.5'
  8	'x, y, z'
loop_
_atom_type_symbol
_atom_type_oxidation_number
Al3+	3
Ca2+	2
H1+	1
O2-	-2
Si4+	4
loop_
_atom_site_label
_atom_site_type_symbol
_atom_site_symmetry_multiplicity
_atom_site_Wyckoff_symbol
_atom_site_fract_x
_atom_site_fract_y
_atom_site_fract_z
_atom_site_occupancy
_atom_site_attached_hydrogens
Ca1 Ca2+ 4 c 0.36594(6) 0.25 0.43671(10) 1. 0 
Ca2 Ca2+ 4 c 0.45205(6) 0.25 0.11435(10) 1. 0 
Si1 Si4+ 4 c 0.08128(7) 0.25 0.10661(11) 1. 0 
Si2 Si4+ 4 c 0.41071(6) 0.75 0.28174(11) 1. 0 
Si3 Si4+ 4 c 0.16024(6) 0.25 0.43556(11) 1. 0 
Al1 Al3+ 8 d 0.24947(5) 0.9968(2) 0.18947(9) 1. 0 
Al2 Al3+ 4 c 0.10636(8) 0.75 0.29977(15) 1. 0 
O1 O2- 8 d 0.12999(3) -.0026(1) 0.14725(6) 1. 0 
O2 O2- 8 d 0.10142(4) 0.01227(11) 0.43047(6) 1. 0 
O3 O2- 8 d 0.35897(3) 0.99135(10) 0.24304(6) 1. 0 
O4 O2- 4 c 0.21920(5) 0.75 0.30117(8) 1. 0 
O5 O2- 4 c 0.22781(5) 0.25 0.31174(8) 1. 0 
O6 O2- 4 c 0.27117(5) 0.75 0.05951(8) 1. 0 
O7 O2- 4 c 0.99086(5) 0.25 0.16321(8) 1. 0 
O8 O2- 4 c 0.99650(5) 0.75 0.29492(8) 1. 0 
O9 O2- 4 c 0.41920(5) 0.75 0.44352(8) 1. 0 
O10 O2- 4 c 0.26615(5) 0.25 0.07346(9) 1. 0 
H1 H1+ 4 c 0.26898(10) 0.25 0.9753(2) 1. 0 

loop_
_atom_site_aniso_label
_atom_site_aniso_type_symbol
_atom_site_aniso_U_11
_atom_site_aniso_U_22
_atom_site_aniso_U_33
_atom_site_aniso_U_12
_atom_site_aniso_U_13
_atom_site_aniso_U_23
Ca1 Ca2+ 0.0017(4) 0.0049(5) 0.0029(5) 0 0.0006(3) 0
Ca2 Ca2+ 0.0028(4) 0.0046(4) 0.0027(4) 0 -.0001(3) 0
Si1 Si4+ 0.0011(5) 0.0034(6) 0.0025(6) 0 0.0001(4) 0
Si2 Si4+ 0.0016(5) 0.0028(6) 0.0027(6) 0 -.0002(3) 0
Si3 Si4+ 0.0011(6) 0.0037(6) 0.0035(6) 0 -.0004(3) 0
Al1 Al3+ 0.0025(5) 0.0033(5) 0.0029(5) -.0001(3) -.0003(3) 0.0000(3)
Al2 Al3+ 0.0015(7) 0.0037(7) 0.0034(7) 0 0.0003(4) 0
O1 O2- 0.0022(3) 0.0040(3) 0.0040(3) 0.0006(2) -.0004(2) 0.0002(2)
O2 O2- 0.0028(3) 0.0043(3) 0.0041(3) -.0009(2) 0.0001(2) -.0003(2)
O3 O2- 0.0019(3) 0.0041(3) 0.0043(3) 0.0002(2) -.0003(2) -.0001(2)
O4 O2- 0.0020(3) 0.0039(4) 0.0029(4) 0 0.0000(3) 0
O5 O2- 0.0023(3) 0.0038(4) 0.0027(4) 0 0.0002(3) 0
O6 O2- 0.0015(3) 0.0043(4) 0.0032(4) 0 0.0004(3) 0
O7 O2- 0.0029(3) 0.0055(4) 0.0038(4) 0 0.0006(3) 0
O8 O2- 0.0020(3) 0.0061(4) 0.0048(4) 0 -.0013(3) 0
O9 O2- 0.0057(4) 0.0095(4) 0.0020(4) 0 -.0001(3) 0
O10 O2- 0.0041(4) 0.0044(4) 0.0027(4) 0 0.0009(3) 0
H1 H1+ 0.0208(9) 0.0176(9) 0.0083(9) 0 0.0016(6) 0
#End of data_62397-ICSD


