data_62964-ICSD
#?2014 by Fachinformationszentrum Karlsruhe, and the U.S. Secretary of 
#Commerce on behalf of the United States.  All rights reserved.
_database_code_ICSD                62964
_audit_creation_date               1988/12/19
_audit_update_record               1988/12/30
_chemical_name_systematic
;
Sodium Alumino Boro Arsenic Oxide (2/1/1/4/14)
;
_chemical_formula_structural       'Na2 Al B As4 O14'
_chemical_formula_sum              'Al1 As4 B1 Na2 O14'
_publ_section_title
;
Structure de Na2 Al B As4 O14, un aluminoboroarseniate condense.
;
loop_
_citation_id
_citation_journal_abbrev
_citation_year
_citation_journal_volume
_citation_page_first
_citation_page_last
_citation_journal_id_ASTM
primary 'Acta Crystallographica, Section C: Crystal Structure Communications'
 1988 44 791 794 ACSCEE
_publ_author_name                  'Driss, A.;Jouini, T.'
_cell_length_a                     4.5916(5)
_cell_length_b                     20.706(3)
_cell_length_c                     10.933(1)
_cell_angle_alpha                  90.
_cell_angle_beta                   90.39(1)
_cell_angle_gamma                  90.
_cell_volume                       1039.42
_cell_formula_units_Z              4
_symmetry_space_group_name_H-M     'P 1 21/c 1'
_symmetry_Int_Tables_number        14
_refine_ls_R_factor_all            .035
loop_
_symmetry_equiv_pos_site_id
_symmetry_equiv_pos_as_xyz
  1	'x, -y+.5, z+.5'
  2	'-x, -y, -z'
  3	'-x, y+.5, -z+.5'
  4	'x, y, z'
loop_
_atom_type_symbol
_atom_type_oxidation_number
Al3+	3
As5+	5
B3+	3
Na1+	1
O2-	-2
loop_
_atom_site_label
_atom_site_type_symbol
_atom_site_symmetry_multiplicity
_atom_site_Wyckoff_symbol
_atom_site_fract_x
_atom_site_fract_y
_atom_site_fract_z
_atom_site_occupancy
_atom_site_attached_hydrogens
_atom_site_B_iso_or_equiv
As1 As5+ 4 e 0.7404(3) 0.3544(1) -.0334(1) 1. 0 0.29(5) 
As2 As5+ 4 e 0.7273(3) 0.2792(1) 0.2151(1) 1. 0 0.23(5) 
As3 As5+ 4 e 0.2978(3) 0.4695(1) 0.2929(1) 1. 0 0.37(5) 
As4 As5+ 4 e 0.2635(3) 0.6063(1) 0.3753(1) 1. 0 0.21(5) 
B1 B3+ 4 e 0.797(3) 0.3947(7) 0.364(1) 1. 0 0.2(2) 
Na1 Na1+ 4 e 0.779(2) 0.5245(3) 0.0842(7) 1. 0 2.3(3) 
Na2 Na1+ 4 e 0.225(1) 0.2097(3) -.0253(5) 1. 0 1.1(1) 
O1 O2- 4 e 0.454(2) 0.3722(5) -.1240(8) 1. 0 0.5(2) 
O2 O2- 4 e 0.891(2) 0.4174(5) 0.0284(8) 1. 0 0.6(2) 
O3 O2- 4 e 0.971(2) 0.3020(4) -.0962(8) 1. 0 0.3(2) 
O4 O2- 4 e 0.565(2) 0.3076(5) 0.0825(9) 1. 0 0.7(2) 
O5 O2- 4 e 0.456(2) 0.2521(4) 0.3018(8) 1. 0 0.4(2) 
O6 O2- 4 e 0.979(2) 0.2281(4) 0.1680(8) 1. 0 0.2(2) 
O7 O2- 4 e 0.904(2) 0.3395(4) 0.2890(8) 1. 0 0.4(2) 
O8 O2- 4 e 0.893(2) 0.3772(5) 0.4895(9) 1. 0 0.7(2) 
O9 O2- 4 e 0.940(2) 0.4536(5) 0.3224(9) 1. 0 0.7(2) 
O10 O2- 4 e 0.480(2) 0.4017(4) 0.3581(8) 1. 0 0.2(1) 
O11 O2- 4 e 0.359(2) 0.4824(5) 0.1496(9) 1. 0 0.9(2) 
O12 O2- 4 e 0.395(2) 0.5285(5) 0.3880(9) 1. 0 0.8(2) 
O13 O2- 4 e 0.011(2) 0.6042(5) 0.2653(8) 1. 0 0.5(2) 
O14 O2- 4 e 0.541(2) 0.6560(4) 0.3649(8) 1. 0 0.4(2) 
Al1 Al3+ 4 e 0.7751(8) 0.6774(2) 0.2252(3) 1. 0 0.14(6) 

#End of data_62964-ICSD


