data_78398-ICSD
#?2014 by Fachinformationszentrum Karlsruhe, and the U.S. Secretary of 
#Commerce on behalf of the United States.  All rights reserved.
_database_code_ICSD                78398
_audit_creation_date               1996/04/22
_audit_update_record               2008/02/01
_chemical_name_systematic          'Potassium Dioxofluoroselenate(IV)'
_chemical_formula_structural       'K (Se O2 F)'
_chemical_formula_sum              'F1 K1 O2 Se1'
_publ_section_title
;
Ueber die Kristallstrukturen der Monofluoroselenite M Se O2 F (M=K, 
Rb, Cs)
;
loop_
_citation_id
_citation_journal_abbrev
_citation_year
_citation_journal_volume
_citation_journal_issue
_citation_page_first
_citation_page_last
_citation_journal_id_ASTM
primary 'Chemische Berichte' 1994 127 11 2173 2176 CHBEAM
_publ_author_name                  'Feldmann, C.;Jansen, M.'
_cell_length_a                     4.531(2)
_cell_length_b                     5.955(1)
_cell_length_c                     7.169(1)
_cell_angle_alpha                  90.
_cell_angle_beta                   107.56(2)
_cell_angle_gamma                  90.
_cell_volume                       184.42
_cell_formula_units_Z              2
_symmetry_space_group_name_H-M     'P 1 21/m 1'
_symmetry_Int_Tables_number        11
_refine_ls_R_factor_all            .0549
loop_
_symmetry_equiv_pos_site_id
_symmetry_equiv_pos_as_xyz
  1	'x, -y+.5, z'
  2	'-x, -y, -z'
  3	'-x, y+.5, -z'
  4	'x, y, z'
loop_
_atom_type_symbol
_atom_type_oxidation_number
F1-	-1
K1+	1
O2-	-2
Se4+	4
loop_
_atom_site_label
_atom_site_type_symbol
_atom_site_symmetry_multiplicity
_atom_site_Wyckoff_symbol
_atom_site_fract_x
_atom_site_fract_y
_atom_site_fract_z
_atom_site_occupancy
_atom_site_attached_hydrogens
K1 K1+ 2 e 0.1664(5) 0.25 0.3199(3) 1. 0 
Se1 Se4+ 2 e 0.4218(2) 0.25 0.8470(1) 1. 0 
O1 O2- 4 f 0.3427(15) 0.0315(10) 0.7015(10) 1. 0 
F1 F1- 2 e 0.8321(17) 0.25 0.9062(13) 1. 0 

loop_
_atom_site_aniso_label
_atom_site_aniso_type_symbol
_atom_site_aniso_U_11
_atom_site_aniso_U_22
_atom_site_aniso_U_33
_atom_site_aniso_U_12
_atom_site_aniso_U_13
_atom_site_aniso_U_23
K1 K1+ 0.029(1) 0.020(1) 0.029(1) 0 0.012(1) 0
Se1 Se4+ 0.027(1) 0.026(1) 0.033(1) 0 0.007(1) 0
O1 O2- 0.052(3) 0.018(2) 0.060(3) -.003(2) 0.027(3) -.009(2)
F1 F1- 0.025(3) 0.109(9) 0.062(5) 0 0.011(3) 0
#End of data_78398-ICSD


