data_163262-ICSD
#?2014 by Fachinformationszentrum Karlsruhe, and the U.S. Secretary of 
#Commerce on behalf of the United States.  All rights reserved.
_database_code_ICSD                163262
_audit_creation_date               2009/08/01
_chemical_name_systematic          'Calcium Tetrahydridoborate - Alpha'
_chemical_formula_structural       'Ca (B H4)2'
_chemical_formula_sum              'H8 B2 Ca1'
_publ_section_title
;
Crystal structures and phase transformations in Ca (B H4)2
;
loop_
_citation_id
_citation_journal_abbrev
_citation_year
_citation_journal_volume
_citation_page_first
_citation_page_last
_citation_journal_id_ASTM
primary 'Acta Materialia' 2009 57 732 738 ACMAFD
_publ_author_name
;
Filinchuk, Ya.;Roennebro, E.;Chandra, D.
;
_cell_length_a                     8.7759(3)
_cell_length_b                     13.0234(4)
_cell_length_c                     7.4132(2)
_cell_angle_alpha                  90.
_cell_angle_beta                   90.
_cell_angle_gamma                  90.
_cell_volume                       847.27
_cell_formula_units_Z              8
_symmetry_space_group_name_H-M     'F 2 d d'
_symmetry_Int_Tables_number        43
_refine_ls_R_factor_all            .021
loop_
_symmetry_equiv_pos_site_id
_symmetry_equiv_pos_as_xyz
  1	'x+.25, -y+.25, z+.25'
  2	'x+.25, y+.25, -z+.25'
  3	'x, -y, -z'
  4	'x, y, z'
  5	'x+.25, -y+.75, z+.75'
  6	'x+.75, -y+.25, z+.75'
  7	'x+.75, -y+.75, z+.25'
  8	'x+.25, y+.75, -z+.75'
  9	'x+.75, y+.25, -z+.75'
 10	'x+.75, y+.75, -z+.25'
 11	'x, -y+.5, -z+.5'
 12	'x+.5, -y, -z+.5'
 13	'x+.5, -y+.5, -z'
 14	'x, y+.5, z+.5'
 15	'x+.5, y, z+.5'
 16	'x+.5, y+.5, z'
loop_
_atom_type_symbol
_atom_type_oxidation_number
B3+	3
Ca2+	2
H1-	-1
loop_
_atom_site_label
_atom_site_type_symbol
_atom_site_symmetry_multiplicity
_atom_site_Wyckoff_symbol
_atom_site_fract_x
_atom_site_fract_y
_atom_site_fract_z
_atom_site_occupancy
_atom_site_attached_hydrogens
_atom_site_B_iso_or_equiv
Ca1 Ca2+ 8 a 0 0 0 1. 0 1.53(3) 
B1 B3+ 16 b 0.0056(9) 0.2243(2) 0.0081(11) 1. 0 1.60(8) 
H1 H1- 16 b 0.0190(19) 0.1648(10) 0.1272(16) 1. 0 0.2(3) 
H2 H1- 16 b 0.0345(19) 0.1817(11) -0.1256(14) 1. 0 0.2(3) 
H3 H1- 16 b -0.1180(10) 0.2553(12) 0.012(2) 1. 0 0.2(3) 
H4 H1- 16 b 0.0910(15) 0.2922(9) 0.028(2) 1. 0 0.2(3) 

#End of data_163262-ICSD


