data_166571-ICSD
#?2014 by Fachinformationszentrum Karlsruhe, and the U.S. Secretary of 
#Commerce on behalf of the United States.  All rights reserved.
_database_code_ICSD                166571
_audit_creation_date               2010/08/01
_chemical_name_systematic          'Dipotassium Tetrafluoroberyllate'
_chemical_formula_structural       'K2 (Be F4)'
_chemical_formula_sum              'Be1 F4 K2'
_publ_section_title
;
Crystal structure of the K-fluoroberyllate K2 Be F4 (Ba2 Si O4)
;
loop_
_citation_id
_citation_journal_abbrev
_citation_year
_citation_journal_volume
_citation_page_first
_citation_page_last
_citation_journal_id_ASTM
primary 'Doklady Akademii Nauk SSSR' 1964 159 1287 1289 DANKAS
_publ_author_name
;
Mustafaev, N.M.;Ilyukhin, V.V.;Belov, N.B.
;
_cell_length_a                     7.35
_cell_length_b                     5.75
_cell_length_c                     9.91
_cell_angle_alpha                  90.
_cell_angle_beta                   90.
_cell_angle_gamma                  90.
_cell_volume                       418.82
_cell_formula_units_Z              4
_symmetry_space_group_name_H-M     'P n 21 a'
_symmetry_Int_Tables_number        33
_refine_ls_R_factor_all            .123
loop_
_symmetry_equiv_pos_site_id
_symmetry_equiv_pos_as_xyz
  1	'x+.5, y, -z+.5'
  2	'-x+.5, y+.5, z+.5'
  3	'-x, y+.5, -z'
  4	'x, y, z'
loop_
_atom_type_symbol
_atom_type_oxidation_number
Be2+	2
F1-	-1
K1+	1
loop_
_atom_site_label
_atom_site_type_symbol
_atom_site_symmetry_multiplicity
_atom_site_Wyckoff_symbol
_atom_site_fract_x
_atom_site_fract_y
_atom_site_fract_z
_atom_site_occupancy
_atom_site_attached_hydrogens
_atom_site_B_iso_or_equiv
K1 K1+ 4 a 0.160 0.252 0.088 1. 0 0.6 
K2 K1+ 4 a 0.0125 0.753 0.307 1. 0 0.6 
Be1 Be2+ 4 a 0.231 0.253 0.414 1. 0 0.6 
F1 F1- 4 a 0.315 0.447 0.343 1. 0 0.6 
F2 F1- 4 a 0.263 0.015 0.342 1. 0 0.6 
F3 F1- 4 a 0.0257 0.266 0.414 1. 0 0.6 
F4 F1- 4 a 0.200 0.758 0.055 1. 0 0.6 

#End of data_166571-ICSD


