data_91844-ICSD
#?2014 by Fachinformationszentrum Karlsruhe, and the U.S. Secretary of 
#Commerce on behalf of the United States.  All rights reserved.
_database_code_ICSD                91844
_audit_creation_date               2002/10/01
_chemical_name_systematic          'Lithium Neodymotitanate'
_chemical_formula_structural       'Li (Nd Ti O4)'
_chemical_formula_sum              'Li1 Nd1 O4 Ti1'
_publ_section_title
;
X-ray powder diffraction study of Li Ln Ti O4 (Ln = La, Nd): a 
lithium-ion conductor
;
loop_
_citation_id
_citation_journal_abbrev
_citation_year
_citation_journal_volume
_citation_page_first
_citation_page_last
_citation_journal_id_ASTM
primary 'Materials Science Forum' 2000 321 965 970 MSFOEP
_publ_author_name
;
Thangadurai, V.;Shukla, A.K.;Gopalakrishnan, J.;Joubert, O.;Brohan, 
L.;Tournoux, M.
;
_cell_length_a                     3.7465(3)
_cell_length_b                     3.7465(3)
_cell_length_c                     11.895(5)
_cell_angle_alpha                  90.
_cell_angle_beta                   90.
_cell_angle_gamma                  90.
_cell_volume                       166.96
_cell_formula_units_Z              2
_symmetry_space_group_name_H-M     'P 4/n m m Z'
_symmetry_Int_Tables_number        129
_refine_ls_R_factor_all            .079
loop_
_symmetry_equiv_pos_site_id
_symmetry_equiv_pos_as_xyz
  1	'y+.5, x+.5, -z'
  2	'-y, x+.5, -z'
  3	'y+.5, -x, -z'
  4	'-y, -x, -z'
  5	'x+.5, y+.5, -z'
  6	'-x, y+.5, -z'
  7	'x+.5, -y, -z'
  8	'-x, -y, -z'
  9	'-y+.5, -x+.5, z'
 10	'y, -x+.5, z'
 11	'-y+.5, x, z'
 12	'y, x, z'
 13	'-x+.5, -y+.5, z'
 14	'x, -y+.5, z'
 15	'-x+.5, y, z'
 16	'x, y, z'
loop_
_atom_type_symbol
_atom_type_oxidation_number
Li1+	1
Nd3+	3
O2-	-2
Ti4+	4
loop_
_atom_site_label
_atom_site_type_symbol
_atom_site_symmetry_multiplicity
_atom_site_Wyckoff_symbol
_atom_site_fract_x
_atom_site_fract_y
_atom_site_fract_z
_atom_site_occupancy
_atom_site_attached_hydrogens
_atom_site_B_iso_or_equiv
Nd1 Nd3+ 2 c 0.25 0.25 0.8824(1) 1. 0 0.80(5) 
Li1 Li1+ 2 b 0.25 0.75 0.5 1. 0 0.5(5) 
Ti1 Ti4+ 2 c 0.25 0.25 0.2914(3) 1. 0 0.3(1) 
O1 O2- 4 f 0.75 0.25 0.7470(7) 1. 0 1.3(2) 
O2 O2- 2 c 0.25 0.25 0.4394(11) 1. 0 1.5(4) 
O3 O2- 2 c 0.25 0.25 0.0818(11) 1. 0 1.5(3) 

#End of data_91844-ICSD


