data_67239-ICSD
#?2014 by Fachinformationszentrum Karlsruhe, and the U.S. Secretary of 
#Commerce on behalf of the United States.  All rights reserved.
_database_code_ICSD                67239
_audit_creation_date               1990/12/27
_chemical_name_systematic          'Lithium Gallogermanate - Alpha'
_chemical_formula_structural       'Li Ga Ge O4'
_chemical_formula_sum              'Ga1 Ge1 Li1 O4'
_publ_section_title
;
A uniform description of phenakite type structures as superstructures 
of beta-Si3N4
;
loop_
_citation_id
_citation_journal_abbrev
_citation_year
_citation_journal_volume
_citation_page_first
_citation_page_last
_citation_journal_id_ASTM
primary 'Zeitschrift fuer Kristallographie (1979-2010)' 1989 187 139 143 ZEKRDZ
_publ_author_name                  'Hartmann, P.'
_cell_length_a                     13.936
_cell_length_b                     13.936
_cell_length_c                     9.296
_cell_angle_alpha                  90.
_cell_angle_beta                   90.
_cell_angle_gamma                  120.
_cell_volume                       1563.52
_cell_formula_units_Z              18
_symmetry_space_group_name_H-M     'R -3 H'
_symmetry_Int_Tables_number        148
loop_
_symmetry_equiv_pos_site_id
_symmetry_equiv_pos_as_xyz
  1	'x-y, x, -z'
  2	'y, -x+y, -z'
  3	'-x, -y, -z'
  4	'-x+y, -x, z'
  5	'-y, x-y, z'
  6	'x, y, z'
  7	'x-y+.6666, x+.3333, -z+.3333'
  8	'x-y+.3333, x+.6666, -z+.6666'
  9	'y+.6666, -x+y+.3333, -z+.3333'
 10	'y+.3333, -x+y+.6666, -z+.6666'
 11	'-x+.6666, -y+.3333, -z+.3333'
 12	'-x+.3333, -y+.6666, -z+.6666'
 13	'-x+y+.6666, -x+.3333, z+.3333'
 14	'-x+y+.3333, -x+.6666, z+.6666'
 15	'-y+.6666, x-y+.3333, z+.3333'
 16	'-y+.3333, x-y+.6666, z+.6666'
 17	'x+.6666, y+.3333, z+.3333'
 18	'x+.3333, y+.6666, z+.6666'
loop_
_atom_type_symbol
_atom_type_oxidation_number
Ga3+	3
Ge4+	4
Li1+	1
O2-	-2
loop_
_atom_site_label
_atom_site_type_symbol
_atom_site_symmetry_multiplicity
_atom_site_Wyckoff_symbol
_atom_site_fract_x
_atom_site_fract_y
_atom_site_fract_z
_atom_site_occupancy
_atom_site_attached_hydrogens
Li1 Li1+ 18 f 0.2101 0.1874 0.2489 1. 0 
Ga1 Ga3+ 18 f 0.2121 0.1952 0.5827 1. 0 
Ge2 Ge4+ 18 f 0.2148 0.1952 0.9179 1. 0 
O1 O2- 18 f 0.336 0.3376 0.2512 1. 0 
O2 O2- 18 f 0.2138 0.1171 0.0706 1. 0 
O3 O2- 18 f 0.2131 0.12 0.4294 1. 0 
O4 O2- 18 f 0.2065 0.1274 0.7496 1. 0 

#End of data_67239-ICSD


