data_35367-ICSD
#?2014 by Fachinformationszentrum Karlsruhe, and the U.S. Secretary of 
#Commerce on behalf of the United States.  All rights reserved.
_database_code_ICSD                35367
_audit_creation_date               1980/01/01
_audit_update_record               2004/10/01
_chemical_name_systematic          'Hexapotassium Dicobaltate(IV)'
_chemical_formula_structural       'K6 (Co2 O7)'
_chemical_formula_sum              'Co2 K6 O7'
_publ_section_title
;
Neue Oxocobaltate(IV): K6 (Co2 O7) und Li4 Co O4
;
loop_
_citation_id
_citation_journal_abbrev
_citation_year
_citation_journal_volume
_citation_page_first
_citation_page_last
_citation_journal_id_ASTM
primary Naturwissenschaften 1973 60 104 105 NATWAY
_publ_author_name                  'Jansen, M.;Hoppe, R.'
_cell_length_a                     6.58
_cell_length_b                     9.116
_cell_length_c                     11.471
_cell_angle_alpha                  90.
_cell_angle_beta                   127.1
_cell_angle_gamma                  90.
_cell_volume                       548.79
_cell_formula_units_Z              2
_symmetry_space_group_name_H-M     'P 1 21/c 1'
_symmetry_Int_Tables_number        14
_refine_ls_R_factor_all            .081
loop_
_symmetry_equiv_pos_site_id
_symmetry_equiv_pos_as_xyz
  1	'x, -y+.5, z+.5'
  2	'-x, -y, -z'
  3	'-x, y+.5, -z+.5'
  4	'x, y, z'
loop_
_atom_type_symbol
_atom_type_oxidation_number
Co4+	4
K1+	1
O2-	-2
loop_
_atom_site_label
_atom_site_type_symbol
_atom_site_symmetry_multiplicity
_atom_site_Wyckoff_symbol
_atom_site_fract_x
_atom_site_fract_y
_atom_site_fract_z
_atom_site_occupancy
_atom_site_attached_hydrogens
_atom_site_B_iso_or_equiv
Co1 Co4+ 4 e 0.416 0.142 0.864 1. 0 0.77 
K1 K1+ 4 e 0.686 0.025 0.442 1. 0 1.31 
K2 K1+ 4 e 0.2 0.15 0.07 1. 0 1.79 
K3 K1+ 4 e 0.844 0.205 0.211 1. 0 1.36 
O1 O2- 4 e 0.136 0.09 0.693 1. 0 1.46 
O2 O2- 4 e 0.357 0.2 0.426 1. 0 1.23 
O3 O2- 4 e 0.322 0.837 0.143 1. 0 2.12 
O4 O2- 2 b 0.5 0 0 1. 0 2.08 

#End of data_35367-ICSD


