data_16568-ICSD
#?2014 by Fachinformationszentrum Karlsruhe, and the U.S. Secretary of 
#Commerce on behalf of the United States.  All rights reserved.
_database_code_ICSD                16568
_audit_creation_date               1980/01/01
_audit_update_record               2010/08/01
_chemical_name_systematic          'Lithium Closo-dioxoborate'
_chemical_formula_structural       'Li (B O2)'
_chemical_formula_sum              'B1 Li1 O2'
_publ_section_title
;
The crystal structure of lithium metaborate
;
loop_
_citation_id
_citation_journal_abbrev
_citation_year
_citation_journal_volume
_citation_page_first
_citation_page_last
_citation_journal_id_ASTM
primary 'Acta Crystallographica (1,1948-23,1967)' 1964 17 749 751 ACCRA9
_publ_author_name                  'Zachariasen, W.H.'
_cell_length_a                     5.838(2)
_cell_length_b                     4.348(1)
_cell_length_c                     6.449(2)
_cell_angle_alpha                  90.
_cell_angle_beta                   115.12(2)
_cell_angle_gamma                  90.
_cell_volume                       148.22
_cell_formula_units_Z              4
_symmetry_space_group_name_H-M     'P 1 21/c 1'
_symmetry_Int_Tables_number        14
_refine_ls_R_factor_all            .046
loop_
_symmetry_equiv_pos_site_id
_symmetry_equiv_pos_as_xyz
  1	'x, -y+.5, z+.5'
  2	'-x, -y, -z'
  3	'-x, y+.5, -z+.5'
  4	'x, y, z'
loop_
_atom_type_symbol
_atom_type_oxidation_number
B3+	3
Li1+	1
O2-	-2
loop_
_atom_site_label
_atom_site_type_symbol
_atom_site_symmetry_multiplicity
_atom_site_Wyckoff_symbol
_atom_site_fract_x
_atom_site_fract_y
_atom_site_fract_z
_atom_site_occupancy
_atom_site_attached_hydrogens
Li1 Li1+ 4 e 0.4322(12) 0.2131(21) 0.3437(11) 1. 0 
B1 B3+ 4 e 0.1233(9) 0.6735(14) 0.2720(7) 1. 0 
O1 O2- 4 e 0.0846(5) 0.3550(8) 0.2592(5) 1. 0 
O2 O2- 4 e 0.3548(5) 0.7741(8) 0.3169(4) 1. 0 

#End of data_16568-ICSD


