data_181959-ICSD
#?2014 by Fachinformationszentrum Karlsruhe, and the U.S. Secretary of 
#Commerce on behalf of the United States.  All rights reserved.
_database_code_ICSD                181959
_audit_creation_date               2012/02/01
_chemical_name_systematic          'Calcium Carbonate - Vaterite'
_chemical_formula_structural       'Ca (C O3)'
_chemical_formula_sum              'C1 Ca1 O3'
_chemical_name_mineral             Vaterite
_publ_section_title
;
Microtwinning hypothesis for a more ordered vaterite model
;
loop_
_citation_id
_citation_journal_abbrev
_citation_year
_citation_journal_volume
_citation_journal_issue
_citation_page_first
_citation_page_last
_citation_journal_id_ASTM
primary 'Powder Diffraction' 2011 26 1 16 21 PODIE2
_publ_author_name
;
Le Bail, A.;Ouhenia, S.;Chateigner, D.
;
_cell_length_a                     8.4721(5)
_cell_length_b                     7.1575(7)
_cell_length_c                     4.1265(4)
_cell_angle_alpha                  90.
_cell_angle_beta                   90.
_cell_angle_gamma                  90.
_cell_volume                       250.23
_cell_formula_units_Z              4
_symmetry_space_group_name_H-M     'A m a 2'
_symmetry_Int_Tables_number        40
_refine_ls_R_factor_all            .0522
loop_
_symmetry_equiv_pos_site_id
_symmetry_equiv_pos_as_xyz
  1	'x+.5, -y, z'
  2	'-x+.5, y, z'
  3	'-x, -y, z'
  4	'x, y, z'
  5	'x+.5, -y+.5, z+.5'
  6	'-x+.5, y+.5, z+.5'
  7	'-x, -y+.5, z+.5'
  8	'x, y+.5, z+.5'
loop_
_atom_type_symbol
_atom_type_oxidation_number
C4+	4
Ca2+	2
O2-	-2
loop_
_atom_site_label
_atom_site_type_symbol
_atom_site_symmetry_multiplicity
_atom_site_Wyckoff_symbol
_atom_site_fract_x
_atom_site_fract_y
_atom_site_fract_z
_atom_site_occupancy
_atom_site_attached_hydrogens
_atom_site_B_iso_or_equiv
Ca1 Ca2+ 4 a 0.5 0.5 0 1. 0 1.86(3) 
C1 C4+ 4 b 0.250 0.640(3) 0.452(4) 1. 0 3.12(8) 
O1 O2- 8 c 0.3795(2) 0.6711(16) 0.5636(17) 1. 0 3.12(8) 
O2 O2- 4 b 0.250 0.5432(12) 0.1912(14) 1. 0 3.12(8) 

#End of data_181959-ICSD


