data_240965-ICSD
#?2014 by Fachinformationszentrum Karlsruhe, and the U.S. Secretary of 
#Commerce on behalf of the United States.  All rights reserved.
_database_code_ICSD                240965
_audit_creation_date               2008/08/01
_chemical_name_systematic
;
Lithium Chromium(III) Diphosphate(V)
;
_chemical_formula_structural       'Li Cr (P2 O7)'
_chemical_formula_sum              'Cr1 Li1 O7 P2'
_publ_section_title
;
X-ray powder diffraction study of Li Cr P2 O7
;
loop_
_citation_id
_citation_journal_abbrev
_citation_year
_citation_journal_volume
_citation_journal_issue
_citation_page_first
_citation_page_last
_citation_journal_id_ASTM
primary 'Acta Crystallographica, Section E. Structure Reports Online'
 2007 63 3 i70 i72 ACSEBH
_publ_author_name
;
Ivashkevich, L.S.;Selevich, K.A.;Lesnikovich, A.I.;Selevich, A.F.
;
_cell_length_a                     6.9019(10)
_cell_length_b                     7.9919(11)
_cell_length_c                     4.7807(7)
_cell_angle_alpha                  90.0
_cell_angle_beta                   109.003(4)
_cell_angle_gamma                  90.0
_cell_volume                       249.33
_cell_formula_units_Z              2
_symmetry_space_group_name_H-M     'P 1 21 1'
_symmetry_Int_Tables_number        4
_refine_ls_R_factor_all            .029
loop_
_symmetry_equiv_pos_site_id
_symmetry_equiv_pos_as_xyz
  1	'-x, y+.5, -z'
  2	'x, y, z'
loop_
_atom_type_symbol
_atom_type_oxidation_number
Cr3+	3
Li1+	1
O2-	-2
P5+	5
loop_
_atom_site_label
_atom_site_type_symbol
_atom_site_symmetry_multiplicity
_atom_site_Wyckoff_symbol
_atom_site_fract_x
_atom_site_fract_y
_atom_site_fract_z
_atom_site_occupancy
_atom_site_attached_hydrogens
_atom_site_U_iso_or_equiv
Cr1 Cr3+ 2 a 0.2277(13) 0.25000 0.216(2) 1.00000 0 0.0050 
P1 P5+ 2 a 0.4190(4) 0.4669(3) 0.7984(5) 1.00000 0 0.0050 
P2 P5+ 2 a 0.0196(4) 0.5654(3) 0.4005(5) 1.00000 0 0.0050 
O1 O2- 2 a 0.422(4) 0.3125(19) 0.611(4) 1.00000 0 0.0095 
O2 O2- 2 a 0.6216(9) 0.5652(9) 0.869(5) 1.00000 0 0.0095 
O3 O2- 2 a 0.351(4) 0.427(3) 1.065(3) 1.00000 0 0.0095 
O4 O2- 2 a 0.006(3) 0.3996(9) 0.254(2) 1.00000 0 0.0095 
O5 O2- 2 a -0.0177(16) 0.711(2) 0.192(4) 1.00000 0 0.0095 
O6 O2- 2 a -0.116(3) 0.5673(11) 0.602(4) 1.00000 0 0.0095 
O7 O2- 2 a 0.2562(9) 0.5994(9) 0.589(4) 1.00000 0 0.0095 
Li1 Li1+ 2 a 0.8226(9) 0.3780(6) 0.8219(11) 1.00000 0 0.0250 

#End of data_240965-ICSD


