data_246136-ICSD
#?2014 by Fachinformationszentrum Karlsruhe, and the U.S. Secretary of 
#Commerce on behalf of the United States.  All rights reserved.
_database_code_ICSD                246136
_audit_creation_date               2009/02/01
_chemical_name_systematic
;
Potassium Tetracobalt(II) Tris(phosphate(V))
;
_chemical_formula_structural       'K Co4 (P O4)3'
_chemical_formula_sum              'Co4 K1 O12 P3'
_publ_section_title
;
A comparison of the magnetic structures of K Mn4 (P O4)3 and K Co4 (P 
O4)3 based on the connectivity of the coordination polyhedra
;
loop_
_citation_id
_citation_journal_abbrev
_citation_year
_citation_journal_volume
_citation_journal_issue
_citation_page_first
_citation_page_last
_citation_journal_id_ASTM
primary 'Chemistry - A European Journal' 2008 14 34 10829 10838 CEUJED
_publ_author_name
;
Lopez, M.L.;Daidouh, A.;Pico, C.;Rodriguez Carvajal, J.;Veiga, M.L.
;
_cell_length_a                     9.62897(9)
_cell_length_b                     16.48179(17)
_cell_length_c                     6.16644(6)
_cell_angle_alpha                  90.
_cell_angle_beta                   90.
_cell_angle_gamma                  90.
_cell_volume                       978.63
_cell_formula_units_Z              4
_symmetry_space_group_name_H-M     'P n n m'
_symmetry_Int_Tables_number        58
_refine_ls_R_factor_all            .042
loop_
_symmetry_equiv_pos_site_id
_symmetry_equiv_pos_as_xyz
  1	'x+.5, -y+.5, z+.5'
  2	'-x+.5, y+.5, z+.5'
  3	'x, y, -z'
  4	'-x, -y, -z'
  5	'-x+.5, y+.5, -z+.5'
  6	'x+.5, -y+.5, -z+.5'
  7	'-x, -y, z'
  8	'x, y, z'
loop_
_atom_type_symbol
_atom_type_oxidation_number
Co2+	2
K1+	1
O2-	-2
P5+	5
loop_
_atom_site_label
_atom_site_type_symbol
_atom_site_symmetry_multiplicity
_atom_site_Wyckoff_symbol
_atom_site_fract_x
_atom_site_fract_y
_atom_site_fract_z
_atom_site_occupancy
_atom_site_attached_hydrogens
_atom_site_B_iso_or_equiv
K1 K1+ 4 g 0.2976(11) 0.4640(7) 0 1. 0 2.6(2) 
Co1 Co2+ 4 g 0.5314(14) 0.0941(8) 0 1. 0 0.7(2) 
Co2 Co2+ 4 g 0.9729(15) 0.1408(8) 0 1. 0 1.0(3) 
Co3 Co2+ 8 h 0.2439(10) 0.2528(13) 0.2000(7) 1. 0 1.34(18) 
P1 P5+ 4 g 0.0427(7) 0.3358(4) 0 1. 0 0.91(12) 
P2 P5+ 4 g 0.4534(7) 0.2804(4) 0 1. 0 0.12(11) 
P3 P5+ 4 g 0.2087(6) 0.0368(4) 0 1. 0 0.28(11) 
O1 O2- 4 g 0.8811(6) 0.3218(4) 0 1. 0 0.79(11) 
O2 O2- 4 g 0.6134(6) 0.2760(3) 0 1. 0 0.66(12) 
O3 O2- 8 h 0.5907(4) 0.1208(3) 0.2983(7) 1. 0 1.15(8) 
O4 O2- 4 g 0.3906(6) 0.1940(4) 0 1. 0 1.00(11) 
O5 O2- 4 g 0.1100(7) 0.2465(4) 0 1. 0 1.45(14) 
O6 O2- 4 g 0.8616(7) 0.0440(4) 0 1. 0 1.76(14) 
O7 O2- 8 h 0.1660(4) 0.0889(3) 0.1987(7) 1. 0 1.38(8) 
O8 O2- 8 h 0.9002(4) 0.1790(2) 0.7068(7) 1. 0 1.00(8) 
O9 O2- 4 g 0.3668(7) 0.0207(4) 0 1. 0 1.76(14) 

#End of data_246136-ICSD


