data_82972-ICSD
#?2014 by Fachinformationszentrum Karlsruhe, and the U.S. Secretary of 
#Commerce on behalf of the United States.  All rights reserved.
_database_code_ICSD                82972
_audit_creation_date               1998/06/26
_audit_update_record               2002/04/01
_chemical_name_systematic          'Calcium Ruthenate(IV)'
_chemical_formula_structural       'Ca (Ru O3)'
_chemical_formula_sum              'Ca1 O3 Ru1'
_publ_section_title
;
Structural analysis of polycrystalline Ca Ru O3 and Sr Ru O3 ceramics 
from room temperature up to 1273 K
;
loop_
_citation_id
_citation_journal_abbrev
_citation_year
_citation_journal_volume
_citation_page_first
_citation_page_last
_citation_journal_id_ASTM
primary 'Materials Science Forum' 1996 228 789 794 MSFOEP
_publ_author_name
;
Cuffini, S.L.;Guevara, J.A.;Mascarenhas, Y.P.
;
_cell_length_a                     5.531(3)
_cell_length_b                     7.726(1)
_cell_length_c                     5.425(7)
_cell_angle_alpha                  90.
_cell_angle_beta                   90.
_cell_angle_gamma                  90.
_cell_volume                       231.82
_cell_formula_units_Z              4
_symmetry_space_group_name_H-M     'P n m a'
_symmetry_Int_Tables_number        62
_refine_ls_R_factor_all            .1
loop_
_symmetry_equiv_pos_site_id
_symmetry_equiv_pos_as_xyz
  1	'x+.5, y, -z+.5'
  2	'x, -y+.5, z'
  3	'-x+.5, y+.5, z+.5'
  4	'-x, -y, -z'
  5	'-x+.5, -y, z+.5'
  6	'-x, y+.5, -z'
  7	'x+.5, -y+.5, -z+.5'
  8	'x, y, z'
loop_
_atom_type_symbol
_atom_type_oxidation_number
Ca2+	2
O2-	-2
Ru4+	4
loop_
_atom_site_label
_atom_site_type_symbol
_atom_site_symmetry_multiplicity
_atom_site_Wyckoff_symbol
_atom_site_fract_x
_atom_site_fract_y
_atom_site_fract_z
_atom_site_occupancy
_atom_site_attached_hydrogens
_atom_site_B_iso_or_equiv
Ca1 Ca2+ 4 c 0.9517(7) 0.25 -.015(1) 1. 0 0.387 
Ru1 Ru4+ 4 b 0 0 0.5 1. 0 0.232 
O1 O2- 8 d 0.211(1) 0.459(1) 0.208(1) 1. 0 1.243 
O2 O2- 4 c 0.066(7) 0.25 0.570(5) 1. 0 1.243 

#End of data_82972-ICSD


