data_167044-ICSD
#?2014 by Fachinformationszentrum Karlsruhe, and the U.S. Secretary of 
#Commerce on behalf of the United States.  All rights reserved.
_database_code_ICSD                167044
_audit_creation_date               2010/08/01
_chemical_name_systematic
;
Disodium Iron Phosphate(V) Fluoride
;
_chemical_formula_structural       'Na2 Fe (P O4) F'
_chemical_formula_sum              'F1 Fe1 Na2 O4 P1'
_publ_section_title
;
Crystal structures and electrochemical properties of A2 M P O4 F 
fluorophosphates (A= Na, Li; M= Fe, Mn, Co, Ni)
;
loop_
_citation_id
_citation_journal_abbrev
_citation_year
_citation_journal_volume
_citation_journal_issue
_citation_page_first
_citation_page_last
_citation_journal_id_ASTM
primary 'Chemistry of Materials' 2010 22 3 1059 1070 CMATEX
_publ_author_name
;
Ellis, B.L.;Makahnouk, W.R.M.;Rowan-Weetaluktuk, W.N.;Ryan, 
D.H.;Nazar, L.F.
;
_cell_length_a                     5.2200(2)
_cell_length_b                     13.8540(6)
_cell_length_c                     11.7792(5)
_cell_angle_alpha                  90.
_cell_angle_beta                   90.
_cell_angle_gamma                  90.
_cell_volume                       851.85
_cell_formula_units_Z              8
_symmetry_space_group_name_H-M     'P b c n'
_symmetry_Int_Tables_number        60
_refine_ls_R_factor_all            .0294
loop_
_symmetry_equiv_pos_site_id
_symmetry_equiv_pos_as_xyz
  1	'x, -y, z+.5'
  2	'-x+.5, y+.5, z'
  3	'x+.5, y+.5, -z+.5'
  4	'-x, -y, -z'
  5	'-x, y, -z+.5'
  6	'x+.5, -y+.5, -z'
  7	'-x+.5, -y+.5, z+.5'
  8	'x, y, z'
loop_
_atom_type_symbol
_atom_type_oxidation_number
F1-	-1
Fe2+	2
Na1+	1
O2-	-2
P5+	5
loop_
_atom_site_label
_atom_site_type_symbol
_atom_site_symmetry_multiplicity
_atom_site_Wyckoff_symbol
_atom_site_fract_x
_atom_site_fract_y
_atom_site_fract_z
_atom_site_occupancy
_atom_site_attached_hydrogens
Fe1 Fe2+ 8 d 0.2275(1) 0.0101(1) 0.3261(1) 1. 0 
P1 P5+ 8 d 0.2035(1) 0.3810(1) 0.0871(1) 1. 0 
Na1 Na1+ 8 d 0.2633(1) 0.2446(1) 0.3281(1) 1. 0 
Na2 Na1+ 8 d 0.2395(1) 0.1249(1) 0.0836(1) 1. 0 
F1 F1- 4 c 0 0.1238(1) 0.250 1. 0 
F2 F1- 4 c 0.5 0.1009(1) 0.250 1. 0 
O1 O2- 8 d 0.2663(2) 0.3882(1) -0.0396(1) 1. 0 
O2 O2- 8 d 0.2846(2) 0.2837(1) 0.1330(1) 1. 0 
O3 O2- 8 d -0.0905(2) 0.3948(1) 0.1027(1) 1. 0 
O4 O2- 8 d 0.3398(2) 0.4636(1) 0.1515(1) 1. 0 

#End of data_167044-ICSD


