data_20402-ICSD
#?2014 by Fachinformationszentrum Karlsruhe, and the U.S. Secretary of 
#Commerce on behalf of the United States.  All rights reserved.
_database_code_ICSD                20402
_audit_creation_date               1982/12/31
_audit_update_record               2006/04/01
_chemical_name_systematic          'Disodium Zirconium Digermanate'
_chemical_formula_structural       'Na2 Zr (Ge2 O7)'
_chemical_formula_sum              'Ge2 Na2 O7 Zr1'
_publ_section_title
;
The crystal structure of Na2 Zr Ge2 O7
;
loop_
_citation_id
_citation_journal_abbrev
_citation_year
_citation_journal_volume
_citation_page_first
_citation_page_last
_citation_journal_id_ASTM
primary 'Doklady Akademii Nauk SSSR' 1982 263 877 879 DANKAS
2 Kristallografiya 1989 34 846 852 KRISAJ
_publ_author_name
;
Ilyukhin, V.V.;Voronkov, A.A.;Dem'yanets, L.N.;Belov, N.V.
;
_cell_length_a                     5.630(1)
_cell_length_b                     6.677(2)
_cell_length_c                     9.108(5)
_cell_angle_alpha                  70.60(4)
_cell_angle_beta                   88.85(4)
_cell_angle_gamma                  87.04(2)
_cell_volume                       322.51
_cell_formula_units_Z              2
_symmetry_space_group_name_H-M     'P -1'
_symmetry_Int_Tables_number        2
_refine_ls_R_factor_all            .05
loop_
_symmetry_equiv_pos_site_id
_symmetry_equiv_pos_as_xyz
  1	'-x, -y, -z'
  2	'x, y, z'
loop_
_atom_type_symbol
_atom_type_oxidation_number
Ge4+	4
Na1+	1
O2-	-2
Zr4+	4
loop_
_atom_site_label
_atom_site_type_symbol
_atom_site_symmetry_multiplicity
_atom_site_Wyckoff_symbol
_atom_site_fract_x
_atom_site_fract_y
_atom_site_fract_z
_atom_site_occupancy
_atom_site_attached_hydrogens
Zr1 Zr4+ 2 i 0.22955(8) 0.70010(7) 0.72378(5) 1. 0 
Ge1 Ge4+ 2 i 0.77465(9) 0.35546(8) 0.85525(6) 1. 0 
Ge2 Ge4+ 2 i 0.69603(9) 0.05177(8) 0.66487(6) 1. 0 
Na1 Na1+ 2 i 0.2691(5) 0.0996(4) 0.8837(3) 1. 0 
Na2 Na1+ 2 i 0.7664(5) 0.6553(4) 0.5027(3) 1. 0 
O1 O2- 2 i 0.2086(7) 0.7013(6) 0.9466(4) 1. 0 
O2 O2- 2 i 0.7179(7) 0.0973(6) 0.8475(4) 1. 0 
O3 O2- 2 i 0.5405(7) 0.5175(6) 0.7586(4) 1. 0 
O4 O2- 2 i 0.0494(7) 0.4155(6) 0.7638(4) 1. 0 
O5 O2- 2 i 0.3969(7) 0.0065(6) 0.6635(4) 1. 0 
O6 O2- 2 i 0.9010(7) 0.8504(6) 0.6678(5) 1. 0 
O7 O2- 2 i 0.2589(7) 0.7116(6) 0.4865(4) 1. 0 

#End of data_20402-ICSD


