data_50069-ICSD
#?2014 by Fachinformationszentrum Karlsruhe, and the U.S. Secretary of 
#Commerce on behalf of the United States.  All rights reserved.
_database_code_ICSD                50069
_audit_creation_date               1999/01/19
_chemical_name_systematic          'Dicalcium Magnesium Disilicate'
_chemical_formula_structural       'Ca2 Mg (Si2 O7)'
_chemical_formula_sum              'Ca2 Mg1 O7 Si2'
_chemical_name_mineral             Akermanite
_publ_section_title
;
Structural change associated with the incommensurate-normal phase 
transition in akermanite, Ca2 Mg Si2 O7, at high pressure
;
loop_
_citation_id
_citation_journal_abbrev
_citation_year
_citation_journal_volume
_citation_page_first
_citation_page_last
_citation_journal_id_ASTM
primary 'Physics and Chemistry of Minerals' 1997 24 510 519 PCMIDU
_publ_author_name
;
Yang, H.;Hazen, R.M.;Downs, R.T.;Finger, L.W.
;
_cell_length_a                     7.7937(5)
_cell_length_b                     7.7937(5)
_cell_length_c                     4.9696(4)
_cell_angle_alpha                  90.
_cell_angle_beta                   90.
_cell_angle_gamma                  90.
_cell_volume                       301.86
_cell_formula_units_Z              2
_symmetry_space_group_name_H-M     'P -4 21 m'
_symmetry_Int_Tables_number        113
_refine_ls_R_factor_all            .041
loop_
_symmetry_equiv_pos_site_id
_symmetry_equiv_pos_as_xyz
  1	'-y+.5, -x+.5, z'
  2	'y, -x, -z'
  3	'y+.5, x+.5, z'
  4	'-y, x, -z'
  5	'x+.5, -y+.5, -z'
  6	'-x, -y, z'
  7	'-x+.5, y+.5, -z'
  8	'x, y, z'
loop_
_atom_type_symbol
_atom_type_oxidation_number
Ca2+	2
Mg2+	2
O2-	-2
Si4+	4
loop_
_atom_site_label
_atom_site_type_symbol
_atom_site_symmetry_multiplicity
_atom_site_Wyckoff_symbol
_atom_site_fract_x
_atom_site_fract_y
_atom_site_fract_z
_atom_site_occupancy
_atom_site_attached_hydrogens
Ca1 Ca2+ 4 e 0.3331(1) 0.1669(1) 0.5053(4) 1. 0 
Mg1 Mg2+ 2 a 0 0 0 1. 0 
Si1 Si4+ 4 e 0.1404(2) 0.3596(2) 0.9346(5) 1. 0 
O1 O2- 2 c 0.5 0 0.1838(23) 1. 0 
O2 O2- 4 e 0.1404(6) 0.3596(6) 0.2558(16) 1. 0 
O3 O2- 8 f 0.0813(7) 0.1853(6) 0.7819(12) 1. 0 

#End of data_50069-ICSD


