data_47161-ICSD
#?2014 by Fachinformationszentrum Karlsruhe, and the U.S. Secretary of 
#Commerce on behalf of the United States.  All rights reserved.
_database_code_ICSD                47161
_audit_creation_date               1985/06/13
_audit_update_record               1999/01/19
_chemical_name_systematic          'Magnesium Chloride Hexahydrate'
_chemical_formula_structural       'Mg Cl2 (H2 O)6'
_chemical_formula_sum              'H12 Cl2 Mg1 O6'
_chemical_name_mineral             Bischofite
_publ_section_title
;
Magnesium dichloride hexahydrate, Mg Cl2 (H2 O)6, by neutron 
diffraction.
;
loop_
_citation_id
_citation_journal_abbrev
_citation_year
_citation_journal_volume
_citation_page_first
_citation_page_last
_citation_journal_id_ASTM
primary 'Acta Crystallographica, Section C: Crystal Structure Communications'
 1985 41 8 10 ACSCEE
_publ_author_name                  'Agron, P.A.;Busing, W.R.'
_cell_length_a                     9.8607(2)
_cell_length_b                     7.1071(2)
_cell_length_c                     6.0737(2)
_cell_angle_alpha                  90.
_cell_angle_beta                   93.758(2)
_cell_angle_gamma                  90.
_cell_volume                       424.74
_cell_formula_units_Z              2
_symmetry_space_group_name_H-M     'C 1 2/m 1'
_symmetry_Int_Tables_number        12
_refine_ls_R_factor_all            .0548
loop_
_symmetry_equiv_pos_site_id
_symmetry_equiv_pos_as_xyz
  1	'-x, y, -z'
  2	'-x, -y, -z'
  3	'x, -y, z'
  4	'x, y, z'
  5	'-x+.5, y+.5, -z'
  6	'-x+.5, -y+.5, -z'
  7	'x+.5, -y+.5, z'
  8	'x+.5, y+.5, z'
loop_
_atom_type_symbol
_atom_type_oxidation_number
Cl1-	-1
H1+	1
Mg2+	2
O2-	-2
loop_
_atom_site_label
_atom_site_type_symbol
_atom_site_symmetry_multiplicity
_atom_site_Wyckoff_symbol
_atom_site_fract_x
_atom_site_fract_y
_atom_site_fract_z
_atom_site_occupancy
_atom_site_attached_hydrogens
Mg1 Mg2+ 2 a 0 0 0 1. 0 
Cl1 Cl1- 4 i 0.3176(1) 0 0.6122(2) 1. 0 
O1 O2- 4 i 0.2019(1) 0 0.1095(3) 1. 0 
O2 O2- 8 j -.0429(1) 0.2067(2) 0.233(2) 1. 0 
H1 H1+ 4 i 0.2372(3) 0 0.2583(6) 1. 0 
H2 H1+ 4 i 0.2693(4) 0 0.0083(8) 1. 0 
H3 H1+ 8 j 0.0209(2) 0.2997(3) 0.2784(4) 1. 0 
H4 H1+ 8 j -.1161(2) 0.1984(4) 0.3151(4) 1. 0 

loop_
_atom_site_aniso_label
_atom_site_aniso_type_symbol
_atom_site_aniso_U_11
_atom_site_aniso_U_22
_atom_site_aniso_U_33
_atom_site_aniso_U_12
_atom_site_aniso_U_13
_atom_site_aniso_U_23
Mg1 Mg2+ 0.0226(7) 0.0295(8) 0.0245(8) 0 0.0018(6) 0
Cl1 Cl1- 0.0312(3) 0.0407(4) 0.0359(4) 0 0.0052(3) 0
O1 O2- 0.0256(5) 0.0689(11) 0.0379(8) 0 -.0017(6) 0
O2 O2- 0.0453(5) 0.0497(6) 0.0538(7) -.0100(5) 0.0196(5) -.0231(5)
H1 H1+ 0.0486(14) 0.0861(23) 0.0527(18) 0 -.0117(13) 0
H2 H1+ 0.0448(17) 0.1418(42) 0.0801(25) 0 0.0178 0
H3 H1+ 0.0661(11) 0.049(1) 0.0559(1) -.0065(9) 0.0017(9) -.0144(9)
H4 H1+ 0.0647(13) 0.0947(18) 0.0702(15) 0.0032(13) 0.0319(12) -.0164(14)
#End of data_47161-ICSD


