data_87663-ICSD
#?2014 by Fachinformationszentrum Karlsruhe, and the U.S. Secretary of 
#Commerce on behalf of the United States.  All rights reserved.
_database_code_ICSD                87663
_audit_creation_date               2000/12/16
_chemical_name_systematic
;
Calcium Aluminium Fluoride Silicate
;
_chemical_formula_structural       'Ca Al F (Si O4)'
_chemical_formula_sum              'Al1 Ca1 F1 O4 Si1'
_chemical_name_mineral             Unnamed
_publ_section_title
;
The synthesis and crystal structure of Ca A F Si O4, the Al F analog 
of titanite
;
loop_
_citation_id
_citation_journal_abbrev
_citation_year
_citation_journal_volume
_citation_page_first
_citation_page_last
_citation_journal_id_ASTM
primary 'American Mineralogist' 1999 84 1162 1169 AMMIAY
_publ_author_name                  'Troitzsch, U.;Ellis, D.J.'
_cell_length_a                     6.9149(2)
_cell_length_b                     8.5064(1)
_cell_length_c                     6.4384(2)
_cell_angle_alpha                  90.
_cell_angle_beta                   114.684(2)
_cell_angle_gamma                  90.
_cell_volume                       344.11
_cell_formula_units_Z              4
_symmetry_space_group_name_H-M     'A 1 2/a 1'
_symmetry_Int_Tables_number        15
_refine_ls_R_factor_all            .034
loop_
_symmetry_equiv_pos_site_id
_symmetry_equiv_pos_as_xyz
  1	'-x+.5, y, -z'
  2	'-x, -y, -z'
  3	'x+.5, -y, z'
  4	'x, y, z'
  5	'-x+.5, y+.5, -z+.5'
  6	'-x, -y+.5, -z+.5'
  7	'x+.5, -y+.5, z+.5'
  8	'x, y+.5, z+.5'
loop_
_atom_type_symbol
_atom_type_oxidation_number
Al3+	3
Ca2+	2
F1-	-1
O2-	-2
Si4+	4
loop_
_atom_site_label
_atom_site_type_symbol
_atom_site_symmetry_multiplicity
_atom_site_Wyckoff_symbol
_atom_site_fract_x
_atom_site_fract_y
_atom_site_fract_z
_atom_site_occupancy
_atom_site_attached_hydrogens
_atom_site_B_iso_or_equiv
Ca1 Ca2+ 4 e 0.25 0.1637(2) 0 1. 0 1.50(7) 
Al1 Al3+ 4 b 0.5 0 0.5 1. 0 1.75(7) 
Si1 Si4+ 4 e 0.75 0.1860(4) 0 1. 0 1.21(8) 
F1 F1- 4 e 0.75 0.0709(5) 0.5 1. 0 1.15(12) 
O1 O2- 8 f 0.9031(5) 0.0667(4) 0.1904(5) 1. 0 0.80(11) 
O2 O2- 8 f 0.3887(6) 0.2011(4) 0.4031(6) 1. 0 0.79(10) 

#End of data_87663-ICSD


