data_250421-ICSD
#?2014 by Fachinformationszentrum Karlsruhe, and the U.S. Secretary of 
#Commerce on behalf of the United States.  All rights reserved.
_database_code_ICSD                250421
_audit_creation_date               2008/02/01
_chemical_name_systematic
;
Potassium Disodium Lithium Diiron Dititanium Octakis-catena-silicate
;
_chemical_formula_structural       'K Na2 Li Fe2 Ti2 (Si O3)8'
_chemical_formula_sum              'Fe2 K1 Li1 Na2 O24 Si8 Ti2'
_chemical_name_mineral             Neptunite
_publ_section_title
;
Refinement of the mangan-neptunite structure
;
loop_
_citation_id
_citation_journal_abbrev
_citation_year
_citation_journal_volume
_citation_journal_issue
_citation_page_first
_citation_page_last
_citation_journal_id_ASTM
primary 'Zapiski Vserossijskogo Mineralogicheskogo Obshchestva'
 2007 2007 1 118 123 ZVMOEK
_publ_author_name
;
Zolotarev, A.A.;Krivovichev, S.V.;Yakovenchuk, V.N.
;
_cell_length_a                     16.4821(6)
_cell_length_b                     12.5195(4)
_cell_length_c                     10.0292(3)
_cell_angle_alpha                  90
_cell_angle_beta                   115.474(1)
_cell_angle_gamma                  90
_cell_volume                       1868.31
_cell_formula_units_Z              4
_symmetry_space_group_name_H-M     'C 1 c 1'
_symmetry_Int_Tables_number        9
_refine_ls_R_factor_all            .0307
loop_
_symmetry_equiv_pos_site_id
_symmetry_equiv_pos_as_xyz
  1	'x, -y, z+.5'
  2	'x, y, z'
  3	'x+.5, -y+.5, z+.5'
  4	'x+.5, y+.5, z'
loop_
_atom_type_symbol
_atom_type_oxidation_number
Fe2+	2
K1+	1
Li1+	1
Na1+	1
O2-	-2
Si4+	4
Ti4+	4
loop_
_atom_site_label
_atom_site_type_symbol
_atom_site_symmetry_multiplicity
_atom_site_Wyckoff_symbol
_atom_site_fract_x
_atom_site_fract_y
_atom_site_fract_z
_atom_site_occupancy
_atom_site_attached_hydrogens
_atom_site_U_iso_or_equiv
Si1 Si4+ 4 a 0.14640(6) 0.40807(7) 0.0626(1) 1 0 0.0061(2) 
Si2 Si4+ 4 a 0.85522(6) 0.59502(7) -0.0595(1) 1 0 0.0065(2) 
Si3 Si4+ 4 a 0.52338(6) 0.22472(7) 0.0836(1) 1 0 0.0070(2) 
Si4 Si4+ 4 a 0.47738(6) 0.77184(7) -0.0855(1) 1 0 0.0062(2) 
Si5 Si4+ 4 a 0.76903(6) 0.47365(7) 0.1105(1) 1 0 0.0065(2) 
Si6 Si4+ 4 a 0.22894(6) 0.52406(7) 0.8915(1) 1 0 0.0065(2) 
Si7 Si4+ 4 a 0.89388(6) 0.15208(7) 0.0790(1) 1 0 0.0069(2) 
Si8 Si4+ 4 a 0.10519(6) 0.85221(7) -0.0834(1) 1 0 0.0064(2) 
Ti1 Ti4+ 4 a 0.34233(3) 0.3264(5) 0.10313(6) 1 0 0.0062(2) 
Ti2 Ti4+ 4 a 0.08716(4) 0.05326(4) 0.11462(6) 1 0 0.0064(1) 
Fe1 Fe2+ 4 a 0.66082(3) 0.68390(5) -0.09788(5) 1 0 0.0118(1) 
Fe2 Fe2+ 4 a -0.08942 -0.06065(4) 0.88539(6) 1 0 0.0122(1) 
Na1 Na1+ 4 a 0.2654(1) 0.1974(1) 0.3127(2) 1 0 0.0210(4) 
Na2 Na1+ 4 a 0.7368(1) 0.8012(1) 0.6971(2) 1 0 0.0170(3) 
K1 K1+ 4 a -0.00131(8) 0.42070(6) 0.2497(1) 1 0 0.0234(1) 
Li1 Li1+ 4 a 0.5007(6) 0.4349(4) 0.249(1) 1 0 0.0150(9) 
O1 O2- 4 a 0.9580(2) 0.0530(2) 0.0768(3) 1 0 0.0074(4) 
O2 O2- 4 a 0.0502(2) -0.0437(2) -0.0702(3) 1 0 0.0078(4) 
O3 O2- 4 a 0.4558(2) 0.3229(2) 0.0729(3) 1 0 0.0076(4) 
O4 O2- 4 a 0.5418(2) 0.6704(2) -0.0658(3) 1 0 0.0090(4) 
O5 O2- 4 a 0.1086(2) 0.1672(2) 0.2606(3) 1 0 0.0095(4) 
O6 O2- 4 a 0.8878(2) 0.8261(2) 0.7290(3) 1 0 0.0124(5) 
O7 O2- 4 a 0.3705(2) 0.4295(2) 0.2227(3) 1 0 0.0105(4) 
O8 O2- 4 a 0.6216(2) 0.5498(2) 0.7383(3) 1 0 0.0115(4) 
O9 O2- 4 a 0.2052(2) 0.0727(2) 0.0992(3) 1 0 0.0087(4) 
O10 O2- 4 a 0.7901(2) -0.0801(2) -0.0894(3) 1 0 0.0087(4) 
O11 O2- 4 a 0.7116(2) 0.3650(2) 0.0386(3) 1 0 0.0097(4) 
O12 O2- 4 a 0.2900(2) 0.6307(2) 0.0500(3) 1 0 0.0103(4) 
O13 O2- 4 a 0.2141(2) 0.3104(2) 0.0800(3) 1 0 0.0077(4) 
O14 O2- 4 a 0.7961(2) 0.6972(2) 0.0649(3) 1 0 0.0086(4) 
O15 O2- 4 a 0.8319(2) 0.4954(2) 0.0236(3) 1 0 0.0094(4) 
O16 O2- 4 a 0.1672(2) 0.5105(2) -0.0187(3) 1 0 0.0093(4) 
O17 O2- 4 a 0.1586(2) 0.4513(2) 0.2237(3) 1 0 0.0099(4) 
O18 O2- 4 a 0.8385(2) 0.5513(2) 0.7784(3) 1 0 0.0102(4) 
O19 O2- 4 a 0.3968(2) 0.2114(2) 0.2511(3) 1 0 0.0102(4) 
O20 O2- 4 a 0.6042(2) 0.7944(2) 0.7408(3) 1 0 0.0118(5) 
O21 O2- 4 a 0.4628(2) 0.1158(2) 0.0223(3) 1 0 0.0092(4) 
O22 O2- 4 a 0.5403(2) 0.8791(2) -0.0266(3) 1 0 0.0087(4) 
O23 O2- 4 a 0.9252(2) 0.2609(2) 0.0225(3) 1 0 0.0092(4) 
O24 O2- 4 a 0.0684(2) 0.7458(2) -0.0341(3) 1 0 0.0104(4) 

#End of data_250421-ICSD


