data_173742-ICSD
#?2014 by Fachinformationszentrum Karlsruhe, and the U.S. Secretary of 
#Commerce on behalf of the United States.  All rights reserved.
_database_code_ICSD                173742
_audit_creation_date               2009/08/01
_chemical_name_systematic
;
Dipotassium Dicobalt Trimolybdate - Alpha
;
_chemical_formula_structural       'K2 Co2 (Mo3 O12)'
_chemical_formula_sum              'Co2 K2 Mo3 O12'
_publ_section_title
;
Polymorphism of K2 Co2 Mo3 O12: variations in the packing schemes and 
changes in molybdenum coordination under high pressure
;
loop_
_citation_id
_citation_journal_abbrev
_citation_year
_citation_journal_volume
_citation_journal_issue
_citation_page_first
_citation_page_last
_citation_journal_id_ASTM
primary 'Acta Crystallographica, Section B: Structural Science'
 2009 65 1 29 35 ASBSDK
_publ_author_name
;
Engel, J.M.;Ahsbahs, H.;Fuess, H.;Ehrenberg, H.
;
_cell_length_a                     7.0093(1)
_cell_length_b                     8.9624(2)
_cell_length_c                     19.9977(4)
_cell_angle_alpha                  90.00
_cell_angle_beta                   108.247(2)
_cell_angle_gamma                  90.00
_cell_volume                       1193.09
_cell_formula_units_Z              4
_symmetry_space_group_name_H-M     'P 1 21/c 1'
_symmetry_Int_Tables_number        14
_refine_ls_R_factor_all            .0284
loop_
_symmetry_equiv_pos_site_id
_symmetry_equiv_pos_as_xyz
  1	'x, -y+.5, z+.5'
  2	'-x, -y, -z'
  3	'-x, y+.5, -z+.5'
  4	'x, y, z'
loop_
_atom_type_symbol
_atom_type_oxidation_number
Co2+	2
K1+	1
Mo6+	6
O2-	-2
loop_
_atom_site_label
_atom_site_type_symbol
_atom_site_symmetry_multiplicity
_atom_site_Wyckoff_symbol
_atom_site_fract_x
_atom_site_fract_y
_atom_site_fract_z
_atom_site_occupancy
_atom_site_attached_hydrogens
_atom_site_U_iso_or_equiv
Mo1 Mo6+ 4 e 0.04914(8) 0.34200(6) 0.27004(3) 1 0 0.0103(2) 
Mo2 Mo6+ 4 e 0.80582(8) 0.73501(6) 0.40157(3) 1 0 0.0090(2) 
Mo3 Mo6+ 4 e 0.58498(8) 0.33816(6) 0.45880(3) 1 0 0.0098(2) 
Co1 Co2+ 4 e 0.27783(13) 0.65556(9) 0.36482(4) 1 0 0.0077(3) 
Co2 Co2+ 4 e 0.07178(12) 0.41935(9) 0.43901(4) 1 0 0.0078(3) 
K1 K1+ 4 e 0.1961(3) 0.04268(18) 0.40919(9) 1 0 0.0245(4) 
K2 K1+ 4 e 0.5042(3) 0.0135(3) 0.27230(11) 1 0 0.0410(6) 
O1 O2- 4 e 0.2132(8) 0.2065(6) 0.2592(3) 1 0 0.0256(12) 
O2 O2- 4 e 0.1740(7) 0.5164(5) 0.2797(2) 1 0 0.0163(10) 
O3 O2- 4 e -0.0096(7) 0.3013(6) 0.3486(2) 1 0 0.0190(11) 
O4 O2- 4 e -0.1777(7) 0.3429(5) 0.1962(2) 1 0 0.0120(10) 
O5 O2- 4 e 0.5621(7) 0.6710(5) 0.3549(3) 1 0 0.0137(10) 
O6 O2- 4 e 0.8305(7) 0.9128(5) 0.3723(3) 1 0 0.0189(11) 
O7 O2- 4 e 0.8403(7) 0.7553(5) 0.4934(2) 1 0 0.0152(10) 
O8 O2- 4 e 1.0029(6) 0.6221(5) 0.3884(2) 1 0 0.0115(9) 
O9 O2- 4 e 0.5421(8) 0.2074(6) 0.3943(3) 1 0 0.0258(12) 
O10 O2- 4 e 0.6224(7) 0.2339(5) 0.5369(2) 1 0 0.0146(10) 
O11 O2- 4 e 0.8061(7) 0.4433(5) 0.4606(2) 1 0 0.0136(10) 
O12 O2- 4 e 0.3644(7) 0.4571(5) 0.4350(3) 1 0 0.0147(10) 

loop_
_atom_site_aniso_label
_atom_site_aniso_type_symbol
_atom_site_aniso_U_11
_atom_site_aniso_U_22
_atom_site_aniso_U_33
_atom_site_aniso_U_12
_atom_site_aniso_U_13
_atom_site_aniso_U_23
Mo1 Mo6+ 0.0097(3) 0.0122(4) 0.0080(3) -0.00045(19) 0.0012(2) -0.00164(19)
Mo2 Mo6+ 0.0076(3) 0.0104(3) 0.0087(3) 0.0009(2) 0.0021(2) 0.00107(19)
Mo3 Mo6+ 0.0073(3) 0.0114(4) 0.0098(3) 0.00017(19) 0.0012(2) 0.00075(19)
Co1 Co2+ 0.0060(4) 0.0091(5) 0.0077(5) 0.0003(3) 0.0019(3) 0.0001(3)
Co2 Co2+ 0.0071(4) 0.0098(5) 0.0074(4) 0.0018(3) 0.0037(3) 0.0016(3)
K1 K1+ 0.0274(9) 0.0161(8) 0.0309(9) -0.0021(6) 0.0105(7) -0.0063(6)
K2 K1+ 0.0316(10) 0.0644(14) 0.0329(11) 0.0273(10) 0.0186(8) 0.0238(10)
O1 O2- 0.016(3) 0.027(3) 0.029(3) 0.006(2) 0.001(2) -0.010(2)
O2 O2- 0.018(2) 0.018(2) 0.015(2) -0.006(2) 0.008(2) -0.0063(19)
O3 O2- 0.027(3) 0.021(2) 0.011(2) -0.010(2) 0.010(2) -0.002(2)
O4 O2- 0.011(2) 0.011(2) 0.012(2) -0.0001(16) -0.0001(19) -0.0025(16)
O5 O2- 0.008(2) 0.021(3) 0.013(2) -0.0016(18) 0.0045(19) -0.0017(18)
O6 O2- 0.019(3) 0.016(3) 0.021(3) 0.002(2) 0.005(2) 0.007(2)
O7 O2- 0.020(3) 0.014(2) 0.013(2) 0.0031(19) 0.006(2) -0.0004(18)
O8 O2- 0.010(2) 0.014(2) 0.012(2) 0.0005(18) 0.0050(18) 0.0027(18)
O9 O2- 0.027(3) 0.025(3) 0.022(3) -0.001(2) 0.003(2) -0.010(2)
O10 O2- 0.014(2) 0.015(2) 0.014(2) 0.0004(18) 0.003(2) 0.0024(18)
O11 O2- 0.013(2) 0.017(2) 0.012(2) -0.0018(19) 0.0052(19) 0.0006(18)
O12 O2- 0.010(2) 0.016(2) 0.017(2) 0.0019(18) 0.0029(19) 0.0073(19)
#End of data_173742-ICSD


