data_425447-ICSD
#?2014 by Fachinformationszentrum Karlsruhe, and the U.S. Secretary of 
#Commerce on behalf of the United States.  All rights reserved.
_database_code_ICSD                425447
_audit_creation_date               2013/08/01
_chemical_name_systematic          'Distrontium Sodium Iodate(VII)'
_chemical_formula_structural       'Sr2 Na (I O6)'
_chemical_formula_sum              'I1 Na1 O6 Sr2'
_publ_section_title
;
The periodate-based double perovskites M2 Na I O6 (M = Ca, Sr, and 
Ba)
;
loop_
_citation_id
_citation_journal_abbrev
_citation_year
_citation_journal_volume
_citation_journal_issue
_citation_page_first
_citation_page_last
_citation_journal_id_ASTM
primary 'Zeitschrift fuer Anorganische und Allgemeine Chemie (1950) (DE)'
 2013 639 6 892 898 ZAACAB
_publ_author_name
;
Kubel, Frank;Wandl, Nicole;Pantazi, Mariana;D'Anna, 
Vincenza;Hagemann, Hans
;
_cell_length_a                     5.75996(5)
_cell_length_b                     5.77585(5)
_cell_length_c                     9.97423(8)
_cell_angle_alpha                  90.00000
_cell_angle_beta                   125.3618(5)
_cell_angle_gamma                  90.00000
_cell_volume                       270.61
_cell_formula_units_Z              2
_symmetry_space_group_name_H-M     'P 1 21/c 1'
_symmetry_Int_Tables_number        14
_refine_ls_R_factor_all            .026
loop_
_symmetry_equiv_pos_site_id
_symmetry_equiv_pos_as_xyz
  1	'x, -y+.5, z+.5'
  2	'-x, -y, -z'
  3	'-x, y+.5, -z+.5'
  4	'x, y, z'
loop_
_atom_type_symbol
_atom_type_oxidation_number
I7+	7
Na1+	1
O2-	-2
Sr2+	2
loop_
_atom_site_label
_atom_site_type_symbol
_atom_site_symmetry_multiplicity
_atom_site_Wyckoff_symbol
_atom_site_fract_x
_atom_site_fract_y
_atom_site_fract_z
_atom_site_occupancy
_atom_site_attached_hydrogens
_atom_site_U_iso_or_equiv
Na1 Na1+ 2 d .50000 .00000 .50000 1.00000 0 .0040(11) 
I1 I7+ 2 a .00000 .00000 .00000 1.00000 0 .00310(18) 
Sr1 Sr2+ 4 e .2549(4) .47043(13) .2513(3) 1.00000 0 .0084(2) 
O1 O2- 4 e .240(3) .7330(17) .0401(17) 1.00000 0 .0115(11) 
O2 O2- 4 e .1678(22) .0107(8) .2340(9) 1.00000 0 .0115(11) 
O3 O2- 4 e .300(3) .1906(18) .0292(18) 1.00000 0 .0115(11) 

#End of data_425447-ICSD


