data_86933-ICSD
#?2014 by Fachinformationszentrum Karlsruhe, and the U.S. Secretary of 
#Commerce on behalf of the United States.  All rights reserved.
_database_code_ICSD                86933
_audit_creation_date               2000/07/15
_chemical_name_systematic          'Scandium Aluminium Oxide'
_chemical_formula_structural       'Sc Al O3'
_chemical_formula_sum              'Al1 O3 Sc1'
_publ_section_title
;
High pressure study of Sc Al O3 perovskite
;
loop_
_citation_id
_citation_journal_abbrev
_citation_year
_citation_journal_volume
_citation_page_first
_citation_page_last
_citation_journal_id_ASTM
primary 'Physics and Chemistry of Minerals' 1998 25 597 602 PCMIDU
_publ_author_name                  'Ross, N.L.'
_cell_length_a                     4.9149(11)
_cell_length_b                     5.2121(7)
_cell_length_c                     7.1620(11)
_cell_angle_alpha                  90.
_cell_angle_beta                   90.
_cell_angle_gamma                  90.
_cell_volume                       183.47
_cell_formula_units_Z              4
_symmetry_space_group_name_H-M     'P b n m'
_symmetry_Int_Tables_number        62
_refine_ls_R_factor_all            .035
loop_
_symmetry_equiv_pos_site_id
_symmetry_equiv_pos_as_xyz
  1	'-x+.5, y+.5, z'
  2	'x, y, -z+.5'
  3	'x+.5, -y+.5, z+.5'
  4	'-x, -y, -z'
  5	'x+.5, -y+.5, -z'
  6	'-x, -y, z+.5'
  7	'-x+.5, y+.5, -z+.5'
  8	'x, y, z'
loop_
_atom_type_symbol
_atom_type_oxidation_number
Al3+	3
O2-	-2
Sc3+	3
loop_
_atom_site_label
_atom_site_type_symbol
_atom_site_symmetry_multiplicity
_atom_site_Wyckoff_symbol
_atom_site_fract_x
_atom_site_fract_y
_atom_site_fract_z
_atom_site_occupancy
_atom_site_attached_hydrogens
_atom_site_B_iso_or_equiv
Sc1 Sc3+ 4 c 0.9798(3) 0.0702(2) 0.25 1. 0 0.59(3) 
Al1 Al3+ 4 b 0 0.5 0 1. 0 0.54(3) 
O1 O2- 4 c 0.1210(9) 0.4556(8) 0.25 1. 0 0.59(8) 
O2 O2- 8 d 0.6907(6) 0.3057(6) 0.0609(4) 1. 0 0.62(6) 

#End of data_86933-ICSD


