data_202244-ICSD
#?2014 by Fachinformationszentrum Karlsruhe, and the U.S. Secretary of 
#Commerce on behalf of the United States.  All rights reserved.
_database_code_ICSD                202244
_audit_creation_date               1988/12/19
_chemical_name_systematic          'Calcium Nickel Silicate *'
_chemical_formula_structural       'Ca Ni Si2 O6'
_chemical_formula_sum              'Ca1 Ni1 O6 Si2'
_publ_section_title
;
Crystal structures of Ca Ni Si2 O6 and Ca Co Si2 O6 and some crystal-
chemical relations in C2/c clinopyroxenes
;
loop_
_citation_id
_citation_journal_abbrev
_citation_year
_citation_journal_volume
_citation_page_first
_citation_page_last
_citation_journal_id_ASTM
primary 'American Mineralogist' 1987 72 375 381 AMMIAY
_publ_author_name                  'Ghose, S.;Wan, C.;Okamura, F.P.'
_cell_length_a                     9.734(2)
_cell_length_b                     8.891(2)
_cell_length_c                     5.228(1)
_cell_angle_alpha                  90.
_cell_angle_beta                   105.87(2)
_cell_angle_gamma                  90.
_cell_volume                       435.21
_cell_formula_units_Z              4
_symmetry_space_group_name_H-M     'C 1 2/c 1'
_symmetry_Int_Tables_number        15
_refine_ls_R_factor_all            .047
loop_
_symmetry_equiv_pos_site_id
_symmetry_equiv_pos_as_xyz
  1	'x, -y, z+.5'
  2	'-x, -y, -z'
  3	'-x, y, -z+.5'
  4	'x, y, z'
  5	'x+.5, -y+.5, z+.5'
  6	'-x+.5, -y+.5, -z'
  7	'-x+.5, y+.5, -z+.5'
  8	'x+.5, y+.5, z'
loop_
_atom_type_symbol
_atom_type_oxidation_number
Ca2+	2
Ni2+	2
O2-	-2
Si4+	4
loop_
_atom_site_label
_atom_site_type_symbol
_atom_site_symmetry_multiplicity
_atom_site_Wyckoff_symbol
_atom_site_fract_x
_atom_site_fract_y
_atom_site_fract_z
_atom_site_occupancy
_atom_site_attached_hydrogens
Ni1 Ni2+ 4 e 0 0.90911(6) 0.25 1. 0 
Ca1 Ca2+ 4 e 0 0.29816(1) 0.25 1. 0 
Si1 Si4+ 8 f 0.28733(8) 0.09298(9) 0.22752(14) 1. 0 
O1 O2- 8 f 0.1153(2) 0.0861(2) 0.1414(4) 1. 0 
O2 O2- 8 f 0.3603(2) 0.2508(2) 0.3188(4) 1. 0 
O3 O2- 8 f 0.3514(2) 0.0191(2) -.0081(4) 1. 0 

#End of data_202244-ICSD


