data_280325-ICSD
#?2014 by Fachinformationszentrum Karlsruhe, and the U.S. Secretary of 
#Commerce on behalf of the United States.  All rights reserved.
_database_code_ICSD                280325
_audit_creation_date               2002/04/01
_chemical_name_systematic
;
Dicesium Potassium Hexacyanomanganate(III)
;
_chemical_formula_structural       'Cs2 K (Mn (C N)6)'
_chemical_formula_sum              'C6 Cs2 K1 Mn1 N6'
_publ_section_title
;
Cs2 K (Mn (C N)6) at 293, 85 and 10 K
;
loop_
_citation_id
_citation_journal_abbrev
_citation_year
_citation_journal_volume
_citation_page_first
_citation_page_last
_citation_journal_id_ASTM
primary 'Acta Crystallographica, Section C: Crystal Structure Communications'
 2000 56 735 737 ACSCEE
_publ_author_name
;
Figgis, B.N.;Sobolev, A.N.;Kucharski, E.S.;Broughton, V.
;
_cell_length_a                     11.084(2)
_cell_length_b                     8.213(1)
_cell_length_c                     7.617(1)
_cell_angle_alpha                  90.
_cell_angle_beta                   90.77(1)
_cell_angle_gamma                  90.
_cell_volume                       693.33
_cell_formula_units_Z              2
_symmetry_space_group_name_H-M     'P 1 21/n 1'
_symmetry_Int_Tables_number        14
_refine_ls_R_factor_all            .038
loop_
_symmetry_equiv_pos_site_id
_symmetry_equiv_pos_as_xyz
  1	'-x+.5, y+.5, -z+.5'
  2	'-x, -y, -z'
  3	'x+.5, -y+.5, z+.5'
  4	'x, y, z'
loop_
_atom_type_symbol
_atom_type_oxidation_number
C2+	2
Cs1+	1
K1+	1
Mn3+	3
N3-	-3
loop_
_atom_site_label
_atom_site_type_symbol
_atom_site_symmetry_multiplicity
_atom_site_Wyckoff_symbol
_atom_site_fract_x
_atom_site_fract_y
_atom_site_fract_z
_atom_site_occupancy
_atom_site_attached_hydrogens
Cs1 Cs1+ 4 e 0.251910(8) 0.42396(1) -.025550(12) 1. 0 
K1 K1+ 2 d 0 0.5 0.5 1. 0 
Mn1 Mn3+ 2 a 0 0 0 1. 0 
C1 C2+ 4 e 0.03440(11) 0.12972(14) -.21405(16) 1. 0 
N1 N3- 4 e 0.05668(14) 0.20427(16) -.33885(19) 1. 0 
C2 C2+ 4 e 0.04302(12) -.20430(14) -.12643(16) 1. 0 
N2 N3- 4 e 0.06954(15) -.32167(15) -.20088(19) 1. 0 
C3 C2+ 4 e 0.17029(11) 0.02527(15) 0.07806(17) 1. 0 
N3 N3- 4 e 0.26909(12) 0.04408(19) 0.1257(2) 1. 0 

loop_
_atom_site_aniso_label
_atom_site_aniso_type_symbol
_atom_site_aniso_U_11
_atom_site_aniso_U_22
_atom_site_aniso_U_33
_atom_site_aniso_U_12
_atom_site_aniso_U_13
_atom_site_aniso_U_23
Cs1 Cs1+ 0.02143(4) 0.01474(3) 0.01999(4) -.00067(2) 0.00096(3) 0.00118(2)
K1 K1+ 0.01399(11) 0.01182(10) 0.01348(10) -.00029(8) -.00024(8) 0.00033(8)
Mn1 Mn3+ 0.00971(7) 0.00861(6) 0.01065(7) 0.00034(5) 0.00041(5) 0.00042(5)
C1 C2+ 0.0169(4) 0.0126(3) 0.0149(4) 0.0010(3) 0.0018(3) 0.0023(3)
N1 N3- 0.0321(6) 0.0196(4) 0.0209(5) 0.0046(4) 0.0067(4) 0.0083(4)
C2 C2+ 0.0181(4) 0.0122(3) 0.0150(4) 0.0016(3) 0.0004(3) -.0012(3)
N2 N3- 0.0329(6) 0.0166(4) 0.0215(5) 0.0066(4) -.0024(4) -.0062(3)
C3 C2+ 0.0128(4) 0.0152(4) 0.0182(4) -.0006(3) 0.0001(3) 0.0022(3)
N3 N3- 0.0131(4) 0.0278(5) 0.0292(6) -.0013(4) -.0018(4) 0.0047(5)
#End of data_280325-ICSD


