data_2346-ICSD
#?2014 by Fachinformationszentrum Karlsruhe, and the U.S. Secretary of 
#Commerce on behalf of the United States.  All rights reserved.
_database_code_ICSD                2346
_audit_creation_date               1980/01/01
_audit_update_record               2012/08/01
_chemical_name_systematic
;
Disodium Potassium Cyclo-triphosphate
;
_chemical_formula_structural       'Na2 K (P3 O9)'
_chemical_formula_sum              'K1 Na2 O9 P3'
_publ_section_title
;
Structure cristalline du trimetaphosphate de sodiumpotassium: N A K 
P3 O9
;
loop_
_citation_id
_citation_journal_abbrev
_citation_year
_citation_journal_volume
_citation_page_first
_citation_page_last
_citation_journal_id_ASTM
primary 'Acta Crystallographica B (24,1968-38,1982)' 1974 30 2701 2704 ACBCAR
2
;
Comptes Rendus Hebdomadaires des Seances de l`Academie des Sciences, 
Serie C, Sciences Chimiques (1966-)
;
 1974 278 459 461 CHDCAQ
_publ_author_name
;
Tordjman, I.;Durif, A.;Cavero-Ghersi, C.
;
_cell_length_a                     6.886(2)
_cell_length_b                     9.494(3)
_cell_length_c                     6.797(2)
_cell_angle_alpha                  110.07(2)
_cell_angle_beta                   104.69(2)
_cell_angle_gamma                  86.68(2)
_cell_volume                       403.52
_cell_formula_units_Z              2
_symmetry_space_group_name_H-M     'P -1'
_symmetry_Int_Tables_number        2
_refine_ls_R_factor_all            .018
loop_
_symmetry_equiv_pos_site_id
_symmetry_equiv_pos_as_xyz
  1	'-x, -y, -z'
  2	'x, y, z'
loop_
_atom_type_symbol
_atom_type_oxidation_number
K1+	1
Na1+	1
O2-	-2
P5+	5
loop_
_atom_site_label
_atom_site_type_symbol
_atom_site_symmetry_multiplicity
_atom_site_Wyckoff_symbol
_atom_site_fract_x
_atom_site_fract_y
_atom_site_fract_z
_atom_site_occupancy
_atom_site_attached_hydrogens
K1 K1+ 2 i 0.03083(8) 0.83467(5) 0.15703(8) 1. 0 
Na1 Na1+ 2 i 0.42258(13) 0.83064(10) 0.76932(14) 1. 0 
Na2 Na1+ 2 i 0.72064(14) 0.49042(10) 0.71917(15) 1. 0 
P1 P5+ 2 i 0.24217(8) 0.47530(5) 0.75806(8) 1. 0 
P2 P5+ 2 i 0.11632(7) 0.21607(5) 0.37491(8) 1. 0 
P3 P5+ 2 i 0.45633(8) 0.19672(5) 0.71019(8) 1. 0 
O1 O2- 2 i 0.36536(22) 0.54832(15) 0.66739(23) 1. 0 
O2 O2- 2 i 0.14144(25) 0.56449(17) 0.92635(26) 1. 0 
O3 O2- 2 i -.07328(22) 0.12716(17) 0.26170(27) 1. 0 
O4 O2- 2 i 0.23606(22) 0.25584(16) 0.24713(23) 1. 0 
O5 O2- 2 i 0.50473(25) 0.10071(16) 0.84681(24) 1. 0 
O6 O2- 2 i 0.07068(22) 0.36402(15) 0.56268(24) 1. 0 
O7 O2- 2 i 0.37099(23) 0.35222(15) 0.84921(22) 1. 0 
O8 O2- 2 i 0.25338(22) 0.12726(14) 0.52337(23) 1. 0 
O9 O2- 2 i 0.60946(23) 0.23183(16) 0.61269(24) 1. 0 

#End of data_2346-ICSD


