data_189844-ICSD
#?2014 by Fachinformationszentrum Karlsruhe, and the U.S. Secretary of 
#Commerce on behalf of the United States.  All rights reserved.
_database_code_ICSD                189844
_audit_creation_date               2014/02/01
_chemical_name_systematic          'Magnesium Dibromide Hexahydrate'
_chemical_formula_structural       'Mg Br2 (H2 O)6'
_chemical_formula_sum              'H12 Br2 Mg1 O6'
_publ_section_title
;
Crystal structures of hydrates of simple inorganic salts. I. Water-
rich magnesium halide hydrates Mg Cl2 * 8(H2 O), Mg Cl2 * 12(H2 O), 
Mg Br2 * 6(H2 O), Mg Br2 * 9(H2 O), Mg I2 * 8(H2 O) and Mg I2 * 9(H2 
O)
;
loop_
_citation_id
_citation_journal_abbrev
_citation_year
_citation_journal_volume
_citation_journal_issue
_citation_page_first
_citation_page_last
_citation_journal_id_ASTM
primary 'Acta Crystallographica, Section C: Crystal Structure Communications'
 2013 69 11 1292 1300 ACSCEE
_publ_author_name
;
Hennings, Erik;Schmidt, Horst;Voigt, Wolfgang
;
_cell_length_a                     10.2299(16)
_cell_length_b                     7.2642(9)
_cell_length_c                     6.1964(9)
_cell_angle_alpha                  90
_cell_angle_beta                   93.025(12)
_cell_angle_gamma                  90
_cell_volume                       459.82
_cell_formula_units_Z              2
_symmetry_space_group_name_H-M     'C 1 2/m 1'
_symmetry_Int_Tables_number        12
_refine_ls_R_factor_all            .0377
loop_
_symmetry_equiv_pos_site_id
_symmetry_equiv_pos_as_xyz
  1	'-x, y, -z'
  2	'-x, -y, -z'
  3	'x, -y, z'
  4	'x, y, z'
  5	'-x+.5, y+.5, -z'
  6	'-x+.5, -y+.5, -z'
  7	'x+.5, -y+.5, z'
  8	'x+.5, y+.5, z'
loop_
_atom_type_symbol
_atom_type_oxidation_number
Br1-	-1
H1+	1
Mg2+	2
O2-	-2
loop_
_atom_site_label
_atom_site_type_symbol
_atom_site_symmetry_multiplicity
_atom_site_Wyckoff_symbol
_atom_site_fract_x
_atom_site_fract_y
_atom_site_fract_z
_atom_site_occupancy
_atom_site_attached_hydrogens
_atom_site_U_iso_or_equiv
Br1 Br1- 4 i 0.18235(3) 0.0000 0.38865(4) 1 0 0.0162(3) 
Mg1 Mg2+ 2 b 1.0000 0.5000 1.0000 1 0 0.0136(4) 
O1 O2- 4 i 0.8063(3) 0.5000 0.8951(5) 1 0 0.0280(7) 
O2 O2- 8 j 1.0432(3) 0.2975(4) 0.7832(4) 1 0 0.0327(7) 
H1 H1+ 4 i 0.771(10) 0.5000 0.769(7) 1 0 0.09(4) 
H2 H1+ 8 j 0.990(4) 0.214(5) 0.744(8) 1 0 0.030(11) 
H3 H1+ 8 j 1.096(4) 0.306(7) 0.684(6) 1 0 0.040(13) 
H4 H1+ 4 i 0.751(8) 0.5000 0.992(12) 1 0 0.05(2) 

loop_
_atom_site_aniso_label
_atom_site_aniso_type_symbol
_atom_site_aniso_U_11
_atom_site_aniso_U_22
_atom_site_aniso_U_33
_atom_site_aniso_U_12
_atom_site_aniso_U_13
_atom_site_aniso_U_23
Br1 Br1- 0.0118(4) 0.0195(4) 0.0173(4) 0.000 0.00174(19) 0.000
Mg1 Mg2+ 0.0097(9) 0.0177(9) 0.0134(8) 0.000 0.0011(6) 0.000
O1 O2- 0.0104(14) 0.057(2) 0.0170(14) 0.000 0.0004(10) 0.000
O2 O2- 0.0272(13) 0.0331(14) 0.0398(12) -0.0149(10) 0.0189(10) -0.0221(11)
#End of data_189844-ICSD


