data_1120-ICSD
#?2014 by Fachinformationszentrum Karlsruhe, and the U.S. Secretary of 
#Commerce on behalf of the United States.  All rights reserved.
_database_code_ICSD                1120
_audit_creation_date               1980/01/01
_audit_update_record               2010/08/01
_chemical_name_systematic          'Dipotassium Heptaoxohexazincate'
_chemical_formula_structural       'K2 (Zn6 O7)'
_chemical_formula_sum              'K2 O7 Zn6'
_publ_section_title
;
Koordinationszahl 3 bei Oxozincaten. Rb8 (O Zn O2 Zn O2 Zn O2 Zn O) 
und K2 (Zn6 O7)
;
loop_
_citation_id
_citation_journal_abbrev
_citation_year
_citation_journal_volume
_citation_page_first
_citation_page_last
_citation_journal_id_ASTM
primary 'Angewandte Chemie (German Edition)' 1977 89 498 499 ANCEAD
_publ_author_name                  'Wambach, K.R.;Hoppe, R.'
_cell_length_a                     10.912
_cell_length_b                     10.912
_cell_length_c                     3.325
_cell_angle_alpha                  90.
_cell_angle_beta                   90.
_cell_angle_gamma                  90.
_cell_volume                       395.91
_cell_formula_units_Z              2
_symmetry_space_group_name_H-M     'P 42 n m'
_symmetry_Int_Tables_number        102
_refine_ls_R_factor_all            .0849
loop_
_symmetry_equiv_pos_site_id
_symmetry_equiv_pos_as_xyz
  1	'-y+.5, x+.5, z+.5'
  2	'y+.5, -x+.5, z+.5'
  3	'-y, -x, z'
  4	'y, x, z'
  5	'-x+.5, y+.5, z+.5'
  6	'x+.5, -y+.5, z+.5'
  7	'-x, -y, z'
  8	'x, y, z'
loop_
_atom_type_symbol
_atom_type_oxidation_number
K1+	1
O2-	-2
Zn2+	2
loop_
_atom_site_label
_atom_site_type_symbol
_atom_site_symmetry_multiplicity
_atom_site_Wyckoff_symbol
_atom_site_fract_x
_atom_site_fract_y
_atom_site_fract_z
_atom_site_occupancy
_atom_site_attached_hydrogens
_atom_site_U_iso_or_equiv
Zn1 Zn2+ 8 d 0.3448(2) 0.0847(2) 0 1. 0 0 
Zn2 Zn2+ 4 c 0.1199(3) 0.1199(3) 0.4846(35) 1. 0 0 
K1 K1+ 4 c 0.3475(5) 0.3475(5) 0.4709(46) 1. 0 0 
O1 O2- 8 d 0.1869(11) 0.4922(12) -.0214(72) 1. 0 0.0074(25) 
O2 O2- 4 c 0.1952(14) 0.1952(14) 0.0322(92) 1. 0 0.0186(43) 
O3 O2- 2 a 0 0 0.6231(91) 1. 0 0.0327(76) 

loop_
_atom_site_aniso_label
_atom_site_aniso_type_symbol
_atom_site_aniso_U_11
_atom_site_aniso_U_22
_atom_site_aniso_U_33
_atom_site_aniso_U_12
_atom_site_aniso_U_13
_atom_site_aniso_U_23
Zn1 Zn2+ 0.0076(9) 0.0084(9) 0.0128(12) -.0004(7) -.0078(22) -.0043(21)
Zn2 Zn2+ 0.0318(13) 0.0318(13) 0.0232(29) -.0096(17) -.0104(32) -.0104(32)
K1 K1+ 0.0219(18) 0.0219(18) 0.0104(42) 0.0045(24) 0.0058(34) 0.0058(34)
#End of data_1120-ICSD


