data_103214-ICSD
#?2014 by Fachinformationszentrum Karlsruhe, and the U.S. Secretary of 
#Commerce on behalf of the United States.  All rights reserved.
_database_code_ICSD                103214
_audit_creation_date               2004/04/01
_chemical_name_systematic          'Dicalcium Cobalt Disilicate - Ht'
_chemical_formula_structural       'Ca2 Co (Si2 O7)'
_chemical_formula_sum              'Ca2 Co1 O7 Si2'
_chemical_name_mineral             'Akermanite (Co)'
_publ_section_title
;
The commensurately modulated structure of the lock-in phase of 
synthetic Co-akermanite, Ca2 Co Si2 O7
;
loop_
_citation_id
_citation_journal_abbrev
_citation_year
_citation_journal_volume
_citation_page_first
_citation_page_last
_citation_journal_id_ASTM
primary 'Zeitschrift fuer Kristallographie (1979-2010)' 2000 215 102 109 ZEKRDZ
_publ_author_name                  'Riester, M.;Boehm, H.;Petricek, V.'
_cell_length_a                     7.8258(4)
_cell_length_b                     7.8258(4)
_cell_length_c                     5.0148(5)
_cell_angle_alpha                  90.
_cell_angle_beta                   90.
_cell_angle_gamma                  90.
_cell_volume                       307.12
_cell_formula_units_Z              2
_symmetry_space_group_name_H-M     'P -4 21 m'
_symmetry_Int_Tables_number        113
_refine_ls_R_factor_all            .026
loop_
_symmetry_equiv_pos_site_id
_symmetry_equiv_pos_as_xyz
  1	'-y+.5, -x+.5, z'
  2	'y, -x, -z'
  3	'y+.5, x+.5, z'
  4	'-y, x, -z'
  5	'x+.5, -y+.5, -z'
  6	'-x, -y, z'
  7	'-x+.5, y+.5, -z'
  8	'x, y, z'
loop_
_atom_type_symbol
_atom_type_oxidation_number
Ca2+	2
Co2+	2
O2-	-2
Si4+	4
loop_
_atom_site_label
_atom_site_type_symbol
_atom_site_symmetry_multiplicity
_atom_site_Wyckoff_symbol
_atom_site_fract_x
_atom_site_fract_y
_atom_site_fract_z
_atom_site_occupancy
_atom_site_attached_hydrogens
Ca1 Ca2+ 4 e 0.3313(1) 0.1687 0.5052(3) 1. 0 
Co1 Co2+ 2 a 0 0 0 1. 0 
Si1 Si4+ 4 e 0.1395(1) 0.3605 0.9359(3) 1. 0 
O1 O2- 2 c 0.5 0 0.1789(1) 1. 0 
O2 O2- 4 e 0.1409(5) 0.3591 0.2521(8) 1. 0 
O3 O2- 8 f 0.0815(5) 0.1875(5) 0.7850(7) 1. 0 

loop_
_atom_site_aniso_label
_atom_site_aniso_type_symbol
_atom_site_aniso_U_11
_atom_site_aniso_U_22
_atom_site_aniso_U_33
_atom_site_aniso_U_12
_atom_site_aniso_U_13
_atom_site_aniso_U_23
Ca1 Ca2+ 0.0315(5) 0.0315 0.0181(7) 0.0038(5) -0.0015(17) 0.0015
Co1 Co2+ 0.0165(4) 0.0165 0.0178(6) 0 0 0
Si1 Si4+ 0.0156(6) 0.0156 0.0117(9) 0.0002(4) 0.0017(16) -0.0017
O1 O2- 0.044(3) 0.044 0.006(3) 0 0 0
O2 O2- 0.042(2) 0.042 0.008(2) -0.004(1) -0.0057(52) 0.0057
O3 O2- 0.054(3) 0.023(2) 0.022(2) 0.010(2) 0.0099(43) -0.002(2)
#End of data_103214-ICSD


