data_36110-ICSD
#?2014 by Fachinformationszentrum Karlsruhe, and the U.S. Secretary of 
#Commerce on behalf of the United States.  All rights reserved.
_database_code_ICSD                36110
_audit_creation_date               1980/01/01
_audit_update_record               1985/06/10
_chemical_name_systematic          'Sodium Dimercury Dioxide Iodide'
_chemical_formula_structural       'Hg2 O2 Na I'
_chemical_formula_sum              'Hg2 I1 Na1 O2'
_publ_section_title
;
The crystal structure of Hg2 O2 Na I studied by X-Ray and neutron 
diffraction methods
;
loop_
_citation_id
_citation_journal_abbrev
_citation_year
_citation_journal_volume
_citation_page_first
_citation_page_last
_citation_journal_id_ASTM
primary 'Acta Chemica Scandinavica (1-27,1973-42,1988)' 1960 14 2196 2215 ACSAA4
_publ_author_name                  'Aurivillius, K.'
_cell_length_a                     6.667
_cell_length_b                     6.667
_cell_length_c                     10.054
_cell_angle_alpha                  90.
_cell_angle_beta                   90.
_cell_angle_gamma                  120.
_cell_volume                       387.02
_cell_formula_units_Z              3
_symmetry_space_group_name_H-M     'P 62 2 2'
_symmetry_Int_Tables_number        180
_refine_ls_R_factor_all            .13
loop_
_symmetry_equiv_pos_site_id
_symmetry_equiv_pos_as_xyz
  1	'x, x-y, -z+.3333'
  2	'-x+y, y, -z'
  3	'-y, -x, -z+.6667'
  4	'-x, -x+y, -z+.3333'
  5	'x-y, -y, -z'
  6	'y, x, -z+.6667'
  7	'x-y, x, z+.3333'
  8	'y, -x+y, z+.6667'
  9	'-x, -y, z'
 10	'-x+y, -x, z+.3333'
 11	'-y, x-y, z+.6667'
 12	'x, y, z'
loop_
_atom_type_symbol
_atom_type_oxidation_number
Hg2+	2
I1-	-1
Na1+	1
O2-	-2
loop_
_atom_site_label
_atom_site_type_symbol
_atom_site_symmetry_multiplicity
_atom_site_Wyckoff_symbol
_atom_site_fract_x
_atom_site_fract_y
_atom_site_fract_z
_atom_site_occupancy
_atom_site_attached_hydrogens
Hg1 Hg2+ 6 f 0.5 0 0.333 1. 0 
I1 I1- 3 c 0.5 0 0 1. 0 
Na1 Na1+ 3 b 0 0 0.5 1. 0 
O1 O2- 6 i 0.15 0.3 0 1. 0 

#End of data_36110-ICSD


