data_250533-ICSD
#?2014 by Fachinformationszentrum Karlsruhe, and the U.S. Secretary of 
#Commerce on behalf of the United States.  All rights reserved.
_database_code_ICSD                250533
_audit_creation_date               2014/08/01
_chemical_name_systematic          'Tetralead Dizinc Decaborate'
_chemical_formula_structural       'Pb4 Zn2 B10 O21'
_chemical_formula_sum              'B10 O21 Pb4 Zn2'
_publ_section_title
;
Pb4 Zn2 B10 O21: a congruently melting lead zinc borate with a novel 
[B10 O24] anionic group and an interesting [Pb4 O12].infin. chain
;
loop_
_citation_id
_citation_journal_abbrev
_citation_year
_citation_journal_volume
_citation_journal_issue
_citation_page_first
_citation_page_last
_citation_journal_id_ASTM
primary 'New Journal of Chemistry' 2014 38 1 285 291 NJCHE5
_publ_author_name
;
Yu, Hongwei;Wu, Hongping;Pan, Shilie;Zhang, Bingbing;Dong, 
Lingyun;Han, Shujuan;Yang, Zhihua
;
_cell_length_a                     14.6062(15)
_cell_length_b                     17.4899(16)
_cell_length_c                     13.2962(15)
_cell_angle_alpha                  90.00
_cell_angle_beta                   90.00
_cell_angle_gamma                  90.00
_cell_volume                       3396.66
_cell_formula_units_Z              8
_symmetry_space_group_name_H-M     'P b c n'
_symmetry_Int_Tables_number        60
_refine_ls_R_factor_all            .0289
loop_
_symmetry_equiv_pos_site_id
_symmetry_equiv_pos_as_xyz
  1	'x, -y, z+.5'
  2	'-x+.5, y+.5, z'
  3	'x+.5, y+.5, -z+.5'
  4	'-x, -y, -z'
  5	'-x, y, -z+.5'
  6	'x+.5, -y+.5, -z'
  7	'-x+.5, -y+.5, z+.5'
  8	'x, y, z'
loop_
_atom_type_symbol
_atom_type_oxidation_number
B3+	3
O2-	-2
Pb2+	2
Zn2+	2
loop_
_atom_site_label
_atom_site_type_symbol
_atom_site_symmetry_multiplicity
_atom_site_Wyckoff_symbol
_atom_site_fract_x
_atom_site_fract_y
_atom_site_fract_z
_atom_site_occupancy
_atom_site_attached_hydrogens
_atom_site_U_iso_or_equiv
Pb1 Pb2+ 8 d -0.07487(2) 0.938441(18) 0.41801(3) 1 0 0.01289(10) 
Pb2 Pb2+ 8 d -0.07780(2) 0.69045(2) 0.42259(3) 1 0 0.01416(9) 
Pb3 Pb2+ 8 d 0.07011(2) 0.83242(2) 0.61848(3) 1 0 0.01399(10) 
Pb4 Pb2+ 8 d 0.06968(2) 0.58392(2) 0.59992(3) 1 0 0.01468(10) 
Zn1 Zn2+ 8 d 0.24980(6) 0.44862(6) 0.75067(8) 1 0 0.0074(2) 
Zn2 Zn2+ 8 d 0.25179(6) 0.69931(5) 0.75100(8) 1 0 0.0068(2) 
B1 B3+ 8 d 0.0761(7) 0.5462(5) 0.3636(8) 1 0 0.011(2) 
B2 B3+ 8 d 0.1663(7) 0.5792(5) 0.8620(7) 1 0 0.0059(17) 
B3 B3+ 8 d -0.0640(7) 0.9492(5) 0.6716(8) 1 0 0.0084(19) 
B4 B3+ 8 d 0.1629(7) 0.6733(6) 0.3569(8) 1 0 0.0096(17) 
B5 B3+ 8 d 0.3390(7) 0.6756(5) 0.3555(7) 1 0 0.0083(18) 
B6 B3+ 8 d -0.0623(7) 0.6994(5) 0.6736(8) 1 0 0.0094(19) 
B7 B3+ 8 d 0.2533(7) 0.6820(6) 0.5177(8) 1 0 0.013(2) 
B8 B3+ 8 d 0.0770(7) 0.7983(5) 0.3593(8) 1 0 0.0114(19) 
B9 B3+ 8 d 0.3420(7) 0.5709(5) 0.8528(7) 1 0 0.0058(18) 
B10 B3+ 8 d 0.2620(7) 0.4281(6) 0.5169(8) 1 0 0.012(2) 
O1 O2- 8 d 0.2522(4) 0.8018(3) 0.8099(5) 1 0 0.0077(12) 
O2 O2- 8 d 0.2498(4) 0.5505(3) 0.8102(5) 1 0 0.0091(12) 
O3 O2- 8 d -0.0126(4) 0.9408(3) 0.5763(5) 1 0 0.0093(12) 
O4 O2- 8 d -0.0155(4) 0.6882(3) 0.5754(5) 1 0 0.0108(11) 
O5 O2- 8 d 0.1414(4) 0.4051(3) 0.8198(5) 1 0 0.0104(12) 
O6 O2- 8 d 0.3413(4) 0.5625(3) 0.9607(5) 1 0 0.0130(12) 
O7 O2- 8 d 0.1481(4) 0.6556(3) 0.8224(5) 1 0 0.0114(11) 
O8 O2- 8 d 0.3552(4) 0.6536(3) 0.8252(5) 1 0 0.0111(11) 
O9 O2- 8 d -0.0851(4) 0.7803(3) 0.6884(4) 1 0 0.0088(11) 
O10 O2- 8 d 0.3346(4) 0.6884(3) 0.4646(5) 1 0 0.0141(13) 
O11 O2- 4 c 0.0000 0.6700(5) 0.7500 1 0 0.0119(16) 
O12 O2- 8 d 0.0115(4) 0.5710(3) 0.4254(5) 1 0 0.0151(12) 
O13 O2- 4 c 0.0000 0.9158(4) 0.7500 1 0 0.0098(15) 
O14 O2- 8 d 0.1805(4) 0.4189(4) 0.4721(5) 1 0 0.0139(13) 
O15 O2- 8 d 0.0853(4) 0.7218(3) 0.3332(5) 1 0 0.0107(12) 
O16 O2- 8 d -0.0862(4) 0.5309(3) 0.6602(5) 1 0 0.0102(12) 
O17 O2- 8 d 0.0056(4) 0.8202(3) 0.4153(5) 1 0 0.0146(12) 
O18 O2- 8 d 0.3508(4) 0.4046(3) 0.8286(4) 1 0 0.0090(11) 
O19 O2- 8 d -0.0848(4) 1.0289(3) 0.6925(5) 1 0 0.0090(12) 
O20 O2- 8 d 0.1725(4) 0.6692(4) 0.4672(5) 1 0 0.0174(12) 
O21 O2- 8 d 0.2741(5) 0.4261(4) 0.6169(5) 1 0 0.0216(14) 
O22 O2- 8 d 0.2521(4) 0.6891(5) 0.6152(6) 1 0 0.0299(16) 

loop_
_atom_site_aniso_label
_atom_site_aniso_type_symbol
_atom_site_aniso_U_11
_atom_site_aniso_U_22
_atom_site_aniso_U_33
_atom_site_aniso_U_12
_atom_site_aniso_U_13
_atom_site_aniso_U_23
Pb1 Pb2+ 0.00950(18) 0.01448(18) 0.01470(19) 0.00030(13) -0.00202(15) 
0.00196(12)
Pb2 Pb2+ 0.00914(18) 0.01989(19) 0.01345(19) -0.00030(13) -0.00103(14) 
0.00313(13)
Pb3 Pb2+ 0.00832(17) 0.01319(17) 0.0205(2) 0.00220(13) 0.00098(14) 
0.00094(13)
Pb4 Pb2+ 0.00888(18) 0.01611(18) 0.01904(19) 0.00283(14) 0.00004(14) 
0.00274(13)
Zn1 Zn2+ 0.0061(6) 0.0093(5) 0.0068(5) -0.0001(3) 0.0006(4) -0.0006(4)
Zn2 Zn2+ 0.0050(6) 0.0081(5) 0.0074(5) 0.0003(3) -0.0007(3) -0.0008(4)
B1 B3+ 0.006(5) 0.015(4) 0.014(5) -0.005(4) -0.002(4) 0.003(4)
B2 B3+ 0.0058(19) 0.0061(19) 0.0059(19) -0.0004(10) 0.0004(10) 0.0005(10)
B3 B3+ 0.008(2) 0.009(2) 0.009(2) 0.0002(10) 0.0000(10) -0.0001(10)
B4 B3+ 0.007(4) 0.012(4) 0.010(4) 0.000(3) -0.001(3) -0.002(3)
B5 B3+ 0.0081(19) 0.0085(19) 0.0081(19) 0.0000(10) -0.0005(10) 0.0002(10)
B6 B3+ 0.009(2) 0.010(2) 0.010(2) 0.0000(10) 0.0002(10) -0.0004(10)
B7 B3+ 0.013(4) 0.014(4) 0.012(4) -0.001(3) -0.004(3) 0.003(4)
B8 B3+ 0.013(5) 0.009(4) 0.013(5) -0.002(4) 0.000(4) 0.004(3)
B9 B3+ 0.0055(19) 0.0059(19) 0.0060(19) 0.0001(10) -0.0002(10) 0.0003(10)
B10 B3+ 0.008(5) 0.018(6) 0.009(5) 0.001(4) -0.001(4) -0.002(4)
O1 O2- 0.006(3) 0.005(3) 0.012(3) -0.0029(19) 0.001(2) -0.003(2)
O2 O2- 0.005(3) 0.010(2) 0.012(3) -0.0016(19) 0.002(2) -0.001(2)
O3 O2- 0.007(3) 0.009(2) 0.012(3) 0.003(2) 0.001(2) 0.003(2)
O4 O2- 0.010(2) 0.010(2) 0.012(3) 0.005(2) 0.004(2) 0.001(2)
O5 O2- 0.0101(14) 0.0097(14) 0.0113(14) -0.0005(9) 0.0009(9) 0.0000(9)
O6 O2- 0.006(3) 0.019(3) 0.013(3) 0.001(2) 0.000(2) 0.004(2)
O7 O2- 0.004(2) 0.011(2) 0.019(3) -0.001(2) 0.002(2) -0.001(2)
O8 O2- 0.007(3) 0.010(2) 0.015(3) 0.000(2) -0.002(2) -0.002(2)
O9 O2- 0.010(3) 0.005(2) 0.012(3) 0.001(2) 0.001(2) -0.001(2)
O10 O2- 0.012(3) 0.022(3) 0.008(3) -0.001(2) 0.003(2) -0.006(2)
O11 O2- 0.009(3) 0.010(3) 0.016(3) 0.000 -0.005(3) 0.000
O12 O2- 0.012(3) 0.015(3) 0.018(3) 0.001(2) 0.006(2) -0.001(2)
O13 O2- 0.011(4) 0.005(3) 0.013(4) 0.000 -0.002(3) 0.000
O14 O2- 0.006(3) 0.025(3) 0.010(3) -0.003(3) 0.001(2) 0.000(3)
O15 O2- 0.0095(14) 0.0109(14) 0.0117(14) 0.0005(9) 0.0006(9) 0.0001(9)
O16 O2- 0.0094(14) 0.0100(14) 0.0112(14) 0.0002(9) 0.0003(9) -0.0001(9)
O17 O2- 0.010(3) 0.011(3) 0.022(3) 0.002(2) 0.007(2) 0.002(2)
O18 O2- 0.0085(14) 0.0088(14) 0.0097(14) -0.0011(9) 0.0003(9) 0.0004(9)
O19 O2- 0.006(3) 0.007(3) 0.014(3) -0.001(2) -0.003(2) 0.001(2)
O20 O2- 0.015(3) 0.023(3) 0.014(3) -0.006(2) 0.006(2) -0.001(2)
O21 O2- 0.018(3) 0.035(3) 0.012(3) 0.002(3) -0.001(2) -0.002(3)
O22 O2- 0.024(3) 0.047(3) 0.019(3) -0.001(3) -0.001(2) -0.004(3)
#End of data_250533-ICSD


