data_27164-ICSD
#?2014 by Fachinformationszentrum Karlsruhe, and the U.S. Secretary of 
#Commerce on behalf of the United States.  All rights reserved.
_database_code_ICSD                27164
_audit_creation_date               1980/01/01
_audit_update_record               2006/04/01
_chemical_name_systematic
;
Sodium Molybdenum Dioxide Phosphate(V)
;
_chemical_formula_structural       'Na (Mo O2) (P O4)'
_chemical_formula_sum              'Mo1 Na1 O6 P1'
_publ_section_title
;
The crystal structure of Na W O2 P O4 and Na Mo O2 P O4
;
loop_
_citation_id
_citation_journal_abbrev
_citation_year
_citation_journal_volume
_citation_page_first
_citation_page_last
_citation_journal_id_ASTM
primary 'Arkiv foer Kemi' 1962 18 553 575 ARKEAD
_publ_author_name                  'Kierkegaard, P.'
_cell_length_a                     12.08(1)
_cell_length_b                     11.96(1)
_cell_length_c                     6.359(5)
_cell_angle_alpha                  90.
_cell_angle_beta                   91.19(3)
_cell_angle_gamma                  90.
_cell_volume                       918.53
_cell_formula_units_Z              8
_symmetry_space_group_name_H-M     'P 1 21/n 1'
_symmetry_Int_Tables_number        14
_refine_ls_R_factor_all            .14
loop_
_symmetry_equiv_pos_site_id
_symmetry_equiv_pos_as_xyz
  1	'-x+.5, y+.5, -z+.5'
  2	'-x, -y, -z'
  3	'x+.5, -y+.5, z+.5'
  4	'x, y, z'
loop_
_atom_type_symbol
_atom_type_oxidation_number
Mo6+	6
Na1+	1
O2-	-2
P5+	5
loop_
_atom_site_label
_atom_site_type_symbol
_atom_site_symmetry_multiplicity
_atom_site_Wyckoff_symbol
_atom_site_fract_x
_atom_site_fract_y
_atom_site_fract_z
_atom_site_occupancy
_atom_site_attached_hydrogens
Mo1 Mo6+ 4 e 0.133(3) 0.103(3) 0.250(5) 1. 0 
Mo2 Mo6+ 4 e 0.110(3) 0.397(3) 0.750(5) 1. 0 
P1 P5+ 4 e 0.06(1) 0.109(10) 0.75(1) 1. 0 
P2 P5+ 4 e 0.122(10) 0.458(10) 0.25(1) 1. 0 
Na1 Na1+ 4 e 0.395(10) 0.205(10) 0.985(10) 1. 0 
Na2 Na1+ 4 e 0.35(1) 0.34(1) 0.435(10) 1. 0 
O1 O2- 4 e 0.64(1) 0.405(10) 0.05(1) 1. 0 
O2 O2- 4 e 0.64(1) 0.405(10) 0.44(1) 1. 0 
O3 O2- 4 e 0.09(1) 0.39(1) 0.055(10) 1. 0 
O4 O2- 4 e 0.09(1) 0.39(1) 0.45(1) 1. 0 
O5 O2- 4 e 0.47(1) 0.475(10) 0.25(1) 1. 0 
O6 O2- 4 e 0.03(1) 0.235(10) 0.75(1) 1. 0 
O7 O2- 4 e 0.25(1) 0.48(1) 0.25(1) 1. 0 
O8 O2- 4 e 0.44(1) 0.07(1) 0.25(1) 1. 0 
O9 O2- 4 e 0.01(1) 0.185(10) 0.25(1) 1. 0 
O10 O2- 4 e 0.235(10) 0.21(1) 0.25(1) 1. 0 
O11 O2- 4 e 0.34(1) 0.045(10) 0.75(1) 1. 0 
O12 O2- 4 e 0.245(10) 0.305(10) 0.75(1) 1. 0 

#End of data_27164-ICSD


