data_41659-ICSD
#?2014 by Fachinformationszentrum Karlsruhe, and the U.S. Secretary of 
#Commerce on behalf of the United States.  All rights reserved.
_database_code_ICSD                41659
_audit_creation_date               1999/11/30
_audit_update_record               2007/04/01
_chemical_name_systematic          'Magnesium Silicate'
_chemical_formula_structural       'Mg (Si O3)'
_chemical_formula_sum              'Mg1 O3 Si1'
_chemical_name_mineral             Perovskite-(Mg,Si)
_publ_section_title
;
Contribution to the crystal chemistry of orthorhombic perovskites: Mg 
Si O3 and Na Mg F3
;
loop_
_citation_id
_citation_journal_abbrev
_citation_year
_citation_journal_volume
_citation_page_first
_citation_page_last
_citation_journal_id_ASTM
primary 'Physics and Chemistry of Minerals' 1979 4 299 305 PCMIDU
_publ_author_name
;
O'Keeffe, M.;Hyde, B.G.;Bovin, J.O.
;
_cell_length_a                     4.933
_cell_length_b                     6.902
_cell_length_c                     4.78
_cell_angle_alpha                  90.
_cell_angle_beta                   90.
_cell_angle_gamma                  90.
_cell_volume                       162.75
_cell_formula_units_Z              4
_symmetry_space_group_name_H-M     'P n m a'
_symmetry_Int_Tables_number        62
loop_
_symmetry_equiv_pos_site_id
_symmetry_equiv_pos_as_xyz
  1	'x+.5, y, -z+.5'
  2	'x, -y+.5, z'
  3	'-x+.5, y+.5, z+.5'
  4	'-x, -y, -z'
  5	'-x+.5, -y, z+.5'
  6	'-x, y+.5, -z'
  7	'x+.5, -y+.5, -z+.5'
  8	'x, y, z'
loop_
_atom_type_symbol
_atom_type_oxidation_number
Mg2+	2
O2-	-2
Si4+	4
loop_
_atom_site_label
_atom_site_type_symbol
_atom_site_symmetry_multiplicity
_atom_site_Wyckoff_symbol
_atom_site_fract_x
_atom_site_fract_y
_atom_site_fract_z
_atom_site_occupancy
_atom_site_attached_hydrogens
Si1 Si4+ 4 b 0 0 0.5 1. 0 
Mg1 Mg2+ 4 c 0.563 0.25 0.474 1. 0 
O1 O2- 4 c 0.983 0.25 0.596 1. 0 
O2 O2- 8 d 0.205 0.952 0.798 1. 0 

#End of data_41659-ICSD


