data_9138-ICSD
#?2014 by Fachinformationszentrum Karlsruhe, and the U.S. Secretary of 
#Commerce on behalf of the United States.  All rights reserved.
_database_code_ICSD                9138
_audit_creation_date               1980/01/01
_audit_update_record               2012/02/01
_chemical_name_systematic          'Lithium Hydroxide Hydrate'
_chemical_formula_structural       'Li (O H) (H2 O)'
_chemical_formula_sum              'H3 Li1 O2'
_publ_section_title
;
Refinement of the crystal structure of lithium hydroxide monohydrate
;
loop_
_citation_id
_citation_journal_abbrev
_citation_year
_citation_journal_volume
_citation_page_first
_citation_page_last
_citation_journal_id_ASTM
primary 'Acta Crystallographica B (24,1968-38,1982)' 1971 27 1682 1683 ACBCAR
2
;
Bulletin de la Societe Francaise de Mineralogie et de 
Cristallographie (72,1949-100,1977)
;
 1957 80 166 166 BUFCAE
_publ_author_name                  'Alcock, N.W.'
_cell_length_a                     7.37
_cell_length_b                     8.26
_cell_length_c                     3.19
_cell_angle_alpha                  90.
_cell_angle_beta                   110.3
_cell_angle_gamma                  90.
_cell_volume                       182.13
_cell_formula_units_Z              4
_symmetry_space_group_name_H-M     'C 1 2/m 1'
_symmetry_Int_Tables_number        12
_refine_ls_R_factor_all            .065
loop_
_symmetry_equiv_pos_site_id
_symmetry_equiv_pos_as_xyz
  1	'-x, y, -z'
  2	'-x, -y, -z'
  3	'x, -y, z'
  4	'x, y, z'
  5	'-x+.5, y+.5, -z'
  6	'-x+.5, -y+.5, -z'
  7	'x+.5, -y+.5, z'
  8	'x+.5, y+.5, z'
loop_
_atom_type_symbol
_atom_type_oxidation_number
H1+	1
Li1+	1
O2-	-2
loop_
_atom_site_label
_atom_site_type_symbol
_atom_site_symmetry_multiplicity
_atom_site_Wyckoff_symbol
_atom_site_fract_x
_atom_site_fract_y
_atom_site_fract_z
_atom_site_occupancy
_atom_site_attached_hydrogens
_atom_site_B_iso_or_equiv
Li1 Li1+ 4 h 0 0.3474(11) 0.5 1. 0 0 
O1 O2- 4 i 0.2857(5) 0 0.3952(12) 1. 0 0 
O2 O2- 4 g 0 0.2066(4) 0 1. 0 0 
H1 H1+ 4 i 0.237(21) 0 0.631(61) 1. 0 12.3 
H2 H1+ 8 j 0.107(12) 0.118(10) 0.004(38) 1. 0 14. 

#End of data_9138-ICSD


