data_37137-ICSD
#?2014 by Fachinformationszentrum Karlsruhe, and the U.S. Secretary of 
#Commerce on behalf of the United States.  All rights reserved.
_database_code_ICSD                37137
_audit_creation_date               1983/12/31
_audit_update_record               2008/02/01
_chemical_name_systematic
;
Nickel Zinc Cyclo-tetraphosphate(V)
;
_chemical_formula_structural       'Ni Zn (P4 O12)'
_chemical_formula_sum              'Ni1 O12 P4 Zn1'
_publ_section_title
;
Neutron  diffraction studies of Ni Co P4 O12 and Ni Zn P4 O12
;
loop_
_citation_id
_citation_journal_abbrev
_citation_year
_citation_journal_volume
_citation_page_first
_citation_page_last
_citation_journal_id_ASTM
primary 'Materials Research Bulletin' 1983 18 765 773 MRBUAC
_publ_author_name                  'Nord, A.G.'
_cell_length_a                     11.689(4)
_cell_length_b                     8.277(3)
_cell_length_c                     9.870(3)
_cell_angle_alpha                  90.
_cell_angle_beta                   118.55(3)
_cell_angle_gamma                  90.
_cell_volume                       838.8
_cell_formula_units_Z              4
_symmetry_space_group_name_H-M     'C 1 2/c 1'
_symmetry_Int_Tables_number        15
loop_
_symmetry_equiv_pos_site_id
_symmetry_equiv_pos_as_xyz
  1	'x, -y, z+.5'
  2	'-x, -y, -z'
  3	'-x, y, -z+.5'
  4	'x, y, z'
  5	'x+.5, -y+.5, z+.5'
  6	'-x+.5, -y+.5, -z'
  7	'-x+.5, y+.5, -z+.5'
  8	'x+.5, y+.5, z'
loop_
_atom_type_symbol
_atom_type_oxidation_number
Ni2+	2
O2-	-2
P5+	5
Zn2+	2
loop_
_atom_site_label
_atom_site_type_symbol
_atom_site_symmetry_multiplicity
_atom_site_Wyckoff_symbol
_atom_site_fract_x
_atom_site_fract_y
_atom_site_fract_z
_atom_site_occupancy
_atom_site_attached_hydrogens
_atom_site_B_iso_or_equiv
Ni1 Ni2+ 4 d 0.25 0.25 0.5 1. 0 0.5 
Zn1 Zn2+ 4 e 0 0.054(2) 0.25 1. 0 0.5 
P1 P5+ 8 f 0.188(2) 0.488(1) 0.191(2) 1. 0 0.2 
P2 P5+ 8 f 0.010(1) 0.264(2) -.013(2) 1. 0 0.2 
O1 O2- 8 f 0.070(1) 0.605(2) 0.150(2) 1. 0 -.3 
O2 O2- 8 f 0.140(1) 0.359(2) 0.064(2) 1. 0 -.3 
O3 O2- 8 f 0.232(1) 0.433(2) 0.348(2) 1. 0 -.3 
O4 O2- 8 f 0.297(1) 0.576(2) 0.180(2) 1. 0 -.3 
O5 O2- 8 f -.047(2) 0.255(2) 0.087(2) 1. 0 -.3 
O6 O2- 8 f 0.028(1) 0.124(2) -.098(2) 1. 0 -.3 

#End of data_37137-ICSD


