data_73123-ICSD
#?2014 by Fachinformationszentrum Karlsruhe, and the U.S. Secretary of 
#Commerce on behalf of the United States.  All rights reserved.
_database_code_ICSD                73123
_audit_creation_date               1994/06/30
_chemical_name_systematic          'Silver Tetraoxobismuthate(III)'
_chemical_formula_structural       'Ag5 (Bi O4)'
_chemical_formula_sum              'Ag5 Bi1 O4'
_publ_section_title
;
Ag3BiO3 und Ag5BiO4, die ersten Silberoxobismutate(III)
;
loop_
_citation_id
_citation_journal_abbrev
_citation_year
_citation_journal_volume
_citation_page_first
_citation_page_last
_citation_journal_id_ASTM
primary 'Zeitschrift fuer Anorganische und Allgemeine Chemie (1950) (DE)'
 1993 619 1446 1454 ZAACAB
_publ_author_name                  'Bortz, M.;Jansen, M.'
_cell_length_a                     5.855(1)
_cell_length_b                     8.984(1)
_cell_length_c                     12.457(1)
_cell_angle_alpha                  90.
_cell_angle_beta                   91.49(1)
_cell_angle_gamma                  90.
_cell_volume                       655.03
_cell_formula_units_Z              4
_symmetry_space_group_name_H-M     'P 1 21/n 1'
_symmetry_Int_Tables_number        14
_refine_ls_R_factor_all            .038
loop_
_symmetry_equiv_pos_site_id
_symmetry_equiv_pos_as_xyz
  1	'-x+.5, y+.5, -z+.5'
  2	'-x, -y, -z'
  3	'x+.5, -y+.5, z+.5'
  4	'x, y, z'
loop_
_atom_type_symbol
_atom_type_oxidation_number
Ag1+	1
Bi3+	3
O2-	-2
loop_
_atom_site_label
_atom_site_type_symbol
_atom_site_symmetry_multiplicity
_atom_site_Wyckoff_symbol
_atom_site_fract_x
_atom_site_fract_y
_atom_site_fract_z
_atom_site_occupancy
_atom_site_attached_hydrogens
Bi1 Bi3+ 4 e 0.03493(5) 0.12180(3) 0.12338(2) 1. 0 
Ag1 Ag1+ 4 e 0.75991(11) 0.23011(7) 0.37625(5) 1. 0 
Ag2 Ag1+ 2 d 0 0.5 0.5 1. 0 
Ag3 Ag1+ 4 e 0.03412(12) 0.50633(7) 0.74424(5) 1. 0 
Ag4 Ag1+ 4 e 0.25167(11) 0.22998(7) 0.37694(5) 1. 0 
Ag5 Ag1+ 2 c 0 0.5 0 1. 0 
Ag6 Ag1+ 4 e 0.02332(15) 0.13929(10) 0.63938(8) 1. 0 
O1 O2- 4 e 0.17112(96) 0.36201(62) 0.61958(44) 1. 0 
O2 O2- 4 e 0.5123(11) 0.3628(7) 0.43921(48) 1. 0 
O3 O2- 4 e 0.5009(11) 0.40898(66) 0.80726(49) 1. 0 
O4 O2- 4 e 0.5906(13) 0.14368(69) 0.62976(50) 1. 0 

loop_
_atom_site_aniso_label
_atom_site_aniso_type_symbol
_atom_site_aniso_U_11
_atom_site_aniso_U_22
_atom_site_aniso_U_33
_atom_site_aniso_U_12
_atom_site_aniso_U_13
_atom_site_aniso_U_23
Bi1 Bi3+ 0.0070(1) 0.0096(2) 0.0066(2) 0.0002(1) -.0006(1) -.0014(1)
Ag1 Ag1+ 0.0118(3) 0.0151(3) 0.0170(3) -.0016(2) 0.0038(2) -.0038(2)
Ag2 Ag1+ 0.0138(4) 0.0227(5) 0.0131(4) 0.0020(3) -.0041(3) 0.0065(3)
Ag3 Ag1+ 0.0179(3) 0.0158(3) 0.0121(3) 0.0030(2) 0.0009(2) -.0014(2)
Ag4 Ag1+ 0.0117(3) 0.0168(3) 0.0179(3) 0.0003(2) -.0041(2) -.0033(2)
Ag5 Ag1+ 0.0268(5) 0.0119(4) 0.0128(4) 0.0000(3) 0.0002(3) -.0019(3)
Ag6 Ag1+ 0.0247(4) 0.0159(4) 0.0446(5) -.0057(3) -.0011(3) 0.0083(3)
O1 O2- 0.0081(22) 0.0125(25) 0.0098(23) -.0003(19) -.0012(18) 0.0041(20)
O2 O2- 0.0151(26) 0.0172(28) 0.0101(24) 0.0043(22) -.001(2) -.0040(22)
O3 O2- 0.0140(25) 0.0125(25) 0.0116(25) 0.0001(20) -.0003(20) 0.0008(20)
O4 O2- 0.0277(34) 0.0120(27) 0.0103(25) 0.0087(24) 0.0020(22) 0.0014(22)
#End of data_73123-ICSD


