data_80909-ICSD
#?2014 by Fachinformationszentrum Karlsruhe, and the U.S. Secretary of 
#Commerce on behalf of the United States.  All rights reserved.
_database_code_ICSD                80909
_audit_creation_date               1997/05/13
_chemical_name_systematic          'Cesium Hexafluoroalumopalladate'
_chemical_formula_structural       'Cs (Pd Al F6)'
_chemical_formula_sum              'Al1 Cs1 F6 Pd1'
_publ_section_title
;
Le pyrochlore ordonne a base de palladium(II) : Cs Pd Al F6
;
loop_
_citation_id
_citation_journal_abbrev
_citation_year
_citation_journal_volume
_citation_page_first
_citation_page_last
_citation_journal_id_ASTM
primary
;
Comptes Rendus Hebdomadaires des Seances de l`Academie des Sciences, 
Ser. II (1994-)
;
 1995 321 507 513 CMCAEK
_publ_author_name
;
Ruchaud, N.;Grannec, J.;Tressaud, A.;Gravereau, P.
;
_cell_length_a                     7.523(1)
_cell_length_b                     7.161(1)
_cell_length_c                     10.258(1)
_cell_angle_alpha                  90.
_cell_angle_beta                   90.
_cell_angle_gamma                  90.
_cell_volume                       552.62
_cell_formula_units_Z              4
_symmetry_space_group_name_H-M     'P n m a'
_symmetry_Int_Tables_number        62
_refine_ls_R_factor_all            .067
loop_
_symmetry_equiv_pos_site_id
_symmetry_equiv_pos_as_xyz
  1	'x+.5, y, -z+.5'
  2	'x, -y+.5, z'
  3	'-x+.5, y+.5, z+.5'
  4	'-x, -y, -z'
  5	'-x+.5, -y, z+.5'
  6	'-x, y+.5, -z'
  7	'x+.5, -y+.5, -z+.5'
  8	'x, y, z'
loop_
_atom_type_symbol
_atom_type_oxidation_number
Al3+	3
Cs1+	1
F1-	-1
Pd2+	2
loop_
_atom_site_label
_atom_site_type_symbol
_atom_site_symmetry_multiplicity
_atom_site_Wyckoff_symbol
_atom_site_fract_x
_atom_site_fract_y
_atom_site_fract_z
_atom_site_occupancy
_atom_site_attached_hydrogens
_atom_site_B_iso_or_equiv
Cs1 Cs1+ 4 c 0.4993(7) 0.25 0.1385(1) 1. 0 1.86(4) 
Pd1 Pd2+ 4 c 0.2522(8) 0.25 0.7520(8) 1. 0 0.89(4) 
Al1 Al3+ 4 a 0 0 0 1. 0 0.39(4) 
F1 F1- 4 c 0.0145(33) 0.25 0.6521(8) 1. 0 1.26(12) 
F2 F1- 4 c 0.0260(29) 0.25 0.0249(8) 1. 0 1.26(12) 
F3 F1- 8 d 0.3501(17) 0.0165(22) 0.6233(17) 1. 0 1.26(12) 
F4 F1- 8 d 0.1835(17) 0.0210(22) 0.8825(17) 1. 0 1.26(12) 

#End of data_80909-ICSD


