data_36043-ICSD
#?2014 by Fachinformationszentrum Karlsruhe, and the U.S. Secretary of 
#Commerce on behalf of the United States.  All rights reserved.
_database_code_ICSD                36043
_audit_creation_date               1983/12/31
_chemical_name_systematic          'Potassium Dihydrogen Diphosphate'
_chemical_formula_structural       'K2 H2 P2 O7'
_chemical_formula_sum              'H2 K2 O7 P2'
_publ_section_title
;
Structure du Dihydrogendiphosphate de Potassium Anhydre K2 H2 P2 O7
;
loop_
_citation_id
_citation_journal_abbrev
_citation_year
_citation_journal_volume
_citation_page_first
_citation_page_last
_citation_journal_id_ASTM
primary 'Acta Crystallographica, Section C: Crystal Structure Communications'
 1983 39 6 8 ACSCEE
_publ_author_name
;
Larbot, A.;Durand, J.;Norbert, A.;le Cot, L.
;
_cell_length_a                     7.001(1)
_cell_length_b                     8.918(2)
_cell_length_c                     6.576(1)
_cell_angle_alpha                  101.26(3)
_cell_angle_beta                   106.20(2)
_cell_angle_gamma                  107.73(3)
_cell_volume                       357.48
_cell_formula_units_Z              2
_symmetry_space_group_name_H-M     'P -1'
_symmetry_Int_Tables_number        2
_refine_ls_R_factor_all            .024
loop_
_symmetry_equiv_pos_site_id
_symmetry_equiv_pos_as_xyz
  1	'-x, -y, -z'
  2	'x, y, z'
loop_
_atom_type_symbol
_atom_type_oxidation_number
H1+	1
K1+	1
O2-	-2
P5+	5
loop_
_atom_site_label
_atom_site_type_symbol
_atom_site_symmetry_multiplicity
_atom_site_Wyckoff_symbol
_atom_site_fract_x
_atom_site_fract_y
_atom_site_fract_z
_atom_site_occupancy
_atom_site_attached_hydrogens
_atom_site_B_iso_or_equiv
K1 K1+ 2 i 0.7673(1) 0.0595(1) 0.2619(1) 1. 0 0 
K2 K1+ 2 i 0.2624(1) 0.5101(1) 0.7537(1) 1. 0 0 
P1 P5+ 2 i 0.3057(1) 0.6699(1) 0.2924(1) 1. 0 0 
P2 P5+ 2 i 0.7003(1) 0.8571(1) 0.6882(1) 1. 0 0 
O1 O2- 2 i 0.3470(4) 0.5221(3) 0.1935(4) 1. 0 0 
O2 O2- 2 i 0.2192(4) 0.7318(3) 0.0992(4) 1. 0 0 
O3 O2- 2 i 0.1699(3) 0.6494(3) 0.4303(4) 1. 0 0 
O4 O2- 2 i 0.5368(3) 0.8177(3) 0.4377(3) 1. 0 0 
O5 O2- 2 i 0.8726(3) 0.0199(3) 0.7275(4) 1. 0 0 
O6 O2- 2 i 0.5794(4) 0.8434(3) 0.8408(4) 1. 0 0 
O7 O2- 2 i 0.8004(3) 0.7226(3) 0.6653(4) 1. 0 0 
H1 H1+ 2 i 0.179(8) 0.795(6) 0.134(8) 1. 0 3.9 
H2 H1+ 2 i 0.762(8) 0.656(6) 0.701(8) 1. 0 3.8 

#End of data_36043-ICSD


