data_34326-ICSD
#?2014 by Fachinformationszentrum Karlsruhe, and the U.S. Secretary of 
#Commerce on behalf of the United States.  All rights reserved.
_database_code_ICSD                34326
_audit_creation_date               1980/01/01
_audit_update_record               2006/04/01
_chemical_name_systematic          'Dipotassium Dichromate(VI)'
_chemical_formula_structural       'K2 (Cr2 O7)'
_chemical_formula_sum              'Cr2 K2 O7'
_chemical_name_mineral             Lopezite
_publ_section_title
;
Crystal structure of K2 Cr2 O7, and a structural aspect of its 
morphology
;
loop_
_citation_id
_citation_journal_abbrev
_citation_year
_citation_journal_volume
_citation_page_first
_citation_page_last
_citation_journal_id_ASTM
primary 'Kristall und Technik' 1969 4 441 461 KRTEAW
2 'Doklady Akademii Nauk SSSR' 1967 173 1068 1071 DANKAS
3 'Golden Book of Phase Transitions, Wroclaw' 2002 1 1 123 GBOPT5
_publ_author_name
;
Kuz'min, E.A.;Ilyukhin, V.V.;Kharitonov, Yu.A.;Belov, N.V.
;
_cell_length_a                     7.52
_cell_length_b                     13.4
_cell_length_c                     7.4
_cell_angle_alpha                  98.
_cell_angle_beta                   90.83
_cell_angle_gamma                  96.16
_cell_volume                       733.83
_cell_formula_units_Z              4
_symmetry_space_group_name_H-M     'P -1'
_symmetry_Int_Tables_number        2
_refine_ls_R_factor_all            .014
loop_
_symmetry_equiv_pos_site_id
_symmetry_equiv_pos_as_xyz
  1	'-x, -y, -z'
  2	'x, y, z'
loop_
_atom_type_symbol
_atom_type_oxidation_number
Cr6+	6
K1+	1
O2-	-2
loop_
_atom_site_label
_atom_site_type_symbol
_atom_site_symmetry_multiplicity
_atom_site_Wyckoff_symbol
_atom_site_fract_x
_atom_site_fract_y
_atom_site_fract_z
_atom_site_occupancy
_atom_site_attached_hydrogens
_atom_site_B_iso_or_equiv
Cr1 Cr6+ 2 i 0.192 0.086 0.207 1. 0 1.02 
Cr2 Cr6+ 2 i 0.768 0.108 0.592 1. 0 1.16 
Cr3 Cr6+ 2 i 0.846 0.583 0.188 1. 0 1.04 
Cr4 Cr6+ 2 i 0.574 0.387 0.182 1. 0 1.1 
K1 K1+ 2 i 0.668 0.139 0.104 1. 0 1.48 
K2 K1+ 2 i 0.232 0.152 0.751 1. 0 1.34 
K3 K1+ 2 i 0.344 0.636 0.302 1. 0 1.51 
K4 K1+ 2 i 0.084 0.341 0.34 1. 0 1.19 
O1 O2- 2 i 0.325 0.057 0.03 1. 0 1.81 
O2 O2- 2 i 0.025 0.135 0.136 1. 0 1.9 
O3 O2- 2 i 0.107 0.978 0.29 1. 0 1.64 
O4 O2- 2 i 0.299 0.16 0.358 1. 0 1.55 
O5 O2- 2 i 0.387 0.849 0.291 1. 0 1.4 
O6 O2- 2 i 0.095 0.804 0.45 1. 0 1.79 
O7 O2- 2 i 0.327 0.954 0.583 1. 0 1.35 
O8 O2- 2 i 0.697 0.476 0.067 1. 0 1.25 
O9 O2- 2 i 0.483 0.301 0.047 1. 0 1.46 
O10 O2- 2 i 0.705 0.332 0.301 1. 0 1.53 
O11 O2- 2 i 0.416 0.434 0.306 1. 0 1.9 
O12 O2- 2 i 0.005 0.543 0.313 1. 0 1.74 
O13 O2- 2 i 0.721 0.65 0.324 1. 0 1.46 
O14 O2- 2 i 0.933 0.645 0.037 1. 0 1.6 

#End of data_34326-ICSD


