data_88643-ICSD
#?2014 by Fachinformationszentrum Karlsruhe, and the U.S. Secretary of 
#Commerce on behalf of the United States.  All rights reserved.
_database_code_ICSD                88643
_audit_creation_date               2001/07/16
_audit_update_record               2003/04/01
_chemical_name_systematic
;
Lithium Vanadium(IV) Vanadium Oxide - Epsilon
;
_chemical_formula_structural       'Li V2 O5'
_chemical_formula_sum              'Li1 O5 V2'
_publ_section_title
;
Atomic modeling of the delta - epsilon - (Li V2 O5) phase transition 
and simulation of the XRD powder pattern evolution
;
loop_
_citation_id
_citation_journal_abbrev
_citation_year
_citation_journal_volume
_citation_page_first
_citation_page_last
_citation_journal_id_ASTM
primary 'Journal of Solid State Chemistry' 1999 146 129 136 JSSCBI
_publ_author_name
;
Galy, J.;Satto, C.;Sciau, P.;Millet, P.
;
_cell_length_a                     11.3552(6)
_cell_length_b                     4.6548(2)
_cell_length_c                     3.5732(2)
_cell_angle_alpha                  90.
_cell_angle_beta                   90.
_cell_angle_gamma                  90.
_cell_volume                       188.87
_cell_formula_units_Z              2
_symmetry_space_group_name_H-M     'P m n 21'
_symmetry_Int_Tables_number        31
loop_
_symmetry_equiv_pos_site_id
_symmetry_equiv_pos_as_xyz
  1	'x+.5, -y, z+.5'
  2	'-x+.5, -y, z+.5'
  3	'-x, y, z'
  4	'x, y, z'
loop_
_atom_type_symbol
_atom_type_oxidation_number
Li1+	1
O2-	-2
V4.5+	4.5
loop_
_atom_site_label
_atom_site_type_symbol
_atom_site_symmetry_multiplicity
_atom_site_Wyckoff_symbol
_atom_site_fract_x
_atom_site_fract_y
_atom_site_fract_z
_atom_site_occupancy
_atom_site_attached_hydrogens
Li1 Li1+ 2 a 0 0.28 0 1. 0 
V1 V4.5+ 4 b 0.3499 0.1152 0 1. 0 
O1 O2- 4 b 0.3721 0.466 0 1. 0 
O2 O2- 4 b 0.174 0.0002 0 1. 0 
O3 O2- 2 a 0.5 0.9716 0 1. 0 

#End of data_88643-ICSD


