data_30807-ICSD
#?2014 by Fachinformationszentrum Karlsruhe, and the U.S. Secretary of 
#Commerce on behalf of the United States.  All rights reserved.
_database_code_ICSD                30807
_audit_creation_date               1984/11/06
_audit_update_record               2003/04/01
_chemical_name_systematic          'Magnesium Catena-silicate - Ht'
_chemical_formula_structural       'Mg (Si O3)'
_chemical_formula_sum              'Mg1 O3 Si1'
_chemical_name_mineral             Protoenstatite
_publ_section_title
;
X-ray studies on protoenstatite II. Effect of temperature on the 
structure up to near the incongruent melting point
;
loop_
_citation_id
_citation_journal_abbrev
_citation_year
_citation_journal_volume
_citation_page_first
_citation_page_last
_citation_journal_id_ASTM
primary 'Zeitschrift fuer Kristallographie (1979-2010)' 1984 166 263 275 ZEKRDZ
2 'Zeitschrift fuer Kristallographie (1979-2010)' 1982 160 299 312 ZEKRDZ
3 'Phase Transition' 1992 38 127 220 PHTRDP
_publ_author_name
;
Murakami, T.;Takeuchi, Y.;Yamanaka, T.
;
_cell_length_a                     9.302(6)
_cell_length_b                     8.914(6)
_cell_length_c                     5.362(4)
_cell_angle_alpha                  90.
_cell_angle_beta                   90.
_cell_angle_gamma                  90.
_cell_volume                       444.61
_cell_formula_units_Z              8
_symmetry_space_group_name_H-M     'P b c n'
_symmetry_Int_Tables_number        60
_refine_ls_R_factor_all            .06
loop_
_symmetry_equiv_pos_site_id
_symmetry_equiv_pos_as_xyz
  1	'x, -y, z+.5'
  2	'-x+.5, y+.5, z'
  3	'x+.5, y+.5, -z+.5'
  4	'-x, -y, -z'
  5	'-x, y, -z+.5'
  6	'x+.5, -y+.5, -z'
  7	'-x+.5, -y+.5, z+.5'
  8	'x, y, z'
loop_
_atom_type_symbol
_atom_type_oxidation_number
Mg2+	2
O2-	-2
Si4+	4
loop_
_atom_site_label
_atom_site_type_symbol
_atom_site_symmetry_multiplicity
_atom_site_Wyckoff_symbol
_atom_site_fract_x
_atom_site_fract_y
_atom_site_fract_z
_atom_site_occupancy
_atom_site_attached_hydrogens
_atom_site_B_iso_or_equiv
Mg1 Mg2+ 4 c 0 0.1011(3) 0.75 1. 0 2.26 
Mg2 Mg2+ 4 c 0 0.2622(3) 0.25 1. 0 2.82 
Si1 Si4+ 8 d 0.2925(1) 0.0897(1) 0.0743(2) 1. 0 1.41 
O1 O2- 8 d 0.1202(4) 0.0935(4) 0.0783(7) 1. 0 2.11 
O2 O2- 8 d 0.3763(4) 0.2451(4) 0.0687(8) 1. 0 2.74 
O3 O2- 8 d 0.3482(4) 0.9833(6) 0.3080(8) 1. 0 3.01 

#End of data_30807-ICSD


