data_68186-ICSD
#?2014 by Fachinformationszentrum Karlsruhe, and the U.S. Secretary of 
#Commerce on behalf of the United States.  All rights reserved.
_database_code_ICSD                68186
_audit_creation_date               1991/07/10
_audit_update_record               2012/08/01
_chemical_name_systematic
;
Potassium Heptacopper Tellurate(IV) Pentakis(sulfate(VI)) Chloride
;
_chemical_formula_structural       'K Cu7 (Te O4) (S O4)5 Cl'
_chemical_formula_sum              'Cl1 Cu7 K1 O24 S5 Te1'
_chemical_name_mineral             Nabokoite
_publ_section_title
;
The crystal structure of nabokoite, Cu7 Te O4 (S O4)5 K Cl: the first 
example of a Te(IV) O4 pyramid with exactly tetragonal symmetry
;
loop_
_citation_id
_citation_journal_abbrev
_citation_year
_citation_journal_volume
_citation_page_first
_citation_page_last
_citation_journal_id_ASTM
primary 'Mineralogy and Petrology' 1988 38 291 298 MIPEE9
_publ_author_name                  'Pertlik, F.;Zemann, J.'
_cell_length_a                     9.833(1)
_cell_length_b                     9.833(1)
_cell_length_c                     20.5910(20)
_cell_angle_alpha                  90.
_cell_angle_beta                   90.
_cell_angle_gamma                  90.
_cell_volume                       1990.9
_cell_formula_units_Z              4
_symmetry_space_group_name_H-M     'P 4/n c c Z'
_symmetry_Int_Tables_number        130
_refine_ls_R_factor_all            .073
loop_
_symmetry_equiv_pos_site_id
_symmetry_equiv_pos_as_xyz
  1	'y+.5, x+.5, -z+.5'
  2	'-y, x+.5, -z'
  3	'y+.5, -x, -z'
  4	'-y, -x, -z+.5'
  5	'x+.5, y+.5, -z'
  6	'-x, y+.5, -z+.5'
  7	'x+.5, -y, -z+.5'
  8	'-x, -y, -z'
  9	'-y+.5, -x+.5, z+.5'
 10	'y, -x+.5, z'
 11	'-y+.5, x, z'
 12	'y, x, z+.5'
 13	'-x+.5, -y+.5, z'
 14	'x, -y+.5, z+.5'
 15	'-x+.5, y, z+.5'
 16	'x, y, z'
loop_
_atom_type_symbol
_atom_type_oxidation_number
Cl1-	-1
Cu2+	2
K1+	1
O2-	-2
S6+	6
Te4+	4
loop_
_atom_site_label
_atom_site_type_symbol
_atom_site_symmetry_multiplicity
_atom_site_Wyckoff_symbol
_atom_site_fract_x
_atom_site_fract_y
_atom_site_fract_z
_atom_site_occupancy
_atom_site_attached_hydrogens
Cu1 Cu2+ 16 g 0.4857(1) 0.2738(1) 0.8952(1) 1. 0 
Cu2 Cu2+ 4 c 0.25 0.25 0.6985(2) 1. 0 
Cu3 Cu2+ 8 d 0 0 0 1. 0 
Te1 Te4+ 4 c 0.25 0.25 0.9960(1) 1. 0 
S1 S6+ 16 g 0.5681(3) 0.9937(3) 0.8525(1) 1. 0 
S2 S6+ 4 b 0.75 0.25 0 1. 0 
O1 O2- 16 g 0.4255(7) 0.9544(7) 0.8381(4) 1. 0 
O2 O2- 16 g 0.6624(7) 0.9297(7) 0.8089(4) 1. 0 
O3 O2- 16 g 0.5844(7) 0.1421(7) 0.8437(4) 1. 0 
O4 O2- 16 g 0.6024(7) 0.9560(7) 0.9202(3) 1. 0 
O5 O2- 16 g 0.6545(7) 0.3294(8) 0.9601(4) 1. 0 
O6 O2- 16 g 0.3655(6) 0.3912(6) 0.9499(3) 1. 0 
K1 K1+ 4 a 0.75 0.25 0.75 1. 0 
Cl1 Cl1- 4 c 0.25 0.25 0.8225(3) 1. 0 

loop_
_atom_site_aniso_label
_atom_site_aniso_type_symbol
_atom_site_aniso_U_11
_atom_site_aniso_U_22
_atom_site_aniso_U_33
_atom_site_aniso_U_12
_atom_site_aniso_U_13
_atom_site_aniso_U_23
Cu1 Cu2+ 0.0137(6) 0.0084(5) 0.0150(7) 0.0007(4) 0.0031(5) -.003(4)
Cu2 Cu2+ 0.0077(7) 0.0077(7) 0.0359(18) 0 0 0
Cu3 Cu2+ 0.0148(8) 0.0128(7) 0.0094(9) -.0058(7) 0.0026(7) -.0009(7)
Te1 Te4+ 0.0165(4) 0.0165(4) 0.0373(11) 0 0 0
S1 S6+ 0.0115(10) 0.0101(10) 0.0133(13) 0.0012(8) 0.0016(9) -.0006(10)
S2 S6+ 0.0132(12) 0.0132(12) 0.0010(24) 0 0 0
O1 O2- 0.0092(32) 0.0170(37) 0.0228(45) -.0042(27) -.0012(32) -.0087(35)
O2 O2- 0.0156(35) 0.0115(33) 0.0174(40) 0.0009(27) 0.0038(33) -.0023(32)
O3 O2- 0.0174(35) 0.0128(34) 0.0103(37) 0.0005(28) 0.0086(31) 0.0028(30)
O4 O2- 0.0115(32) 0.0224(38) 0.0130(42) 0.0019(25) -.0018(28) -.0012(32)
O5 O2- 0.0183(38) 0.0170(37) 0.0134(42) 0.0010(28) -.0090(35) 0.0076(33)
O6 O2- 0.0095(32) 0.0083(32) 0.0111(33) -.0029(23) -.0007(29) -.0005(30)
K1 K1+ 0.0923(32) 0.0923(42) 0.0127(31) -.0802(50) 0 0
Cl1 Cl1- 0.0233(15) 0.0233(15) 0.0084(24) 0 0 0
#End of data_68186-ICSD


