data_261517-ICSD
#?2014 by Fachinformationszentrum Karlsruhe, and the U.S. Secretary of 
#Commerce on behalf of the United States.  All rights reserved.
_database_code_ICSD                261517
_audit_creation_date               2011/08/01
_chemical_name_systematic          'Lithium Copper Vanadate(V)'
_chemical_formula_structural       'Li Cu V O4'
_chemical_formula_sum              'Cu1 Li1 O4 V1'
_publ_section_title
;
On the nature of the spin frustration in the Cu O2 ribbon chains of 
Li Cu V O4: crystal structure determination at 1.6 K, magnetic 
susceptibility analysis, and density functional evaluation of the 
spin exchange constants
;
loop_
_citation_id
_citation_journal_abbrev
_citation_year
_citation_journal_volume
_citation_journal_issue
_citation_page_first
_citation_page_last
_citation_journal_id_ASTM
primary 'Inorganic Chemistry' 2011 50 8 3582 3588 INOCAJ
_publ_author_name
;
Koo Hyun-Joo;Lee Changhoon;Whangbo Myunghwan;McIntyre, G.J.;Kremer, 
R.K.
;
_cell_length_a                     5.6477(9)
_cell_length_b                     5.7864(9)
_cell_length_c                     8.6940(13)
_cell_angle_alpha                  90.
_cell_angle_beta                   90.
_cell_angle_gamma                  90.
_cell_volume                       284.12
_cell_formula_units_Z              4
_symmetry_space_group_name_H-M     'I m m a'
_symmetry_Int_Tables_number        74
_refine_ls_R_factor_all            .071
loop_
_symmetry_equiv_pos_site_id
_symmetry_equiv_pos_as_xyz
  1	'-x, y+.5, -z'
  2	'-x, -y+.5, z'
  3	'-x, y, z'
  4	'-x, -y, -z'
  5	'x, -y+.5, z'
  6	'x, y+.5, -z'
  7	'x, -y, -z'
  8	'x, y, z'
  9	'-x+.5, y, -z+.5'
 10	'-x+.5, -y, z+.5'
 11	'-x+.5, y+.5, z+.5'
 12	'-x+.5, -y+.5, -z+.5'
 13	'x+.5, -y, z+.5'
 14	'x+.5, y, -z+.5'
 15	'x+.5, -y+.5, -z+.5'
 16	'x+.5, y+.5, z+.5'
loop_
_atom_type_symbol
_atom_type_oxidation_number
Cu2+	2
Li1+	1
O2-	-2
V5+	5
loop_
_atom_site_label
_atom_site_type_symbol
_atom_site_symmetry_multiplicity
_atom_site_Wyckoff_symbol
_atom_site_fract_x
_atom_site_fract_y
_atom_site_fract_z
_atom_site_occupancy
_atom_site_attached_hydrogens
_atom_site_B_iso_or_equiv
Li1 Li1+ 4 d 0.25 0.25 0.75 1. 0 0.3(0) 
Cu1 Cu2+ 4 a 0 0 0 1. 0 0.10(1) 
V1 V5+ 4 e 0 0.25 0.3915(36) 1. 0 0.10(1) 
O1 O2- 8 h 0 0.0155(4) 0.2742(5) 1. 0 0.16(15) 
O2 O2- 8 i 0.2359(6) 0.25 -0.0012(2) 1. 0 0.16(15) 

#End of data_261517-ICSD


