data_411289-ICSD
#?2014 by Fachinformationszentrum Karlsruhe, and the U.S. Secretary of 
#Commerce on behalf of the United States.  All rights reserved.
_database_code_ICSD                411289
_audit_creation_date               2002/04/01
_audit_update_record               2012/02/01
_chemical_name_systematic
;
Dipotassium Diaquapentakis(nitrato)lanthanate
;
_chemical_formula_structural       'K2 (La (N O3)5 (H2 O)2)'
_chemical_formula_sum              'H4 K2 La1 N5 O17'
_publ_section_title
;
Polar potassium rare earth nitrates K2 (RE (N O3)5 (H2 O)2) (RE= La, 
Ce,Pr and Nd). I. Crystal growth and crystal structures
;
loop_
_citation_id
_citation_journal_abbrev
_citation_year
_citation_journal_volume
_citation_page_first
_citation_page_last
_citation_journal_id_ASTM
primary 'Journal of Applied Crystallography' 2000 33 372 377 JACGAR
_publ_author_name
;
Held, P.;Hellwig, H.;Ruehle, S.;Bohaty, L.
;
_cell_length_a                     11.2814(6)
_cell_length_b                     21.4797(14)
_cell_length_c                     12.2589(4)
_cell_angle_alpha                  90.
_cell_angle_beta                   90.
_cell_angle_gamma                  90.
_cell_volume                       2970.59
_cell_formula_units_Z              8
_symmetry_space_group_name_H-M     'F d d 2'
_symmetry_Int_Tables_number        43
_refine_ls_R_factor_all            .0111
loop_
_symmetry_equiv_pos_site_id
_symmetry_equiv_pos_as_xyz
  1	'x+.25, -y+.25, z+.25'
  2	'-x+.25, y+.25, z+.25'
  3	'-x, -y, z'
  4	'x, y, z'
  5	'x+.25, -y+.75, z+.75'
  6	'x+.75, -y+.25, z+.75'
  7	'x+.75, -y+.75, z+.25'
  8	'-x+.25, y+.75, z+.75'
  9	'-x+.75, y+.25, z+.75'
 10	'-x+.75, y+.75, z+.25'
 11	'-x, -y+.5, z+.5'
 12	'-x+.5, -y, z+.5'
 13	'-x+.5, -y+.5, z'
 14	'x, y+.5, z+.5'
 15	'x+.5, y, z+.5'
 16	'x+.5, y+.5, z'
loop_
_atom_type_symbol
_atom_type_oxidation_number
H1+	1
K1+	1
La3+	3
N5+	5
O2-	-2
loop_
_atom_site_label
_atom_site_type_symbol
_atom_site_symmetry_multiplicity
_atom_site_Wyckoff_symbol
_atom_site_fract_x
_atom_site_fract_y
_atom_site_fract_z
_atom_site_occupancy
_atom_site_attached_hydrogens
_atom_site_U_iso_or_equiv
La1 La3+ 8 a 0 0 0.00000(2) 1. 0 0 
O1 O2- 16 b 0.18766(11) 0.04817(5) 0.09156(13) 1. 0 0 
O2 O2- 16 b 0.22239(11) -.03994(6) 0.01430(16) 1. 0 0 
O3 O2- 16 b 0.36919(12) 0.01628(8) 0.07287(17) 1. 0 0 
O4 O2- 16 b 0.14058(11) 0.05885(6) -.14798(14) 1. 0 0 
O5 O2- 16 b -.04697(11) 0.06142(6) -.18057(12) 1. 0 0 
O6 O2- 16 b 0.07719(14) 0.10202(7) -.29636(13) 1. 0 0 
O7 O2- 16 b 0.03651(15) -.04576(7) 0.20448(14) 1. 0 0 
O8 O2- 8 a 0 0 0.3572(3) 1. 0 0 
K1 K1+ 16 b 0.05821(3) 0.104390(18) 0.47965(4) 1. 0 0 
N1 N5+ 16 b 0.26357(12) 0.00837(7) 0.05973(16) 1. 0 0 
N2 N5+ 16 b 0.05803(13) 0.07470(7) -.21076(14) 1. 0 0 
N3 N5+ 8 a 0 0 0.2575(2) 1. 0 0 
O9 O2- 16 b -.01318(13) 0.12329(6) 0.02576(13) 1. 0 0 
H1 H1+ 16 b -.037(2) 0.1462(11) -.026(2) 1. 0 0.023(5) 
H2 H1+ 16 b 0.053(4) 0.1339(17) 0.028(4) 1. 0 0.09(1) 

loop_
_atom_site_aniso_label
_atom_site_aniso_type_symbol
_atom_site_aniso_U_11
_atom_site_aniso_U_22
_atom_site_aniso_U_33
_atom_site_aniso_U_12
_atom_site_aniso_U_13
_atom_site_aniso_U_23
La1 La3+ 0.01637(5) 0.01490(5) 0.01667(6) 0.00153(5) 0 0
O1 O2- 0.0265(5) 0.0220(5) 0.0357(8) 0.0051(5) -.0065(6) -.0089(6)
O2 O2- 0.0240(5) 0.0249(5) 0.0462(10) 0.0030(4) -.0045(6) -.0127(7)
O3 O2- 0.0209(5) 0.0392(7) 0.0567(12) -.0028(5) -.0071(7) -.0034(8)
O4 O2- 0.0232(5) 0.0360(7) 0.0321(8) -.0046(5) -.0045(5) 0.0046(6)
O5 O2- 0.0209(5) 0.0233(5) 0.0289(7) -.0014(4) -.0019(5) 0.0041(5)
O6 O2- 0.0458(8) 0.0368(7) 0.0237(8) -.0067(6) 0.0031(6) 0.0077(6)
O7 O2- 0.0492(8) 0.0250(6) 0.0324(9) 0.0118(6) -.0083(7) -.0039(6)
O8 O2- 0.122(3) 0.0469(16) 0.0173(14) -.0169(15) 0 0
K1 K1+ 0.02849(15) 0.02698(15) 0.0369(2) 0.00174(13) -.00579(17) 
-.00079(17)
N1 N5+ 0.0199(6) 0.0224(7) 0.0277(9) 0.0014(4) -.0029(6) -.0006(6)
N2 N5+ 0.0283(6) 0.0190(6) 0.0197(8) -.0040(5) 0.0009(6) -.0005(6)
N3 N5+ 0.0444(14) 0.0237(10) 0.0212(14) -.0041(7) 0 0
O9 O2- 0.0312(7) 0.0206(5) 0.0318(12) -.0023(5) -.0100(6) 0.0041(5)
#End of data_411289-ICSD


