data_68669-ICSD
#?2014 by Fachinformationszentrum Karlsruhe, and the U.S. Secretary of 
#Commerce on behalf of the United States.  All rights reserved.
_database_code_ICSD                68669
_audit_creation_date               1991/07/10
_audit_update_record               2014/08/01
_chemical_name_systematic
;
Dipotassium Nitrosylpentabromoruthenate(II)
;
_chemical_formula_structural       'K2 (Ru (N O) Br5)'
_chemical_formula_sum              'Br5 K2 N1 O1 Ru1'
_publ_section_title
;
The crystal structures of the bromo- and iodo-nitrosylruthenates 
K2(RuX5NO) (X = Br, I)
;
loop_
_citation_id
_citation_journal_abbrev
_citation_year
_citation_journal_volume
_citation_page_first
_citation_page_last
_citation_journal_id_ASTM
primary 'Zhurnal Neorganicheskoi Khimii' 1989 34 2803 2806 ZNOKAQ
2 'Russian Journal of Inorganic Chemistry' 1989 34 1603 1605 RJICAQ
_publ_author_name
;
Mikhailov, Yu.N.;Kanishcheva, A.S.;Svetlov, A.A.
;
_cell_length_a                     7.236(2)
_cell_length_b                     10.791(2)
_cell_length_c                     13.949(3)
_cell_angle_alpha                  90.
_cell_angle_beta                   90.
_cell_angle_gamma                  90.
_cell_volume                       1089.19
_cell_formula_units_Z              4
_symmetry_space_group_name_H-M     'P c m n'
_symmetry_Int_Tables_number        62
_refine_ls_R_factor_all            .067
loop_
_symmetry_equiv_pos_site_id
_symmetry_equiv_pos_as_xyz
  1	'-x+.5, y, z+.5'
  2	'x, -y+.5, z'
  3	'x+.5, y+.5, -z+.5'
  4	'-x, -y, -z'
  5	'x+.5, -y, -z+.5'
  6	'-x, y+.5, -z'
  7	'-x+.5, -y+.5, z+.5'
  8	'x, y, z'
loop_
_atom_type_symbol
_atom_type_oxidation_number
Br1-	-1
K1+	1
N3+	3
O2-	-2
Ru2+	2
loop_
_atom_site_label
_atom_site_type_symbol
_atom_site_symmetry_multiplicity
_atom_site_Wyckoff_symbol
_atom_site_fract_x
_atom_site_fract_y
_atom_site_fract_z
_atom_site_occupancy
_atom_site_attached_hydrogens
Ru1 Ru2+ 4 c 0.1800(3) 0.25 0.1099(1) 1. 0 
Br1 Br1- 8 d 0.1859(3) 0.4828(1) 0.1122(1) 1. 0 
Br2 Br1- 4 c 0.3919(3) 0.25 0.2525(2) 1. 0 
Br3 Br1- 4 c 0.4610(4) 0.25 0.0028(2) 1. 0 
Br4 Br1- 4 c -.0878(4) 0.25 0.2252(2) 1. 0 
K1 K1+ 8 d 0.1545(6) -.0003(4) 0.3561(3) 1. 0 
N1 N3+ 4 c 0.0251(26) 0.25 0.0160(11) 1. 0 
O1 O2- 4 c -.0922(26) 0.25 -.0423(11) 1. 0 

#End of data_68669-ICSD


