data_245500-ICSD
#?2014 by Fachinformationszentrum Karlsruhe, and the U.S. Secretary of 
#Commerce on behalf of the United States.  All rights reserved.
_database_code_ICSD                245500
_audit_creation_date               2008/02/01
_chemical_name_systematic
;
Dipotassium Pentaoxovanadate(IV) Tetraoxovanadate(V)
;
_chemical_formula_structural       'K2 V3 O8'
_chemical_formula_sum              'K2 O8 V3'
_publ_section_title                'Structural modulation in K2 V3 O8'
loop_
_citation_id
_citation_journal_abbrev
_citation_year
_citation_journal_volume
_citation_journal_issue
_citation_page_first
_citation_page_last
_citation_journal_id_ASTM
primary 'Journal of Solid State Chemistry' 2007 180 3 812 817 JSSCBI
_publ_author_name
;
Chakoumakos, B.C.;Custelcean, R.;Kamiyama, T.;Oikawa, K.;Sales, 
B.C.;Lumsden, M.D.
;
_cell_length_a                     8.8954(1)
_cell_length_b                     8.8954(1)
_cell_length_c                     5.2472(1)
_cell_angle_alpha                  90.
_cell_angle_beta                   90.
_cell_angle_gamma                  90.
_cell_volume                       415.2
_cell_formula_units_Z              2
_symmetry_space_group_name_H-M     'P 4 b m'
_symmetry_Int_Tables_number        100
_refine_ls_R_factor_all            .016
loop_
_symmetry_equiv_pos_site_id
_symmetry_equiv_pos_as_xyz
  1	'-y+.5, -x+.5, z'
  2	'y+.5, x+.5, z'
  3	'y, -x, z'
  4	'-y, x, z'
  5	'-x+.5, y+.5, z'
  6	'x+.5, -y+.5, z'
  7	'-x, -y, z'
  8	'x, y, z'
loop_
_atom_type_symbol
_atom_type_oxidation_number
K1+	1
O2-	-2
V4+	4
V5+	5
loop_
_atom_site_label
_atom_site_type_symbol
_atom_site_symmetry_multiplicity
_atom_site_Wyckoff_symbol
_atom_site_fract_x
_atom_site_fract_y
_atom_site_fract_z
_atom_site_occupancy
_atom_site_attached_hydrogens
_atom_site_U_iso_or_equiv
K1 K1+ 4 c 0.66907(4) 0.16907(4) 0.1723(1) 1. 0 0.0327(1) 
V1 V5+ 4 c 0.36608(2) 0.13392(2) 0.64187(7) 1. 0 0.0116(1) 
V2 V4+ 2 a 0 0 0.63650(8) 1. 0 0.0124(1) 
O1 O2- 8 d 0.1921(1) 0.0866(1) 0.5282(2) 1. 0 0.0219(2) 
O2 O2- 4 c 0.3698(1) 0.1301(1) 0.9530(3) 1. 0 0.0235(4) 
O3 O2- 2 b 0 0.5 0.5173(3) 1. 0 0.0186(5) 
O4 O2- 2 a 0 0 0.9410(5) 1. 0 0.0308(5) 

#End of data_245500-ICSD


