data_262602-ICSD
#?2014 by Fachinformationszentrum Karlsruhe, and the U.S. Secretary of 
#Commerce on behalf of the United States.  All rights reserved.
_database_code_ICSD                262602
_audit_creation_date               2012/08/01
_chemical_name_systematic
;
Potassium Cadmium Tris(borotetrahydride)
;
_chemical_formula_structural       'K Cd (B H4)3'
_chemical_formula_sum              'H12 B3 Cd1 K1'
_publ_section_title
;
Screening of metal borohydrides by mechanochemistry and diffraction
;
loop_
_citation_id
_citation_journal_abbrev
_citation_year
_citation_journal_volume
_citation_journal_issue
_citation_page_first
_citation_page_last
_citation_journal_id_ASTM
primary 'Angewandte Chemie. International Edition' 2012 51 15 3582 3586 ACIEF5
_publ_author_name
;
Ravnsbaek, D.B.;Sorensen, L.H.;Filinchuk, Ya.;Besenbacher, F.;Jensen, 
T.R.
;
_cell_length_a                     17.9353(5)
_cell_length_b                     17.9353(5)
_cell_length_c                     17.9353(5)
_cell_angle_alpha                  90.
_cell_angle_beta                   90.
_cell_angle_gamma                  90.
_cell_volume                       5769.34
_cell_formula_units_Z              32
_symmetry_space_group_name_H-M     'I a -3'
_symmetry_Int_Tables_number        206
_refine_ls_R_factor_all            .0291
loop_
_symmetry_equiv_pos_site_id
_symmetry_equiv_pos_as_xyz
  1	'-z, x, y+.5'
  2	'z, x+.5, -y'
  3	'z+.5, -x, y'
  4	'-z, -x, -y'
  5	'y+.5, -z, x'
  6	'-y, z, x+.5'
  7	'y, z+.5, -x'
  8	'-y, -z, -x'
  9	'x, y+.5, -z'
 10	'x+.5, -y, z'
 11	'-x, y, z+.5'
 12	'-x, -y, -z'
 13	'z, -x, -y+.5'
 14	'-z, -x+.5, y'
 15	'-z+.5, x, -y'
 16	'z, x, y'
 17	'-y+.5, z, -x'
 18	'y, -z, -x+.5'
 19	'-y, -z+.5, x'
 20	'y, z, x'
 21	'-x, -y+.5, z'
 22	'-x+.5, y, -z'
 23	'x, -y, -z+.5'
 24	'x, y, z'
 25	'-z+.5, x+.5, y'
 26	'z+.5, x, -y+.5'
 27	'z, -x+.5, y+.5'
 28	'-z+.5, -x+.5, -y+.5'
 29	'y, -z+.5, x+.5'
 30	'-y+.5, z+.5, x'
 31	'y+.5, z, -x+.5'
 32	'-y+.5, -z+.5, -x+.5'
 33	'x+.5, y, -z+.5'
 34	'x, -y+.5, z+.5'
 35	'-x+.5, y+.5, z'
 36	'-x+.5, -y+.5, -z+.5'
 37	'z+.5, -x+.5, -y'
 38	'-z+.5, -x, y+.5'
 39	'-z, x+.5, -y+.5'
 40	'z+.5, x+.5, y+.5'
 41	'-y, z+.5, -x+.5'
 42	'y+.5, -z+.5, -x'
 43	'-y+.5, -z, x+.5'
 44	'y+.5, z+.5, x+.5'
 45	'-x+.5, -y, z+.5'
 46	'-x, y+.5, -z+.5'
 47	'x+.5, -y+.5, -z'
 48	'x+.5, y+.5, z+.5'
loop_
_atom_type_symbol
_atom_type_oxidation_number
B3+	3
Cd2+	2
H1-	-1
K1+	1
loop_
_atom_site_label
_atom_site_type_symbol
_atom_site_symmetry_multiplicity
_atom_site_Wyckoff_symbol
_atom_site_fract_x
_atom_site_fract_y
_atom_site_fract_z
_atom_site_occupancy
_atom_site_attached_hydrogens
Cd1 Cd2+ 24 d 0.3796(6) 0 0.25 1. 0 
Cd2 Cd2+ 8 b 0.25 0.25 0.25 1. 0 
K1 K1+ 24 d 0.1414(17) 0 0.25 1. 0 
K2 K1+ 8 a 0 0 0 1. 0 
B1 B3+ 48 e 0.285(2) 0.283(2) 0.895(2) 1. 0 
H1 H1- 48 e 0.321(2) 0.243(2) 0.860(2) 1. 0 
H2 H1- 48 e 0.235(2) 0.251(2) 0.918(2) 1. 0 
H3 H1- 48 e 0.320(2) 0.306(2) 0.943(2) 1. 0 
H4 H1- 48 e 0.265(2) 0.331(2) 0.857(2) 1. 0 
B2 B3+ 48 e 0.153(2) 0.039(2) 0.426(2) 1. 0 
H5 H1- 48 e 0.153(2) 0.039(2) 0.490(2) 1. 0 
H6 H1- 48 e 0.153(2) 0.099(2) 0.405(2) 1. 0 
H7 H1- 48 e 0.205(2) 0.009(2) 0.405(2) 1. 0 
H8 H1- 48 e 0.100(2) 0.009(2) 0.405(2) 1. 0 

#End of data_262602-ICSD


