data_72328-ICSD
#?2014 by Fachinformationszentrum Karlsruhe, and the U.S. Secretary of 
#Commerce on behalf of the United States.  All rights reserved.
_database_code_ICSD                72328
_audit_creation_date               1994/01/19
_audit_update_record               2011/02/01
_chemical_name_systematic
;
Sodium Dibarium Dicopper Copper(III) Oxide
;
_chemical_formula_structural       'Na Ba2 Cu3 O6'
_chemical_formula_sum              'Ba2 Cu3 Na1 O6'
_publ_section_title
;
Das erste Alkali-Erdalkali-Oxocuprat (II,III): Na Ba2 (Cu2+)2 (Cu3+) 
O6
;
loop_
_citation_id
_citation_journal_abbrev
_citation_year
_citation_journal_volume
_citation_page_first
_citation_page_last
_citation_journal_id_ASTM
primary 'Zeitschrift fuer Anorganische und Allgemeine Chemie (1950) (DE)'
 1992 617 19 22 ZAACAB
_publ_author_name                  'Tams, G.;Mueller Buschbaum, H.'
_cell_length_a                     8.4229(22)
_cell_length_b                     11.4418(32)
_cell_length_c                     14.4063(47)
_cell_angle_alpha                  90.
_cell_angle_beta                   90.
_cell_angle_gamma                  90.
_cell_volume                       1388.38
_cell_formula_units_Z              8
_symmetry_space_group_name_H-M     'F m m m'
_symmetry_Int_Tables_number        69
_refine_ls_R_factor_all            .044
loop_
_symmetry_equiv_pos_site_id
_symmetry_equiv_pos_as_xyz
  1	'x, y, -z'
  2	'x, -y, z'
  3	'-x, y, z'
  4	'-x, -y, -z'
  5	'-x, -y, z'
  6	'-x, y, -z'
  7	'x, -y, -z'
  8	'x, y, z'
  9	'x, y+.5, -z+.5'
 10	'x+.5, y, -z+.5'
 11	'x+.5, y+.5, -z'
 12	'x, -y+.5, z+.5'
 13	'x+.5, -y, z+.5'
 14	'x+.5, -y+.5, z'
 15	'-x, y+.5, z+.5'
 16	'-x+.5, y, z+.5'
 17	'-x+.5, y+.5, z'
 18	'-x, -y+.5, -z+.5'
 19	'-x+.5, -y, -z+.5'
 20	'-x+.5, -y+.5, -z'
 21	'-x, -y+.5, z+.5'
 22	'-x+.5, -y, z+.5'
 23	'-x+.5, -y+.5, z'
 24	'-x, y+.5, -z+.5'
 25	'-x+.5, y, -z+.5'
 26	'-x+.5, y+.5, -z'
 27	'x, -y+.5, -z+.5'
 28	'x+.5, -y, -z+.5'
 29	'x+.5, -y+.5, -z'
 30	'x, y+.5, z+.5'
 31	'x+.5, y, z+.5'
 32	'x+.5, y+.5, z'
loop_
_atom_type_symbol
_atom_type_oxidation_number
Ba2+	2
Cu2+	2
Cu3+	3
Na1+	1
O2-	-2
loop_
_atom_site_label
_atom_site_type_symbol
_atom_site_symmetry_multiplicity
_atom_site_Wyckoff_symbol
_atom_site_fract_x
_atom_site_fract_y
_atom_site_fract_z
_atom_site_occupancy
_atom_site_attached_hydrogens
_atom_site_B_iso_or_equiv
Ba1 Ba2+ 8 h 0 0.2325(1) 0 1. 0 1.01(2) 
Ba2 Ba2+ 8 f 0.25 0.25 0.25 1. 0 0.80(1) 
Cu1 Cu3+ 8 g 0.6900(3) 0 0 1. 0 0.68(4) 
Cu2 Cu2+ 16 n 0.3488(2) 0 0.3514(1) 1. 0 0.75(3) 
Na1 Na1+ 8 i 0 0 0.3304(7) 1. 0 1.04(14) 
O1 O2- 16 m 0 0.117(1) 0.189(1) 1. 0 1.12(17) 
O2 O2- 32 p 0.202(1) 0.889(1) 0.408(1) 1. 0 1.06(11) 

#End of data_72328-ICSD


