data_12101-ICSD
#?2014 by Fachinformationszentrum Karlsruhe, and the U.S. Secretary of 
#Commerce on behalf of the United States.  All rights reserved.
_database_code_ICSD                12101
_audit_creation_date               1980/01/01
_audit_update_record               2003/04/01
_chemical_name_systematic          'Disodium Tetrafluoroberyllate'
_chemical_formula_structural       'Na2 (Be F4)'
_chemical_formula_sum              'Be1 F4 Na2'
_publ_section_title
;
gamma Na2 Be F4, its crystal structure at 25 and 74 C and its 
anisotropic thermal expansion
;
loop_
_citation_id
_citation_journal_abbrev
_citation_year
_citation_journal_volume
_citation_page_first
_citation_page_last
_citation_journal_id_ASTM
primary
;
Zeitschrift fuer Kristallographie, Kristallgeometrie, Kristallphysik, 
Kristallchemie (-144,1977)
;
 1972 135 18 33 ZEKGAX
2 'Phase Transition' 1992 38 127 220 PHTRDP
_publ_author_name                  'Deganello, S.'
_cell_length_a                     4.8946(8)
_cell_length_b                     10.9253(7)
_cell_length_c                     6.569(1)
_cell_angle_alpha                  90.
_cell_angle_beta                   90.
_cell_angle_gamma                  90.
_cell_volume                       351.28
_cell_formula_units_Z              4
_symmetry_space_group_name_H-M     'P b n m'
_symmetry_Int_Tables_number        62
_refine_ls_R_factor_all            .07
loop_
_symmetry_equiv_pos_site_id
_symmetry_equiv_pos_as_xyz
  1	'-x+.5, y+.5, z'
  2	'x, y, -z+.5'
  3	'x+.5, -y+.5, z+.5'
  4	'-x, -y, -z'
  5	'x+.5, -y+.5, -z'
  6	'-x, -y, z+.5'
  7	'-x+.5, y+.5, -z+.5'
  8	'x, y, z'
loop_
_atom_type_symbol
_atom_type_oxidation_number
Be2+	2
F1-	-1
Na1+	1
loop_
_atom_site_label
_atom_site_type_symbol
_atom_site_symmetry_multiplicity
_atom_site_Wyckoff_symbol
_atom_site_fract_x
_atom_site_fract_y
_atom_site_fract_z
_atom_site_occupancy
_atom_site_attached_hydrogens
_atom_site_B_iso_or_equiv
Na1 Na1+ 4 a 0 0 0 1. 0 1.56 
Na2 Na1+ 4 c 0.988(1) 0.2801(5) 0.25 1. 0 1.4 
Be1 Be2+ 4 c 0.4254(31) 0.0964(16) 0.25 1. 0 0.91 
F1 F1- 4 c 0.7415(15) 0.0934(7) 0.25 1. 0 1.48 
F2 F1- 4 c 0.1960(15) 0.4636(7) 0.25 1. 0 1.36 
F3 F1- 8 d 0.3057(10) 0.1613(6) 0.0596(8) 1. 0 1.42 

#End of data_12101-ICSD


