data_62509-ICSD
#?2014 by Fachinformationszentrum Karlsruhe, and the U.S. Secretary of 
#Commerce on behalf of the United States.  All rights reserved.
_database_code_ICSD                62509
_audit_creation_date               1988/02/22
_audit_update_record               2012/08/01
_chemical_name_systematic
;
Disodium Yttrium Molybdate Phosphate(V)
;
_chemical_formula_structural       'Na2 Y (Mo O4) (P O4)'
_chemical_formula_sum              'Mo1 Na2 O8 P1 Y1'
_publ_section_title
;
Structure du molybdophosphate d'yttrium et sodium Na2 Y (Mo O4) (P 
O4)
;
loop_
_citation_id
_citation_journal_abbrev
_citation_year
_citation_journal_volume
_citation_page_first
_citation_page_last
_citation_journal_id_ASTM
primary 'Acta Crystallographica, Section C: Crystal Structure Communications'
 1987 43 616 618 ACSCEE
2 'Acta Crystallographica, Section C: Crystal Structure Communications'
 1987 43 2470 2470 ACSCEE
_publ_author_name                  'Ben Amara, M.;Dabbabi, B.'
_cell_length_a                     13.928(11)
_cell_length_b                     18.015(10)
_cell_length_c                     6.847(6)
_cell_angle_alpha                  90.
_cell_angle_beta                   119.62(6)
_cell_angle_gamma                  90.
_cell_volume                       1493.5
_cell_formula_units_Z              8
_symmetry_space_group_name_H-M     'C 1 2/c 1'
_symmetry_Int_Tables_number        15
_refine_ls_R_factor_all            .041
loop_
_symmetry_equiv_pos_site_id
_symmetry_equiv_pos_as_xyz
  1	'x, -y, z+.5'
  2	'-x, -y, -z'
  3	'-x, y, -z+.5'
  4	'x, y, z'
  5	'x+.5, -y+.5, z+.5'
  6	'-x+.5, -y+.5, -z'
  7	'-x+.5, y+.5, -z+.5'
  8	'x+.5, y+.5, z'
loop_
_atom_type_symbol
_atom_type_oxidation_number
Mo6+	6
Na1+	1
O2-	-2
P5+	5
Y3+	3
loop_
_atom_site_label
_atom_site_type_symbol
_atom_site_symmetry_multiplicity
_atom_site_Wyckoff_symbol
_atom_site_fract_x
_atom_site_fract_y
_atom_site_fract_z
_atom_site_occupancy
_atom_site_attached_hydrogens
Na1 Na1+ 8 f 0.1875(4) 0.5974(2) 0.4522(7) 1. 0 
Na2 Na1+ 8 f 0.1877(4) 0.0974(3) 0.4232(7) 1. 0 
Y1 Y3+ 8 f 0.07186(4) 0.74995(4) 0.07188(8) 1. 0 
Mo1 Mo6+ 4 e 0 0.42833(5) 0.25 1. 0 
Mo2 Mo6+ 4 e 0 0.92823(5) 0.25 1. 0 
P1 P5+ 8 f 0.1811(1) 0.2500(1) 0.1815(2) 1. 0 
O1 O2- 8 f 0.0242(5) 0.3713(3) 0.4837(9) 1. 0 
O2 O2- 8 f 0.1177(6) 0.4815(5) 0.325(1) 1. 0 
O3 O2- 8 f 0.0236(4) 0.8721(3) 0.0639(9) 1. 0 
O4 O2- 8 f 0.1171(6) 0.9822(4) 0.410(1) 1. 0 
O5 O2- 8 f 0.2560(3) 0.1817(3) 0.2411(7) 1. 0 
O6 O2- 8 f 0.2568(4) 0.3186(3) 0.2722(7) 1. 0 
O7 O2- 8 f 0.1022(3) 0.2415(3) 0.2778(6) 1. 0 
O8 O2- 8 f 0.1019(3) 0.2583(3) 0.9270(6) 1. 0 

#End of data_62509-ICSD


