data_422875-ICSD
#?2014 by Fachinformationszentrum Karlsruhe, and the U.S. Secretary of 
#Commerce on behalf of the United States.  All rights reserved.
_database_code_ICSD                422875
_audit_creation_date               2012/02/01
_audit_update_record               2013/02/01
_chemical_name_systematic
;
Barium Antimony Aluminium Oxide (1.33/2.66/5.33/16)
;
_chemical_formula_structural       'Ba1.33 Sb2.66 Al5.33 O16'
_chemical_formula_sum              'Al5.33 Ba1.33 O16 Sb2.66'
_chemical_name_mineral             Hollandite
_publ_section_title
;
A new ordered triple hollandite : Ba1.33 Sb2.66 Al5.33 O16
;
loop_
_citation_id
_citation_journal_abbrev
_citation_year
_citation_journal_volume
_citation_journal_issue
_citation_page_first
_citation_page_last
_citation_journal_id_ASTM
primary 'Journal of Solid State Chemistry' 2011 184 9 2398 2404 JSSCBI
_publ_author_name
;
Letrouit, A.;Boudin, S.;Barrier, N.;Retoux, R.
;
_cell_length_a                     9.86090(5)
_cell_length_b                     9.86090(5)
_cell_length_c                     8.77612(6)
_cell_angle_alpha                  90.
_cell_angle_beta                   90.
_cell_angle_gamma                  90.
_cell_volume                       853.37
_cell_formula_units_Z              3
_symmetry_space_group_name_H-M     'I 4/m'
_symmetry_Int_Tables_number        87
_refine_ls_R_factor_all            .116
loop_
_symmetry_equiv_pos_site_id
_symmetry_equiv_pos_as_xyz
  1	'-y, x, -z'
  2	'y, -x, -z'
  3	'x, y, -z'
  4	'-x, -y, -z'
  5	'y, -x, z'
  6	'-y, x, z'
  7	'-x, -y, z'
  8	'x, y, z'
  9	'-y+.5, x+.5, -z+.5'
 10	'y+.5, -x+.5, -z+.5'
 11	'x+.5, y+.5, -z+.5'
 12	'-x+.5, -y+.5, -z+.5'
 13	'y+.5, -x+.5, z+.5'
 14	'-y+.5, x+.5, z+.5'
 15	'-x+.5, -y+.5, z+.5'
 16	'x+.5, y+.5, z+.5'
loop_
_atom_type_symbol
_atom_type_oxidation_number
Al3+	3
Ba2+	2
O2-	-2
Sb5+	5
loop_
_atom_site_label
_atom_site_type_symbol
_atom_site_symmetry_multiplicity
_atom_site_Wyckoff_symbol
_atom_site_fract_x
_atom_site_fract_y
_atom_site_fract_z
_atom_site_occupancy
_atom_site_attached_hydrogens
_atom_site_B_iso_or_equiv
Sb1 Sb5+ 8 h 0.3509(2) 0.1640(2) 0.0000 1. 0 0.10(3) 
Ba1 Ba2+ 4 e 0.0000 0.0000 0.2114(3) 1. 0 1.31(6) 
Al1 Al3+ 16 i 0.3488(6) 0.1649(6) 0.3350(5) 1. 0 0.50 
O1 O2- 8 h 0.152(2) 0.205(1) 0.0000 1. 0 1.0 
O2 O2- 16 i 0.156(1) 0.197(1) 0.330(1) 1. 0 1.0 
O3 O2- 8 h 0.550(1) 0.164(1) 0.0000 1. 0 1.0 
O4 O2- 16 i 0.536(1) 0.1677(9) 0.330(1) 1. 0 1.0 

#End of data_422875-ICSD


