data_421739-ICSD
#?2014 by Fachinformationszentrum Karlsruhe, and the U.S. Secretary of 
#Commerce on behalf of the United States.  All rights reserved.
_database_code_ICSD                421739
_audit_creation_date               2011/02/01
_chemical_name_systematic
;
Rubidium Magnesium Phosphate(V) - Alpha
;
_chemical_formula_structural       'Rb Mg P O4'
_chemical_formula_sum              'Mg1 O4 P1 Rb1'
_publ_section_title
;
Polymorphism of new rubidium magnesium monophosphate
;
loop_
_citation_id
_citation_journal_abbrev
_citation_year
_citation_journal_volume
_citation_journal_issue
_citation_page_first
_citation_page_last
_citation_journal_id_ASTM
primary 'Journal of Solid State Chemistry' 2010 183 9 2082 2086 JSSCBI
_publ_author_name
;
Benhamou, R.A.;Wallez, G.;Loiseau, P.;Viana, B.;Elaatmani, M.;Daoud, 
M.;Zegzouti, A.
;
_cell_length_a                     26.535(1)
_cell_length_b                     9.2926(3)
_cell_length_c                     5.3368(2)
_cell_angle_alpha                  90
_cell_angle_beta                   90
_cell_angle_gamma                  90
_cell_volume                       1315.94
_cell_formula_units_Z              12
_symmetry_space_group_name_H-M     'P n a 21'
_symmetry_Int_Tables_number        33
_refine_ls_R_factor_all            .044
loop_
_symmetry_equiv_pos_site_id
_symmetry_equiv_pos_as_xyz
  1	'x+.5, -y+.5, z'
  2	'-x+.5, y+.5, z+.5'
  3	'-x, -y, z+.5'
  4	'x, y, z'
loop_
_atom_type_symbol
_atom_type_oxidation_number
Mg2+	2
O2-	-2
P5+	5
Rb1+	1
loop_
_atom_site_label
_atom_site_type_symbol
_atom_site_symmetry_multiplicity
_atom_site_Wyckoff_symbol
_atom_site_fract_x
_atom_site_fract_y
_atom_site_fract_z
_atom_site_occupancy
_atom_site_attached_hydrogens
_atom_site_U_iso_or_equiv
Rb1 Rb1+ 4 a -0.00012(12) 0.2982(2) 0.25000 1.00000 0 0.0190(6) 
Rb2 Rb1+ 4 a 0.16533(11) 0.1903(4) 0.2420(7) 1.00000 0 0.0236(8) 
Rb3 Rb1+ 4 a 0.17298(9) 0.8086(4) 0.7115(6) 1.00000 0 0.0247(10) 
P1 P5+ 4 a 0.09156(16) 0.3988(5) 0.7366(10) 1.00000 0 0.0104(7) 
P2 P5+ 4 a 0.27256(16) 0.0892(5) 0.7292(10) 1.00000 0 0.0104(7) 
P3 P5+ 4 a 0.06894(17) 0.9250(5) 0.2162(9) 1.00000 0 0.0104(7) 
Mg1 Mg2+ 4 a 0.10171(20) 0.5880(6) 0.2317(13) 1.00000 0 0.0124(10) 
Mg2 Mg2+ 4 a 0.28190(20) -0.0962(6) 0.2417(13) 1.00000 0 0.0124(10) 
Mg3 Mg2+ 4 a 0.0517(3) 0.0608(7) 0.7661(16) 1.00000 0 0.0124(10) 
O1 O2- 4 a 0.0613(4) 0.2636(9) 0.802(2) 1.00000 0 0.0096(8) 
O2 O2- 4 a 0.2459(5) 0.2198(9) 0.8508(19) 1.00000 0 0.0096(8) 
O3 O2- 4 a 0.0671(4) 0.7663(7) 0.298(2) 1.00000 0 0.0096(8) 
O4 O2- 4 a 0.1475(2) 0.3745(15) 0.798(2) 1.00000 0 0.0096(8) 
O5 O2- 4 a 0.3276(2) 0.1260(12) 0.760(3) 1.00000 0 0.0096(8) 
O6 O2- 4 a 0.0171(3) 0.9734(12) 0.113(2) 1.00000 0 0.0096(8) 
O7 O2- 4 a 0.0729(5) 0.5141(13) 0.9286(17) 1.00000 0 0.0096(8) 
O8 O2- 4 a 0.2629(5) -0.0374(11) 0.9145(16) 1.00000 0 0.0096(8) 
O9 O2- 4 a 0.0868(5) 1.0127(15) 0.4487(19) 1.00000 0 0.0096(8) 
O10 O2- 4 a 0.0796(5) 0.4409(13) 0.4667(15) 1.00000 0 0.0096(8) 
O11 O2- 4 a 0.2555(5) 0.0518(12) 0.4657(15) 1.00000 0 0.0096(8) 
O12 O2- 4 a 0.1039(4) 0.9640(15) 0.9947(19) 1.00000 0 0.0096(8) 

#End of data_421739-ICSD


