data_41551-ICSD
#?2014 by Fachinformationszentrum Karlsruhe, and the U.S. Secretary of 
#Commerce on behalf of the United States.  All rights reserved.
_database_code_ICSD                41551
_audit_creation_date               1999/11/30
_chemical_name_systematic
;
Dipotassium Pentachlorouranate(III)
;
_chemical_formula_structural       'K2 (U Cl5)'
_chemical_formula_sum              'Cl5 K2 U1'
_publ_section_title
;
Magnetic phase transitions and crystal field splitting in K2 U X5 
(X=Cl, Br, I)
;
loop_
_citation_id
_citation_journal_abbrev
_citation_year
_citation_journal_volume
_citation_page_first
_citation_page_last
_citation_journal_id_ASTM
primary 'Physical Review, Serie 3. B - Condensed Matter (18,1978-)'
 1995 51 2881 2890 PRBMDO
_publ_author_name
;
Keller, L.;Furrer, A.;Fischer, P.;Allenspach, P.;Kramer, K.;Guedel, 
H.U.;Doenni, A.;Suzuki, T.
;
_cell_length_a                     12.6156(7)
_cell_length_b                     8.7636(5)
_cell_length_c                     7.9365(4)
_cell_angle_alpha                  90.
_cell_angle_beta                   90.
_cell_angle_gamma                  90.
_cell_volume                       877.44
_cell_formula_units_Z              4
_symmetry_space_group_name_H-M     'P n m a'
_symmetry_Int_Tables_number        62
loop_
_symmetry_equiv_pos_site_id
_symmetry_equiv_pos_as_xyz
  1	'x+.5, y, -z+.5'
  2	'x, -y+.5, z'
  3	'-x+.5, y+.5, z+.5'
  4	'-x, -y, -z'
  5	'-x+.5, -y, z+.5'
  6	'-x, y+.5, -z'
  7	'x+.5, -y+.5, -z+.5'
  8	'x, y, z'
loop_
_atom_type_symbol
_atom_type_oxidation_number
Cl1-	-1
K1+	1
U3+	3
loop_
_atom_site_label
_atom_site_type_symbol
_atom_site_symmetry_multiplicity
_atom_site_Wyckoff_symbol
_atom_site_fract_x
_atom_site_fract_y
_atom_site_fract_z
_atom_site_occupancy
_atom_site_attached_hydrogens
U1 U3+ 4 c 0.5064(4) 0.25 0.0780(6) 1. 0 
K1 K1+ 8 d 0.6715(6) 0.496(1) 0.5574(9) 1. 0 
Cl1 Cl1- 4 c 0.9948(4) 0.75 0.9328(5) 1. 0 
Cl2 Cl1- 4 c 0.7906(3) 0.25 0.3280(6) 1. 0 
Cl3 Cl1- 4 c 0.6809(3) 0.25 0.8652(5) 1. 0 
Cl4 Cl1- 8 d 0.5815(2) 0.5442(3) 0.1682(4) 1. 0 

#End of data_41551-ICSD


