data_61388-ICSD
#?2014 by Fachinformationszentrum Karlsruhe, and the U.S. Secretary of 
#Commerce on behalf of the United States.  All rights reserved.
_database_code_ICSD                61388
_audit_creation_date               1988/02/22
_audit_update_record               2006/04/01
_chemical_name_systematic          'Potassium Diantimonophosphate(V)'
_chemical_formula_structural       'K (Sb2 P O8)'
_chemical_formula_sum              'K1 O8 P1 Sb2'
_publ_section_title                'Crystal structure of K Sb2 P O8'
loop_
_citation_id
_citation_journal_abbrev
_citation_year
_citation_journal_volume
_citation_page_first
_citation_page_last
_citation_journal_id_ASTM
primary 'Materials Research Bulletin' 1985 20 715 721 MRBUAC
_publ_author_name
;
Piffard, Y.;Lachgar, A.;Tournoux, M.
;
_cell_length_a                     12.306(4)
_cell_length_b                     7.086(2)
_cell_length_c                     15.037(5)
_cell_angle_alpha                  90.
_cell_angle_beta                   95.82(3)
_cell_angle_gamma                  90.
_cell_volume                       1304.47
_cell_formula_units_Z              8
_symmetry_space_group_name_H-M     'C 1 c 1'
_symmetry_Int_Tables_number        9
_refine_ls_R_factor_all            .019
loop_
_symmetry_equiv_pos_site_id
_symmetry_equiv_pos_as_xyz
  1	'x, -y, z+.5'
  2	'x, y, z'
  3	'x+.5, -y+.5, z+.5'
  4	'x+.5, y+.5, z'
loop_
_atom_type_symbol
_atom_type_oxidation_number
K1+	1
O2-	-2
P5+	5
Sb5+	5
loop_
_atom_site_label
_atom_site_type_symbol
_atom_site_symmetry_multiplicity
_atom_site_Wyckoff_symbol
_atom_site_fract_x
_atom_site_fract_y
_atom_site_fract_z
_atom_site_occupancy
_atom_site_attached_hydrogens
_atom_site_B_iso_or_equiv
Sb1 Sb5+ 4 a 0.749 0.87273(5) 0.753 1. 0 0 
Sb2 Sb5+ 4 a 0.25167(2) 0.12720(5) 0.24644(2) 1. 0 0 
Sb3 Sb5+ 4 a 0.67720(2) 0.86870(4) 0.43640(2) 1. 0 0 
Sb4 Sb5+ 4 a 0.32329(2) 0.13104(4) 0.56269(2) 1. 0 0 
K1 K1+ 4 a 0.4695(2) 0.6199(3) 0.6113(1) 1. 0 0 
K2 K1+ 4 a 0.5285(1) 0.3788(2) 0.3821(1) 1. 0 0 
P1 P5+ 4 a 0.3985(1) 0.8856(2) 0.39354(9) 1. 0 0.36(2) 
P2 P5+ 4 a 0.6004(1) 0.1112(2) 0.60605(9) 1. 0 0.39(2) 
O1 O2- 4 a 0.3129(3) 0.6213(5) 0.7475(3) 1. 0 0.42(4) 
O2 O2- 4 a 0.6816(3) 0.3776(5) 0.2422(3) 1. 0 0.49(4) 
O3 O2- 4 a 0.3392(3) 0.9284(6) 0.6467(3) 1. 0 0.68(5) 
O4 O2- 4 a 0.6726(3) 0.0828(5) 0.3559(3) 1. 0 0.36(4) 
O5 O2- 4 a 0.6681(3) 0.6763(5) 0.5305(3) 1. 0 0.58(5) 
O6 O2- 4 a 0.3345(3) 0.3412(5) 0.4735(2) 1. 0 0.29(4) 
O7 O2- 4 a 0.6581(4) 0.6880(6) 0.3379(3) 1. 0 0.94(6) 
O8 O2- 4 a 0.3350(3) 0.3238(5) 0.6543(2) 1. 0 0.20(4) 
O9 O2- 4 a 0.6139(3) 0.9449(5) 0.6697(3) 1. 0 0.33(4) 
O10 O2- 4 a 0.3907(4) 0.0459(6) 0.3217(3) 1. 0 0.85(5) 
O11 O2- 4 a 0.3276(3) 0.9161(6) 0.4692(3) 1. 0 0.71(5) 
O12 O2- 4 a 0.6777(3) 0.0738(5) 0.5324(3) 1. 0 0.46(5) 
O13 O2- 4 a 0.9849(3) 0.6203(5) 0.5618(3) 1. 0 0.52(5) 
O14 O2- 4 a 0.0154(3) 0.3553(5) 0.4371(3) 1. 0 0.55(5) 
O15 O2- 4 a 0.3772(3) 0.7034(5) 0.3405(3) 1. 0 0.47(5) 
O16 O2- 4 a 0.6329(3) 0.3058(5) 0.6489(3) 1. 0 0.44(5) 

#End of data_61388-ICSD


