data_65005-ICSD
#?2014 by Fachinformationszentrum Karlsruhe, and the U.S. Secretary of 
#Commerce on behalf of the United States.  All rights reserved.
_database_code_ICSD                65005
_audit_creation_date               1989/06/19
_audit_update_record               2006/04/01
_chemical_name_systematic          'Potassium Lithium Chromate'
_chemical_formula_structural       'K Li (Cr O4)'
_chemical_formula_sum              'Cr1 K1 Li1 O4'
_publ_section_title
;
K Li Cr O4: Synthesis, crystal structure, and phase transitions
;
loop_
_citation_id
_citation_journal_abbrev
_citation_year
_citation_journal_volume
_citation_journal_issue
_citation_page_first
_citation_page_last
_citation_journal_id_ASTM
primary Kristallografiya 1988 33- 630 635 KRISAJ
2 'Soviet Physics, Crystallography (= Kristallografiya)'
 1988 33 3 371 375 SPHCA6
3 'Golden Book of Phase Transitions, Wroclaw' 2002 1- 1 123 GBOPT5
_publ_author_name
;
Klevtsova, R.F.;Glinskaya, L.A.;Klevtsov, P.V.;Perepelitsa, 
A.P.;Ishchenko, V.N.;Kruglik, A.I.;Aleksandrov, K.S.
;
_cell_length_a                     5.186(2)
_cell_length_b                     8.345(4)
_cell_length_c                     19.417(17)
_cell_angle_alpha                  90.
_cell_angle_beta                   90.
_cell_angle_gamma                  90.
_cell_volume                       840.31
_cell_formula_units_Z              8
_symmetry_space_group_name_H-M     'P 21 n b'
_symmetry_Int_Tables_number        33
_refine_ls_R_factor_all            .086
loop_
_symmetry_equiv_pos_site_id
_symmetry_equiv_pos_as_xyz
  1	'x, y+.5, -z+.5'
  2	'x+.5, -y+.5, z+.5'
  3	'x+.5, -y, -z'
  4	'x, y, z'
loop_
_atom_type_symbol
_atom_type_oxidation_number
Cr6+	6
K1+	1
Li1+	1
O2-	-2
loop_
_atom_site_label
_atom_site_type_symbol
_atom_site_symmetry_multiplicity
_atom_site_Wyckoff_symbol
_atom_site_fract_x
_atom_site_fract_y
_atom_site_fract_z
_atom_site_occupancy
_atom_site_attached_hydrogens
_atom_site_B_iso_or_equiv
Cr1 Cr6+ 4 a 0.25 0.2046(1) 0.1773 1. 0 1.07 
Cr2 Cr6+ 4 a 0.7532(3) 0.2180(1) 0.4275 1. 0 1.12 
K1 K1+ 4 a 0.7627(5) 0.6776(2) 0.4485(1) 1. 0 1.94 
K2 K1+ 4 a 0.7907(4) 0.4815(2) 0.2343(1) 1. 0 1.91 
Li1 Li1+ 4 a 0.250(4) 0.3102(11) 0.3458(5) 1. 0 1.68 
Li2 Li1+ 4 a 0.247(3) -.0034(11) 0.4427(5) 1. 0 1.52 
O1 O2- 4 a 0.5642(10) 0.2040(8) 0.1792(3) 1. 0 2.53 
O2 O2- 4 a 0.1407(12) 0.3473(5) 0.1256(2) 1. 0 1.98 
O3 O2- 4 a 0.1368(10) 0.2354(6) 0.2563(2) 1. 0 1.66 
O4 O2- 4 a 0.1364(11) 0.0305(5) 0.1505(3) 1. 0 1.92 
O5 O2- 4 a 0.0694(9) 0.1923(5) 0.4178(2) 1. 0 1.4 
O6 O2- 4 a 0.6155(10) 0.0536(5) 0.4614(2) 1. 0 1.59 
O7 O2- 4 a 0.7052(13) 0.3665(6) 0.4807(3) 1. 0 2.87 
O8 O2- 4 a 0.6193(11) 0.2569(7) 0.3528(2) 1. 0 2.32 

#End of data_65005-ICSD


