data_150399-ICSD
#?2014 by Fachinformationszentrum Karlsruhe, and the U.S. Secretary of 
#Commerce on behalf of the United States.  All rights reserved.
_database_code_ICSD                150399
_audit_creation_date               2006/04/01
_chemical_name_systematic          'Bismuth Magnesium Vanadate'
_chemical_formula_structural       'Bi Mg (V O5)'
_chemical_formula_sum              'Bi1 Mg1 O5 V1'
_publ_section_title
;
Synthesis, crystal structure and optical properties of Bi Mg V O5
;
loop_
_citation_id
_citation_journal_abbrev
_citation_year
_citation_journal_volume
_citation_page_first
_citation_page_last
_citation_journal_id_ASTM
primary 'Journal of Solid State Chemistry' 2004 177 4175 4182 JSSCBI
_publ_author_name
;
Benmokhtar, S.;El Jazouli, A.;Chaminade, J.P.;Gravereau, P.;Guillen, 
F.;de Waal, D.
;
_cell_length_a                     7.542(6)
_cell_length_b                     11.615(5)
_cell_length_c                     5.305(3)
_cell_angle_alpha                  90.
_cell_angle_beta                   107.38(5)
_cell_angle_gamma                  90.
_cell_volume                       443.5
_cell_formula_units_Z              4
_symmetry_space_group_name_H-M     'P 1 21/n 1'
_symmetry_Int_Tables_number        14
_refine_ls_R_factor_all            .0255
loop_
_symmetry_equiv_pos_site_id
_symmetry_equiv_pos_as_xyz
  1	'-x+.5, y+.5, -z+.5'
  2	'-x, -y, -z'
  3	'x+.5, -y+.5, z+.5'
  4	'x, y, z'
loop_
_atom_type_symbol
_atom_type_oxidation_number
Bi3+	3
Mg2+	2
O2-	-2
V5+	5
loop_
_atom_site_label
_atom_site_type_symbol
_atom_site_symmetry_multiplicity
_atom_site_Wyckoff_symbol
_atom_site_fract_x
_atom_site_fract_y
_atom_site_fract_z
_atom_site_occupancy
_atom_site_attached_hydrogens
_atom_site_U_iso_or_equiv
Bi1 Bi3+ 4 e 0.18168(3) 0.09245(2) 0.11105(4) 1. 0 0.0072(2) 
Mg1 Mg2+ 4 e 0.8224(3) 0.0808(2) 0.3751(4) 1. 0 0.0086(4) 
V1 V5+ 4 e 0.0249(2) 0.3506(1) 0.2176(2) 1. 0 0.0059(2) 
O1 O2- 4 e 0.3244(6) 0.9308(4) 0.0301(8) 1. 0 0.0105(8) 
O2 O2- 4 e -0.0163(6) 0.2161(4) 0.3174(8) 1. 0 0.0133(8) 
O3 O2- 4 e 0.8247(7) 0.4266(4) 0.0857(8) 1. 0 0.0133(9) 
O4 O2- 4 e 0.4822(5) 0.4742(4) 0.2472(7) 1. 0 0.0075(8) 
O5 O2- 4 e 0.6256(6) 0.1730(4) 0.4788(8) 1. 0 0.0138(9) 

loop_
_atom_site_aniso_label
_atom_site_aniso_type_symbol
_atom_site_aniso_U_11
_atom_site_aniso_U_22
_atom_site_aniso_U_33
_atom_site_aniso_U_12
_atom_site_aniso_U_13
_atom_site_aniso_U_23
Bi1 Bi3+ 0.0081(2) 0.0063(2) 0.0080(2) -0.0008(1) 0.0036(1) 0.0003(1)
Mg1 Mg2+ 0.0103(10) 0.0084(10) 0.0087(9) -0.0008(8) 0.0050(8) -0.0005(77)
V1 V5+ 0.0064(4) 0.0051(4) 0.0071(4) 0.0000(4) 0.0034(3) -0.0004(4)
O1 O2- 0.0136(20) 0.0108(18) 0.0085(17) 0.0000(20) 0.0053(15) -0.0018(15)
O2 O2- 0.0128(19) 0.0120(19) 0.0169(19) 0.0012(20) 0.0071(16) 0.0000(17)
O3 O2- 0.0138(21) 0.0132(19) 0.0118(18) 0.0014(20) 0.0022(16) -0.0048(16)
O4 O2- 0.0092(18) 0.0078(18) 0.0068(15) 0.0009(17) 0.0042(14) 0.0013(14)
O5 O2- 0.0190(22) 0.0117(20) 0.0161(19) 0.0007(20) 0.0137(17) -0.0012(16)
#End of data_150399-ICSD


