data_33719-ICSD
#?2014 by Fachinformationszentrum Karlsruhe, and the U.S. Secretary of 
#Commerce on behalf of the United States.  All rights reserved.
_database_code_ICSD                33719
_audit_creation_date               1991/07/10
_audit_update_record               2006/04/01
_chemical_name_systematic          'Trisodium Phosphate(V) - T'
_chemical_formula_structural       'Na3 (P O4)'
_chemical_formula_sum              'Na3 O4 P1'
_publ_section_title
;
Bestimmung der Kristallstruktur von T-Na3 P O4 mit Roentgenund 
Neutronenpulvertechniken
;
loop_
_citation_id
_citation_journal_abbrev
_citation_year
_citation_journal_volume
_citation_page_first
_citation_page_last
_citation_journal_id_ASTM
primary 'Zeitschrift fuer Kristallographie (1979-2010)' 1990 192 233 243 ZEKRDZ
2 'Golden Book of Phase Transitions, Wroclaw' 2002 1 1 123 GBOPT5
_publ_author_name
;
Lissel, E.;Jansen, M.;Jansen, E.;Will, G.
;
_cell_length_a                     10.81(1)
_cell_length_b                     10.81(1)
_cell_length_c                     6.81(1)
_cell_angle_alpha                  90.
_cell_angle_beta                   90.
_cell_angle_gamma                  90.
_cell_volume                       795.79
_cell_formula_units_Z              8
_symmetry_space_group_name_H-M     'P -4 21 c'
_symmetry_Int_Tables_number        114
_refine_ls_R_factor_all            .08
loop_
_symmetry_equiv_pos_site_id
_symmetry_equiv_pos_as_xyz
  1	'y+.5, x+.5, z+.5'
  2	'y, -x, -z'
  3	'-y+.5, -x+.5, z+.5'
  4	'-y, x, -z'
  5	'x+.5, -y+.5, -z+.5'
  6	'-x, -y, z'
  7	'-x+.5, y+.5, -z+.5'
  8	'x, y, z'
loop_
_atom_type_symbol
_atom_type_oxidation_number
Na1+	1
O2-	-2
P5+	5
loop_
_atom_site_label
_atom_site_type_symbol
_atom_site_symmetry_multiplicity
_atom_site_Wyckoff_symbol
_atom_site_fract_x
_atom_site_fract_y
_atom_site_fract_z
_atom_site_occupancy
_atom_site_attached_hydrogens
_atom_site_U_iso_or_equiv
P1 P5+ 8 e 0.264(1) -.014(1) 0.230(1) 1. 0 0.016(2) 
O1 O2- 8 e 0.165(1) -.082(1) 0.356(1) 1. 0 0.018(1) 
O2 O2- 8 e 0.374(1) -.104(1) 0.207(1) 1. 0 0.018(1) 
O3 O2- 8 e 0.210(1) 0.017(1) 0.024(1) 1. 0 0.018(1) 
O4 O2- 8 e 0.305(1) 0.105(1) 0.333(1) 1. 0 0.018(1) 
Na1 Na1+ 8 e 0.260(1) 0.036(1) 0.689(2) 1. 0 0.010(2) 
Na2 Na1+ 8 e 0.216(1) 0.243(1) 0.036(2) 1. 0 0.010(2) 
Na3 Na1+ 2 a 0 0 0 1. 0 0.010(2) 
Na4 Na1+ 2 b 0 0 0.5 1. 0 0.010(2) 
Na5 Na1+ 4 d 0 0.5 0.039(3) 1. 0 0.010(2) 

#End of data_33719-ICSD


