data_109172-ICSD
#?2014 by Fachinformationszentrum Karlsruhe, and the U.S. Secretary of 
#Commerce on behalf of the United States.  All rights reserved.
_database_code_ICSD                109172
_audit_creation_date               2007/04/01
_chemical_name_systematic          'Holmium Lithium Oxide'
_chemical_formula_structural       'Ho Li O2'
_chemical_formula_sum              'Ho1 Li1 O2'
_publ_section_title
;
Etude des combinaisons d'oxydes de terres rares et de lithium du type 
T Li O2
;
loop_
_citation_id
_citation_journal_abbrev
_citation_year
_citation_journal_volume
_citation_page_first
_citation_page_last
_citation_journal_id_ASTM
primary
;
Comptes Rendus Hebdomadaires des Seances de l`Academie des Sciences 
(1884 - 1965)
;
 1962 255 1135 1137 COREAF
_publ_author_name                  'Bertaut, E.F.;Gondrand, M.'
_cell_length_a                     6.14
_cell_length_b                     6.19
_cell_length_c                     6.23
_cell_angle_alpha                  90.
_cell_angle_beta                   119.03
_cell_angle_gamma                  90.
_cell_volume                       207.03
_cell_formula_units_Z              4
_symmetry_space_group_name_H-M     'P 1 21/c 1'
_symmetry_Int_Tables_number        14
loop_
_symmetry_equiv_pos_site_id
_symmetry_equiv_pos_as_xyz
  1	'x, -y+.5, z+.5'
  2	'-x, -y, -z'
  3	'-x, y+.5, -z+.5'
  4	'x, y, z'
loop_
_atom_type_symbol
_atom_type_oxidation_number
Ho3+	3
Li1+	1
O2-	-2
loop_
_atom_site_label
_atom_site_type_symbol
_atom_site_symmetry_multiplicity
_atom_site_Wyckoff_symbol
_atom_site_fract_x
_atom_site_fract_y
_atom_site_fract_z
_atom_site_occupancy
_atom_site_attached_hydrogens
Li1 Li1+ 4 e 0.25 0.625 0 1. 0 
Ho1 Ho3+ 4 e 0.25 0.125 0 1. 0 
O1 O2- 4 e 0 0.15 0.2 1. 0 
O2 O2- 4 e 0.45 0.1 0.75 1. 0 

#End of data_109172-ICSD


