data_188337-ICSD
#?2014 by Fachinformationszentrum Karlsruhe, and the U.S. Secretary of 
#Commerce on behalf of the United States.  All rights reserved.
_database_code_ICSD                188337
_audit_creation_date               2014/02/01
_chemical_name_systematic
;
Silver Lead Antimony Sulfide (4/4/12/24)
;
_chemical_formula_structural       'Ag4 Pb4 Sb12 S24'
_chemical_formula_sum              'Ag4 Pb4 S24 Sb12'
_chemical_name_mineral             Quatrandorite
_publ_section_title
;
Structural relations and pseudosymmetries in the andorite homologous 
series
;
loop_
_citation_id
_citation_journal_abbrev
_citation_year
_citation_journal_volume
_citation_journal_issue
_citation_page_first
_citation_page_last
_citation_journal_id_ASTM
primary 'Journal of Mineralogical and Petrological Sciences'
 2012 107 6 226 243 JMPSCA
_publ_author_name
;
Nespolo, Massimo;Ozawa, Tohrtl;Kawasaki, Yusuke;Sugiyama, Kazumasa
;
_cell_length_a                     19.1686(19)
_cell_length_b                     17.160(3)
_cell_length_c                     13.042(2)
_cell_angle_alpha                  90.
_cell_angle_beta                   90.008(12)
_cell_angle_gamma                  90.
_cell_volume                       4289.95
_cell_formula_units_Z              4
_symmetry_space_group_name_H-M     'P 1 21/c 1'
_symmetry_Int_Tables_number        14
_refine_ls_R_factor_all            .0566
loop_
_symmetry_equiv_pos_site_id
_symmetry_equiv_pos_as_xyz
  1	'x, -y+.5, z+.5'
  2	'-x, -y, -z'
  3	'-x, y+.5, -z+.5'
  4	'x, y, z'
loop_
_atom_type_symbol
_atom_type_oxidation_number
Ag1+	1
Pb2+	2
S2-	-2
Sb3+	3
loop_
_atom_site_label
_atom_site_type_symbol
_atom_site_symmetry_multiplicity
_atom_site_Wyckoff_symbol
_atom_site_fract_x
_atom_site_fract_y
_atom_site_fract_z
_atom_site_occupancy
_atom_site_attached_hydrogens
_atom_site_U_iso_or_equiv
Pb1 Pb2+ 4 e 0.24276(4) 0.82487(4) 0.57335(6) 1. 0 0.0237(2) 
Pb2 Pb2+ 4 e 0.25023(4) 0.30831(5) 0.60330(7) 1. 0 0.0320(3) 
Pb3 Pb2+ 4 e 0.25544(4) 0.06872(5) 0.58827(6) 1. 0 0.0282(2) 
Pb4 Pb2+ 4 e 0.24888(4) 0.93783(5) 0.08883(7) 1. 0 0.0324(3) 
Sb1 Sb3+ 4 e 0.12058(6) 0.68987(6) 0.34641(9) 1. 0 0.0163(3) 
Sb2 Sb3+ 4 e 0.95572(6) 0.30075(6) 0.38704(9) 1. 0 0.0168(3) 
Sb3 Sb3+ 4 e 0.44664(6) 0.81586(6) 0.12447(9) 1. 0 0.0164(3) 
Sb4 Sb3+ 4 e 0.44792(6) 0.18462(7) 0.62519(9) 1. 0 0.0168(3) 
Sb5 Sb3+ 4 e 0.05798(6) 0.32777(6) 0.13344(9) 1. 0 0.0151(3) 
Sb6 Sb3+ 4 e 0.36327(6) 0.19028(6) 0.37208(9) 1. 0 0.0175(3) 
Sb7 Sb3+ 4 e 0.14971(6) 0.06736(6) 0.87612(9) 1. 0 0.0181(3) 
Sb8 Sb3+ 4 e 0.06031(6) 0.06498(7) 0.12385(9) 1. 0 0.0161(3) 
Sb9 Sb3+ 4 e 0.37354(6) 0.93441(7) 0.35266(9) 1. 0 0.0179(3) 
Sb10 Sb3+ 4 e 0.44131(6) 0.92330(7) 0.63262(10) 1. 0 0.0205(4) 
Sb11 Sb3+ 4 e 0.04508(6) 0.56303(6) 0.11976(9) 1. 0 0.0161(3) 
Sb12 Sb3+ 4 e 0.54567(7) 0.94662(7) 0.88204(10) 1. 0 0.0221(4) 
Ag1 Ag1+ 4 e 0.35709(8) 0.81311(9) 0.84948(12) 1. 0 0.0308(5) 
Ag2 Ag1+ 4 e 0.14280(10) 0.17732(12) 0.33615(18) 1. 0 0.0618(8) 
Ag3 Ag1+ 4 e 0.35640(11) 0.05251(12) 0.82640(17) 1. 0 0.0563(7) 
Ag4 Ag1+ 4 e 0.13216(11) 0.93297(11) 0.33294(15) 1. 0 0.0484(6) 
S1 S2- 4 e 0.3995(2) 0.7024(2) 0.0244(4) 1. 0 0.0209(13) 
S2 S2- 4 e 0.0159(2) 0.1999(2) 0.2932(3) 1. 0 0.0173(12) 
S3 S2- 4 e 0.1061(2) 0.1692(2) 0.0071(3) 1. 0 0.0175(12) 
S4 S2- 4 e 0.1548(2) 0.7929(2) 0.2177(3) 1. 0 0.0178(13) 
S5 S2- 4 e 0.0940(2) 0.6488(2) 0.9912(3) 1. 0 0.0188(13) 
S6 S2- 4 e 0.4958(2) 0.8360(2) 0.7653(4) 1. 0 0.0228(14) 
S7 S2- 4 e 0.1713(2) 0.3129(3) 0.2192(4) 1. 0 0.0215(13) 
S8 S2- 4 e 0.2336(2) 0.6901(3) 0.4355(3) 1. 0 0.0225(14) 
S9 S2- 4 e 0.4083(2) 0.2882(2) 0.5053(4) 1. 0 0.0215(14) 
S10 S2- 4 e 0.3415(2) 0.1853(3) 0.7276(4) 1. 0 0.0216(13) 
S11 S2- 4 e 0.2441(2) 0.1953(3) 0.4507(4) 1. 0 0.0216(13) 
S12 S2- 4 e 0.3405(2) 0.8225(3) 0.2387(3) 1. 0 0.0212(13) 
S13 S2- 4 e 0.0973(2) 0.9624(2) 0.0033(3) 1. 0 0.0174(13) 
S14 S2- 4 e 0.0031(2) 0.4087(2) 0.2728(4) 1. 0 0.0185(13) 
S15 S2- 4 e 0.3440(2) 0.0403(3) 0.2272(4) 1. 0 0.0202(13) 
S16 S2- 4 e 0.0977(2) 0.4419(2) 0.0280(3) 1. 0 0.0175(13) 
S17 S2- 4 e 0.1527(2) 0.5768(2) 0.2330(3) 1. 0 0.0168(13) 
S18 S2- 4 e 0.4824(3) 0.0421(3) 0.7810(4) 1. 0 0.0257(15) 
S19 S2- 4 e 0.2582(2) 0.9446(2) 0.4278(3) 1. 0 0.0191(13) 
S20 S2- 4 e 0.4010(3) 0.9114(3) 0.0031(4) 1. 0 0.0231(14) 
S21 S2- 4 e 0.4033(2) 0.0815(2) 0.5084(4) 1. 0 0.0207(14) 
S22 S2- 4 e 0.1637(2) 0.0536(2) 0.2278(3) 1. 0 0.0186(13) 
S23 S2- 4 e 0.2679(3) 0.0633(3) 0.9577(4) 1. 0 0.0267(15) 
S24 S2- 4 e 0.3285(2) 0.9297(3) 0.7144(4) 1. 0 0.0213(14) 

loop_
_atom_site_aniso_label
_atom_site_aniso_type_symbol
_atom_site_aniso_U_11
_atom_site_aniso_U_22
_atom_site_aniso_U_33
_atom_site_aniso_U_12
_atom_site_aniso_U_13
_atom_site_aniso_U_23
Pb1 Pb2+ 0.0287(4) 0.0199(4) 0.0225(4) -0.0009(3) 0.0049(3) 0.0008(3)
Pb2 Pb2+ 0.0301(5) 0.0318(4) 0.0341(5) -0.0072(4) -0.0008(4) -0.0010(4)
Pb3 Pb2+ 0.0290(4) 0.0265(4) 0.0291(4) -0.0009(3) 0.0003(3) 0.0024(3)
Pb4 Pb2+ 0.0359(5) 0.0293(4) 0.0319(5) -0.0091(4) -0.0043(4) 0.0065(3)
Sb1 Sb3+ 0.0198(6) 0.0159(5) 0.0133(6) 0.0006(5) 0.0018(5) -0.0001(5)
Sb2 Sb3+ 0.0175(6) 0.0152(5) 0.0176(6) 0.0011(5) 0.0051(5) -0.0021(5)
Sb3 Sb3+ 0.0150(6) 0.0151(5) 0.0191(6) 0.0015(5) 0.0002(5) -0.0012(5)
Sb4 Sb3+ 0.0120(6) 0.0184(5) 0.0200(6) 0.0003(5) 0.0001(5) 0.0009(5)
Sb5 Sb3+ 0.0143(6) 0.0133(5) 0.0177(6) 0.0011(4) 0.0038(5) -0.0014(4)
Sb6 Sb3+ 0.0176(6) 0.0149(5) 0.0200(6) 0.0015(5) -0.0016(5) -0.0015(5)
Sb7 Sb3+ 0.0210(6) 0.0136(5) 0.0198(6) -0.0001(5) 0.0044(5) -0.0005(5)
Sb8 Sb3+ 0.0144(6) 0.0172(5) 0.0168(6) 0.0002(5) 0.0025(5) -0.0023(5)
Sb9 Sb3+ 0.0166(6) 0.0213(6) 0.0157(6) 0.0004(5) 0.0021(5) -0.0012(5)
Sb10 Sb3+ 0.0158(6) 0.0243(6) 0.0213(7) 0.0037(5) 0.0032(5) 0.0049(5)
Sb11 Sb3+ 0.0169(6) 0.0148(5) 0.0167(6) -0.0022(5) 0.0021(5) 0.0002(5)
Sb12 Sb3+ 0.0209(7) 0.0222(6) 0.0231(7) 0.0060(5) 0.0009(5) 0.0031(5)
Ag1 Ag1+ 0.0322(9) 0.0287(8) 0.0313(9) -0.0072(7) 0.0087(7) 0.0000(7)
Ag2 Ag1+ 0.0378(11) 0.0693(14) 0.0782(16) 0.0158(10) -0.0330(11) 
-0.0359(12)
Ag3 Ag1+ 0.0474(12) 0.0566(12) 0.0647(14) 0.0084(10) 0.0329(11) -0.0015(10)
Ag4 Ag1+ 0.0552(12) 0.0498(11) 0.0401(11) -0.0224(9) -0.0096(9) 0.0213(9)
S1 S2- 0.023(2) 0.018(2) 0.022(2) -0.0041(18) 0.000(2) -0.0057(18)
S2 S2- 0.016(2) 0.015(2) 0.021(2) 0.0001(17) 0.0036(18) -0.0021(17)
S3 S2- 0.020(2) 0.0131(19) 0.020(2) 0.0022(17) 0.0008(18) 0.0014(16)
S4 S2- 0.014(2) 0.018(2) 0.022(2) -0.0022(16) 0.0026(18) -0.0020(17)
S5 S2- 0.019(2) 0.016(2) 0.022(2) -0.0008(17) 0.0025(19) 0.0044(17)
S6 S2- 0.024(3) 0.012(2) 0.033(3) 0.0018(17) -0.011(2) -0.0020(18)
S7 S2- 0.013(2) 0.023(2) 0.028(3) 0.0019(18) 0.0024(19) 0.0022(19)
S8 S2- 0.025(2) 0.023(2) 0.020(2) 0.001(2) -0.0034(19) -0.0047(19)
S9 S2- 0.019(2) 0.015(2) 0.030(3) -0.0007(17) -0.001(2) 0.0047(18)
S10 S2- 0.018(2) 0.024(2) 0.023(2) 0.0013(19) 0.0013(19) -0.0002(19)
S11 S2- 0.019(2) 0.021(2) 0.024(2) -0.0007(19) -0.0006(19) 0.0021(19)
S12 S2- 0.023(2) 0.024(2) 0.017(2) -0.0050(19) 0.0060(19) -0.0062(18)
S13 S2- 0.016(2) 0.0146(19) 0.021(2) -0.0025(17) 0.0017(19) -0.0040(17)
S14 S2- 0.021(2) 0.0106(19) 0.024(2) -0.0011(17) 0.0093(19) 0.0003(17)
S15 S2- 0.019(2) 0.022(2) 0.020(2) -0.0001(18) -0.0013(19) 0.0021(18)
S16 S2- 0.021(2) 0.0134(19) 0.018(2) 0.0015(17) 0.0056(18) 0.0007(17)
S17 S2- 0.017(2) 0.021(2) 0.012(2) -0.0022(17) -0.0012(17) -0.0018(17)
S18 S2- 0.021(2) 0.016(2) 0.039(3) 0.0019(18) -0.005(2) 0.005(2)
S19 S2- 0.017(2) 0.022(2) 0.019(2) 0.0016(18) 0.0057(18) 0.0027(18)
S20 S2- 0.028(3) 0.020(2) 0.021(2) 0.0023(19) 0.000(2) 0.0036(19)
S21 S2- 0.019(2) 0.017(2) 0.026(3) 0.0011(18) 0.000(2) -0.0042(18)
S22 S2- 0.015(2) 0.020(2) 0.021(2) 0.0026(17) 0.0003(18) 0.0008(18)
S23 S2- 0.022(2) 0.020(2) 0.038(3) -0.002(2) 0.010(2) -0.001(2)
S24 S2- 0.017(2) 0.025(2) 0.023(2) 0.0010(19) -0.0004(19) -0.0035(19)
#End of data_188337-ICSD


