data_94281-ICSD
#?2014 by Fachinformationszentrum Karlsruhe, and the U.S. Secretary of 
#Commerce on behalf of the United States.  All rights reserved.
_database_code_ICSD                94281
_audit_creation_date               2003/10/01
_chemical_name_systematic          'Magnesium Fluoride'
_chemical_formula_structural       'Mg F2'
_chemical_formula_sum              'F2 Mg1'
_publ_section_title
;
X-ray diffraction and theoretical studies of the high-pressure 
structures and phase transitions in magnesium fluoride
;
loop_
_citation_id
_citation_journal_abbrev
_citation_year
_citation_journal_volume
_citation_page_first
_citation_page_last
_citation_journal_id_ASTM
primary 'Physical Review, Serie 3. B - Condensed Matter (18,1978-)'
 2001 64 1341101 13411010 PRBMDO
_publ_author_name
;
Haines, J.;Leger, J.M.;Gorelli, F.;Klug, D.D.;Tse, J.S.;Li, Z.Q.
;
_cell_length_a                     4.5227(7)
_cell_length_b                     4.4409(7)
_cell_length_c                     2.9770(2)
_cell_angle_alpha                  90
_cell_angle_beta                   90
_cell_angle_gamma                  90
_cell_volume                       59.79
_cell_formula_units_Z              2
_symmetry_space_group_name_H-M     'P n n m'
_symmetry_Int_Tables_number        58
_refine_ls_R_factor_all            .039
loop_
_symmetry_equiv_pos_site_id
_symmetry_equiv_pos_as_xyz
  1	'x+.5, -y+.5, z+.5'
  2	'-x+.5, y+.5, z+.5'
  3	'x, y, -z'
  4	'-x, -y, -z'
  5	'-x+.5, y+.5, -z+.5'
  6	'x+.5, -y+.5, -z+.5'
  7	'-x, -y, z'
  8	'x, y, z'
loop_
_atom_type_symbol
_atom_type_oxidation_number
F1-	-1
Mg2+	2
loop_
_atom_site_label
_atom_site_type_symbol
_atom_site_symmetry_multiplicity
_atom_site_Wyckoff_symbol
_atom_site_fract_x
_atom_site_fract_y
_atom_site_fract_z
_atom_site_occupancy
_atom_site_attached_hydrogens
Mg1 Mg2+ 2 a 0 0 0 1. 0 
F1 F1- 4 g 0.315(1) 0.290(1) 0 1. 0 

#End of data_94281-ICSD


