data_280210-ICSD
#?2014 by Fachinformationszentrum Karlsruhe, and the U.S. Secretary of 
#Commerce on behalf of the United States.  All rights reserved.
_database_code_ICSD                280210
_audit_creation_date               2002/04/01
_audit_update_record               2010/02/01
_chemical_name_systematic
;
Tripotassium Tecto-dialumotriphosphate(V)
;
_chemical_formula_structural       'K3 (Al2 P3 O12)'
_chemical_formula_sum              'Al2 K3 O12 P3'
_publ_section_title
;
Solid-state synthesis and characterization of novel 
aluminophosphates, A3 Al2 P3 O12 (A= Na, K, Rb, Tl): Influence of 
A+ions on the coordination of aluminium
;
loop_
_citation_id
_citation_journal_abbrev
_citation_year
_citation_journal_volume
_citation_page_first
_citation_page_last
_citation_journal_id_ASTM
primary 'Inorganic Chemistry' 2000 39 2391 2396 INOCAJ
_publ_author_name                  'Nandini Devi, R.;Vidyasagar, K.'
_cell_length_a                     8.685(2)
_cell_length_b                     16.9470(20)
_cell_length_c                     8.458(3)
_cell_angle_alpha                  90.
_cell_angle_beta                   90.
_cell_angle_gamma                  90.
_cell_volume                       1244.89
_cell_formula_units_Z              4
_symmetry_space_group_name_H-M     'P n a 21'
_symmetry_Int_Tables_number        33
_refine_ls_R_factor_all            .0261
loop_
_symmetry_equiv_pos_site_id
_symmetry_equiv_pos_as_xyz
  1	'x+.5, -y+.5, z'
  2	'-x+.5, y+.5, z+.5'
  3	'-x, -y, z+.5'
  4	'x, y, z'
loop_
_atom_type_symbol
_atom_type_oxidation_number
Al3+	3
K1+	1
O2-	-2
P5+	5
loop_
_atom_site_label
_atom_site_type_symbol
_atom_site_symmetry_multiplicity
_atom_site_Wyckoff_symbol
_atom_site_fract_x
_atom_site_fract_y
_atom_site_fract_z
_atom_site_occupancy
_atom_site_attached_hydrogens
K1 K1+ 4 a 0.17491(15) 0.49113(6) 0.8332(2) 1. 0 
K2 K1+ 4 a 0.45624(11) 0.35777(6) 0.63247(14) 1. 0 
K3 K1+ 4 a 0.01327(12) 0.10135(6) 0.10893(14) 1. 0 
P1 P5+ 4 a 0.26081(14) 0.49726(7) 0.3630(2) 1. 0 
P2 P5+ 4 a 0.29664(13) 0.18872(7) 0.43479(15) 1. 0 
P3 P5+ 4 a 0.15991(12) 0.28667(6) 0.94197(15) 1. 0 
Al1 Al3+ 4 a 0.13111(15) 0.33146(7) 0.2900(2) 1. 0 
Al2 Al3+ 4 a 0.35132(14) 0.16072(7) 0.7996(2) 1. 0 
O1 O2- 4 a 0.2625(4) 0.4767(2) 0.5347(5) 1. 0 
O2 O2- 4 a 0.4110(4) 0.5272(2) 0.2989(5) 1. 0 
O3 O2- 4 a 0.2074(4) 0.4249(2) 0.2616(5) 1. 0 
O4 O2- 4 a 0.3691(3) 0.0601(2) 0.8299(5) 1. 0 
O5 O2- 4 a 0.1816(4) 0.1344(2) 0.3656(5) 1. 0 
O6 O2- 4 a 0.2749(4) 0.2751(2) 0.3796(5) 1. 0 
O7 O2- 4 a 0.4633(4) 0.1645(2) 0.3989(5) 1. 0 
O8 O2- 4 a 0.2831(4) 0.1903(2) 0.6146(5) 1. 0 
O9 O2- 4 a 0.2859(3) 0.3446(2) 0.9157(4) 1. 0 
O10 O2- 4 a 0.0823(4) 0.2932(2) 0.1053(4) 1. 0 
O11 O2- 4 a 0.0309(3) 0.2959(2) 0.8174(5) 1. 0 
O12 O2- 4 a 0.2162(3) 0.1996(2) 0.9306(4) 1. 0 

loop_
_atom_site_aniso_label
_atom_site_aniso_type_symbol
_atom_site_aniso_U_11
_atom_site_aniso_U_22
_atom_site_aniso_U_33
_atom_site_aniso_U_12
_atom_site_aniso_U_13
_atom_site_aniso_U_23
K1 K1+ 0.0415(7) 0.0205(6) 0.0407(8) -.0033(5) 0.0088(6) 0.0006(6)
K2 K1+ 0.0207(5) 0.0205(5) 0.0267(6) -.0006(4) 0.0003(5) -.0022(5)
K3 K1+ 0.0194(5) 0.0263(5) 0.0218(5) 0.0012(4) -.0015(4) 0.0030(5)
P1 P5+ 0.0193(6) 0.0094(5) 0.0207(7) -.0003(5) -.0003(5) -.0009(5)
P2 P5+ 0.0150(5) 0.0133(5) 0.0136(6) 0.0009(5) 0.0001(5) 0.0027(5)
P3 P5+ 0.0129(5) 0.0099(5) 0.0136(5) 0.0006(4) 0.0003(5) -.0006(5)
Al1 Al3+ 0.0145(6) 0.0109(6) 0.0151(7) -.0010(5) 0.0019(6) -.0006(6)
Al2 Al3+ 0.0122(6) 0.0108(6) 0.0140(7) 0.0001(5) 0.0003(6) -.0008(6)
O1 O2- 0.035(2) 0.030(2) 0.025(2) 0.003(2) -.001(2) 0.002(2)
O2 O2- 0.024(2) 0.023(2) 0.040(2) -.0062(15) 0.005(2) -.003(2)
O3 O2- 0.033(2) 0.012(2) 0.030(2) -.0034(14) 0.003(2) -.001(2)
O4 O2- 0.020(2) 0.0119(15) 0.041(2) 0.0000(13) 0.009(2) -.001(2)
O5 O2- 0.039(2) 0.021(2) 0.033(2) -.005(2) -.016(2) -.003(2)
O6 O2- 0.028(2) 0.015(2) 0.036(2) -.0005(14) -.010(2) 0.003(2)
O7 O2- 0.025(2) 0.048(2) 0.031(2) 0.015(2) 0.010(2) 0.017(2)
O8 O2- 0.020(2) 0.036(2) 0.018(2) 0.0066(15) -.002(2) 0.002(2)
O9 O2- 0.018(2) 0.017(2) 0.024(2) -.0051(13) 0.001(2) 0.000(2)
O10 O2- 0.019(2) 0.014(2) 0.020(2) -.0005(13) 0.0015(15) -.0038(15)
O11 O2- 0.0148(15) 0.023(2) 0.021(2) 0.0050(13) 0.000(2) 0.000(2)
O12 O2- 0.0197(15) 0.0103(15) 0.018(2) 0.0012(12) 0.004(2) 0.0010(15)
#End of data_280210-ICSD


