data_97205-ICSD
#?2014 by Fachinformationszentrum Karlsruhe, and the U.S. Secretary of 
#Commerce on behalf of the United States.  All rights reserved.
_database_code_ICSD                97205
_audit_creation_date               2004/10/01
_audit_update_record               2006/04/01
_chemical_name_systematic          'Trisodium Phosphate(V) - Alpha'
_chemical_formula_structural       'Na3 (P O4)'
_chemical_formula_sum              'Na3 O4 P1'
_publ_section_title
;
Phase transition behaviour and equilibrium phase relations in the 
fast-ion conductor system (Na3 P O4) - (Na2 S O4)
;
loop_
_citation_id
_citation_journal_abbrev
_citation_year
_citation_journal_volume
_citation_page_first
_citation_page_last
_citation_journal_id_ASTM
primary 'Physical Chemistry Chemical Physics' 2002 4 3252 3259 PPCPFQ
2 'Golden Book of Phase Transitions, Wroclaw' 2002 1 1 123 GBOPT5
_publ_author_name
;
Harrison, R.J.;Putnis, A.;Kockelmann, W.
;
_cell_length_a                     10.81111(34)
_cell_length_b                     10.81111(34)
_cell_length_c                     6.81831(34)
_cell_angle_alpha                  90
_cell_angle_beta                   90
_cell_angle_gamma                  90
_cell_volume                       796.92
_cell_formula_units_Z              8
_symmetry_space_group_name_H-M     'P -4 21 c'
_symmetry_Int_Tables_number        114
_refine_ls_R_factor_all            .0395
loop_
_symmetry_equiv_pos_site_id
_symmetry_equiv_pos_as_xyz
  1	'y+.5, x+.5, z+.5'
  2	'y, -x, -z'
  3	'-y+.5, -x+.5, z+.5'
  4	'-y, x, -z'
  5	'x+.5, -y+.5, -z+.5'
  6	'-x, -y, z'
  7	'-x+.5, y+.5, -z+.5'
  8	'x, y, z'
loop_
_atom_type_symbol
_atom_type_oxidation_number
Na1+	1
O2-	-2
P5+	5
loop_
_atom_site_label
_atom_site_type_symbol
_atom_site_symmetry_multiplicity
_atom_site_Wyckoff_symbol
_atom_site_fract_x
_atom_site_fract_y
_atom_site_fract_z
_atom_site_occupancy
_atom_site_attached_hydrogens
_atom_site_U_iso_or_equiv
P1 P5+ 8 e 0.2592(6) -0.0124(5) 0.2231(7) 1. 0 0.0163(15) 
O1 O2- 8 e 0.1642(6) -0.0750(6) 0.3512(7) 1. 0 0.0212(10) 
O2 O2- 8 e 0.3768(5) -0.0993(5) 0.2049(6) 1. 0 0.0212(10) 
O3 O2- 8 e 0.2074(4) 0.0162(5) 0.0235(7) 1. 0 0.0212(10) 
O4 O2- 8 e 0.3050(4) 0.1043(5) 0.3288(9) 1. 0 0.0212(10) 
Na1 Na1+ 8 e 0.2556(9) 0.0330(7) 0.6962(14) 1. 0 0.0293(16) 
Na2 Na1+ 8 e 0.2229(9) 0.2405(8) 0.0424(14) 1. 0 0.0293(16) 
Na3 Na1+ 2 a 0 0 0 1. 0 0.0293(16) 
Na4 Na1+ 2 b 0 0 0.5 1. 0 0.0293(16) 
Na5 Na1+ 4 d 0 0.5 0.0477(20) 1. 0 0.0293(16) 

#End of data_97205-ICSD


