data_94425-ICSD
#?2014 by Fachinformationszentrum Karlsruhe, and the U.S. Secretary of 
#Commerce on behalf of the United States.  All rights reserved.
_database_code_ICSD                94425
_audit_creation_date               2003/10/01
_audit_update_record               2007/08/01
_chemical_name_systematic          'Potassium Trifluoromethylsulfonate'
_chemical_formula_structural       'K (C F3 (S O3))'
_chemical_formula_sum              'C1 F3 K1 O3 S1'
_publ_section_title
;
Kristallstruktur, Phasenumwandlung und Kaliumionenleitfaehigkeit von 
Kaliumtrifluormethylsulfonat
;
loop_
_citation_id
_citation_journal_abbrev
_citation_year
_citation_journal_volume
_citation_page_first
_citation_page_last
_citation_journal_id_ASTM
primary 'Zeitschrift fuer Anorganische und Allgemeine Chemie (1950) (DE)'
 2001 627 1599 1605 ZAACAB
2 'Golden Book of Phase Transitions, Wroclaw' 2002 1 1 123 GBOPT5
_publ_author_name                  'Korus, G.;Jansen, M.'
_cell_length_a                     10.655(6)
_cell_length_b                     5.9418(6)
_cell_length_c                     14.570(5)
_cell_angle_alpha                  90
_cell_angle_beta                   111.34(3)
_cell_angle_gamma                  90
_cell_volume                       859.18
_cell_formula_units_Z              6
_symmetry_space_group_name_H-M     'P 1 21 1'
_symmetry_Int_Tables_number        4
_refine_ls_R_factor_all            .0673
loop_
_symmetry_equiv_pos_site_id
_symmetry_equiv_pos_as_xyz
  1	'-x, y+.5, -z'
  2	'x, y, z'
loop_
_atom_type_symbol
_atom_type_oxidation_number
C4+	4
F1-	-1
K1+	1
O2-	-2
S4+	4
loop_
_atom_site_label
_atom_site_type_symbol
_atom_site_symmetry_multiplicity
_atom_site_Wyckoff_symbol
_atom_site_fract_x
_atom_site_fract_y
_atom_site_fract_z
_atom_site_occupancy
_atom_site_attached_hydrogens
_atom_site_U_iso_or_equiv
K1 K1+ 2 a 0.4670(1) 0.2284(6) 0.8418(1) 1. 0 0.060(1) 
K2 K1+ 2 a 0.1900(1) 0.2284(4) 0.0152(1) 1. 0 0.051(1) 
K3 K1+ 2 a 0.5584(2) 0.7301(7) 0.6580(1) 1. 0 0.076(1) 
S1 S4+ 2 a 0.3490(1) 0.2307(6) 0.5779(1) 1. 0 0.059(1) 
S2 S4+ 2 a 0.3373(1) 0.7316(6) 0.8984(1) 1. 0 0.048(1) 
S3 S4+ 2 a 0.7909(1) 0.2338(5) 0.8341(1) 1. 0 0.042(1) 
C1 C4+ 2 a 0.1701(8) 0.2545(26) 0.5355(5) 1. 0 0.146(9) 
C2 C4+ 2 a 0.1747(9) 0.6795(19) 0.8083(7) 1. 0 0.088(4) 
C3 C4+ 2 a 0.8217(6) 0.2165(22) 0.7194(5) 1. 0 0.077(3) 
O1 O2- 2 a 0.3736(15) 0.0312(17) 0.6272(16) 1. 0 0.187(9) 
O2 O2- 2 a 0.3855(8) 0.2765(58) 0.5022(7) 1. 0 0.199(11) 
O3 O2- 2 a 0.3924(12) 0.4028(35) 0.6485(7) 1. 0 0.160(7) 
O4 O2- 2 a 0.5689(6) 0.2291(19) 0.1502(4) 1. 0 0.070(1) 
O5 O2- 2 a 0.3270(11) 0.5193(20) -0.0631(10) 1. 0 0.119(5) 
O6 O2- 2 a 0.3476(12) -0.0832(28) -0.0352(10) 1. 0 0.133(6) 
O7 O2- 2 a 0.7091(7) 0.4335(13) 0.8264(6) 1. 0 0.060(2) 
O8 O2- 2 a 0.2801(11) 0.5313(13) 0.1711(6) 1. 0 0.078(3) 
O9 O2- 2 a -0.0815(5) 0.2186(36) -0.0885(4) 1. 0 0.107(3) 
F1 F1- 2 a 0.1190(6) 0.2163(31) 0.6001(5) 1. 0 0.125(3) 
F2 F1- 2 a 0.1166(11) 0.1230(43) 0.4625(9) 1. 0 0.283(16) 
F3 F1- 2 a 0.1366(15) 0.4582(32) 0.5048(13) 1. 0 0.273(15) 
F4 F1- 2 a 0.0801(5) 0.7197(33) 0.8446(5) 1. 0 0.126(3) 
F5 F1- 2 a 0.1461(9) 0.7966(37) 0.7302(6) 1. 0 0.218(11) 
F6 F1- 2 a 0.1754(11) 0.4711(20) 0.7799(8) 1. 0 0.157(5) 
F7 F1- 2 a 0.7106(6) 0.2230(29) 0.6443(3) 1. 0 0.115(3) 
F8 F1- 2 a 0.8664(15) 0.0226(27) 0.7058(7) 1. 0 0.180(8) 
F9 F1- 2 a -0.0922(15) 0.3667(36) 0.7206(9) 1. 0 0.251(13) 

loop_
_atom_site_aniso_label
_atom_site_aniso_type_symbol
_atom_site_aniso_U_11
_atom_site_aniso_U_22
_atom_site_aniso_U_33
_atom_site_aniso_U_12
_atom_site_aniso_U_13
_atom_site_aniso_U_23
K1 K1+ 0.054(1) 0.055(1) 0.080(1) 0.005(1) 0.033(1) 0.002(1)
K2 K1+ 0.060(1) 0.040(1) 0.053(1) 0.005(1) 0.018(1) 0.002(1)
K3 K1+ 0.084(1) 0.058(1) 0.073(1) 0.008(2) 0.015(1) 0.010(2)
S1 S4+ 0.043(1) 0.056(1) 0.068(1) 0.002(2) 0.009(1) -0.003(2)
S2 S4+ 0.051(1) 0.043(1) 0.050(1) 0.004(1) 0.018(1) 0.001(1)
S3 S4+ 0.039(1) 0.044(1) 0.043(1) 0.002(1) 0.014(1) 0.002(1)
C1 C4+ 0.044(3) 0.314(27) 0.070(5) 0.009(11) 0.010(3) 0.092(12)
C2 C4+ 0.061(4) 0.121(14) 0.070(5) -0.004(6) 0.009(4) -0.008(6)
C3 C4+ 0.057(3) 0.119(8) 0.061(3) -0.007(8) 0.027(3) 0.015(8)
O1 O2- 0.134(11) 0.054(5) 0.391(26) 0.048(6) 0.116(14) 0.089(10)
O2 O2- 0.023(4) 0.428(34) 0.108(6) -0.036(13) 0.048(4) 0.067(14)
O3 O2- 0.092(6) 0.287(20) 0.089(5) -0.059(9) 0.019(5) -0.078(9)
O4 O2- 0.073(3) 0.060(3) 0.087(3) 0.019(5) 0.041(3) 0.026(4)
O5 O2- 0.106(7) 0.095(6) 0.194(11) 0.051(6) 0.099(8) 0.097(8)
O6 O2- 0.078(5) 0.171(12) 0.144(9) -0.015(7) 0.035(6) -0.109(9)
O7 O2- 0.06059(23) 0.045(4) 0.076(5) 0.001(3) 0.024(3) -0.009(3)
O8 O2- 0.128(8) 0.040(4) 0.073(5) 0.025(4) 0.047(5) -0.002(3)
O9 O2- 0.043(2) 0.201(10) 0.058(3) 0.005(8) -0.003(2) -0.021(8)
F1 F1- 0.077(3) 0.198(10) 0.116(4) -0.040(8) 0.055(3) -0.017(10)
F2 F1- 0.083(5) 0.615(46) 0.133(7) -0.099(12) 0.016(5) -0.210(16)
F3 F1- 0.158(13) 0.393(30) 0.312(22) 0.198(18) 0.135(15) 0.254(24)
F4 F1- 0.052(2) 0.190(9) 0.129(5) -0.026(7) 0.027(3) -0.034(10)
F5 F1- 0.101(6) 0.440(35) 0.081(4) 0.046(14) -0.005(4) 0.073(11)
F6 F1- 0.111(7) 0.173(11) 0.166(10) -0.048(8) 0.027(7) -0.102(9)
F7 F1- 0.095(4) 0.190(8) 0.053(2) -0.027(8) 0.018(2) -0.042(6)
F8 F1- 0.205(12) 0.242(15) 0.084(5) 0.162(12) 0.044(6) -0.012(7)
F9 F1- 0.200(12) 0.468(35) 0.138(9) -0.205(17) 0.125(9) -0.057(12)
#End of data_94425-ICSD


