data_171745-ICSD
#?2014 by Fachinformationszentrum Karlsruhe, and the U.S. Secretary of 
#Commerce on behalf of the United States.  All rights reserved.
_database_code_ICSD                171745
_audit_creation_date               2006/10/01
_chemical_name_systematic
;
Sodium Tripotassium Tetrakisneptunyl Tetrakissulfate Dihydrate
;
_chemical_formula_structural       'Na K3 (Np O2)4 (S O4)4 (H2 O)2'
_chemical_formula_sum              'H4 K3 Na1 Np4 O26 S4'
_publ_section_title
;
The crystal structures and magnetic properties of Na K3 (Np O2)4 (S 
O4)4 (H2 O)2 and Na Np O2 SO4 H2O: Cation-cation interactions in a 
neptunyl sulfate framework
;
loop_
_citation_id
_citation_journal_abbrev
_citation_year
_citation_journal_volume
_citation_journal_issue
_citation_page_first
_citation_page_last
_citation_journal_id_ASTM
primary 'Chemistry of Materials' 2006 18 6 1643 1649 CMATEX
_publ_author_name
;
Forbes, T.Z.;Burns, P.C.;Soderholm, L.;Skanthakumar, S.
;
_cell_length_a                     18.0998(12)
_cell_length_b                     5.7030(4)
_cell_length_c                     23.1988(16)
_cell_angle_alpha                  90.00
_cell_angle_beta                   104.6330(10)
_cell_angle_gamma                  90.00
_cell_volume                       2316.98
_cell_formula_units_Z              4
_symmetry_space_group_name_H-M     'C 1 2/c 1'
_symmetry_Int_Tables_number        15
_refine_ls_R_factor_all            .0405
loop_
_symmetry_equiv_pos_site_id
_symmetry_equiv_pos_as_xyz
  1	'x, -y, z+.5'
  2	'-x, -y, -z'
  3	'-x, y, -z+.5'
  4	'x, y, z'
  5	'x+.5, -y+.5, z+.5'
  6	'-x+.5, -y+.5, -z'
  7	'-x+.5, y+.5, -z+.5'
  8	'x+.5, y+.5, z'
loop_
_atom_type_symbol
_atom_type_oxidation_number
H1+	1
K1+	1
Na1+	1
Np5+	5
O2-	-2
S6+	6
loop_
_atom_site_label
_atom_site_type_symbol
_atom_site_symmetry_multiplicity
_atom_site_Wyckoff_symbol
_atom_site_fract_x
_atom_site_fract_y
_atom_site_fract_z
_atom_site_occupancy
_atom_site_attached_hydrogens
_atom_site_U_iso_or_equiv
Np1 Np5+ 8 f 0.034199(10) 0.97214(3) 0.134517(8) 1 0 0.01009(5) 
Np2 Np5+ 8 f 0.198525(10) 0.48871(3) 0.189118(8) 1 0 0.01024(5) 
K1 K1+ 4 b 0.0000 0.5000 0.0000 1 0 0.0356(5) 
K2 K1+ 8 f -0.16737(9) 0.4539(3) 0.08993(7) 1 0 0.0345(3) 
Na1 Na1+ 4 e 0.0000 0.3360(5) 0.2500 1 0 0.0151(5) 
S1 S6+ 8 f -0.11405(7) 0.9531(2) -0.00356(5) 1 0 0.0129(2) 
S2 S6+ 8 f 0.10754(7) 0.7819(2) 0.28625(5) 1 0 0.0113(2) 
O1 O2- 8 f 0.0830(2) 0.9791(6) 0.24481(17) 1 0 0.0159(7) 
O2 O2- 8 f 0.0665(2) 0.1022(8) 0.04538(17) 1 0 0.0184(7) 
O3 O2- 8 f -0.0516(2) 0.7358(7) 0.17889(16) 1 0 0.0147(7) 
O4 O2- 8 f 0.3177(2) 0.3306(8) 0.17288(16) 1 0 0.0194(8) 
O5 O2- 8 f 0.2190(3) 0.5702(8) 0.08686(18) 1 0 0.0224(8) 
O6 O2- 8 f 0.1494(2) 0.2163(6) 0.16076(17) 1 0 0.0165(7) 
O7 O2- 8 f -0.0206(2) 0.2332(7) 0.14266(18) 1 0 0.0194(8) 
O8 O2- 8 f -0.0764(2) 0.8367(7) 0.05371(16) 1 0 0.0169(7) 
O9 O2- 8 f 0.0896(2) 0.7034(7) 0.12845(16) 1 0 0.0151(7) 
O10 O2- 8 f 0.2464(2) 0.7657(7) 0.21922(16) 1 0 0.0164(7) 
O11 O2- 8 f 0.1129(2) 0.5639(7) 0.25267(17) 1 0 0.0169(7) 
O12 O2- 8 f -0.1171(3) 0.2072(7) 0.00499(18) 1 0 0.0219(8) 
O13 O2- 8 f -0.1908(2) 0.8579(9) -0.0256(2) 1 0 0.0260(9) 
H1 H1+ 8 f 0.224(6) 0.442(12) 0.062(4) 1 0 0.050 
H2 H1+ 8 f 0.185(4) 0.682(12) 0.065(4) 1 0 0.050 

loop_
_atom_site_aniso_label
_atom_site_aniso_type_symbol
_atom_site_aniso_U_11
_atom_site_aniso_U_22
_atom_site_aniso_U_33
_atom_site_aniso_U_12
_atom_site_aniso_U_13
_atom_site_aniso_U_23
Np1 Np5+ 0.01009(8) 0.01070(8) 0.01007(9) 0.00053(6) 0.00365(6) 0.00063(5)
Np2 Np5+ 0.00979(8) 0.01029(8) 0.01096(9) 0.00005(6) 0.00323(6) -0.00042(5)
K1 K1+ 0.0292(10) 0.0179(8) 0.0656(16) 0.0046(7) 0.0229(10) 0.0039(8)
K2 K1+ 0.0263(7) 0.0412(8) 0.0350(8) 0.0027(6) 0.0057(6) -0.0150(6)
Na1 Na1+ 0.0155(14) 0.0142(13) 0.0175(14) 0.000 0.0075(11) 0.000
S1 S6+ 0.0125(5) 0.0150(5) 0.0114(5) -0.0007(4) 0.0033(4) 0.0004(4)
S2 S6+ 0.0087(5) 0.0162(5) 0.0100(5) -0.0002(4) 0.0042(4) 0.0005(4)
O1 O2- 0.0194(18) 0.0138(16) 0.0143(17) 0.0014(13) 0.0041(14) 0.0021(12)
O2 O2- 0.0179(18) 0.026(2) 0.0130(17) 0.0001(15) 0.0076(14) 0.0013(14)
O3 O2- 0.0124(16) 0.0192(17) 0.0148(17) 0.0009(13) 0.0077(13) -0.0008(12)
O4 O2- 0.0113(16) 0.034(2) 0.0120(17) 0.0057(15) 0.0009(13) -0.0009(14)
O5 O2- 0.024(2) 0.027(2) 0.0164(19) 0.0094(17) 0.0063(15) 0.0029(15)
O6 O2- 0.0171(17) 0.0142(16) 0.0185(18) -0.0019(13) 0.0052(14) -0.0007(13)
O7 O2- 0.0192(18) 0.0175(18) 0.022(2) 0.0051(14) 0.0061(15) -0.0018(14)
O8 O2- 0.0176(18) 0.0212(18) 0.0115(16) -0.0021(14) 0.0031(13) 0.0024(13)
O9 O2- 0.0145(16) 0.0168(17) 0.0149(17) 0.0039(13) 0.0056(13) 0.0012(12)
O10 O2- 0.0177(17) 0.0160(16) 0.0158(18) -0.0038(13) 0.0049(14) -0.0026(12)
O11 O2- 0.0183(18) 0.0162(17) 0.0192(18) 0.0031(14) 0.0106(14) -0.0025(13)
O12 O2- 0.029(2) 0.0174(18) 0.0185(19) 0.0010(16) 0.0035(16) -0.0003(14)
O13 O2- 0.0125(18) 0.037(3) 0.028(2) -0.0057(17) 0.0036(16) -0.0059(18)
#End of data_171745-ICSD


