data_67890-ICSD
#?2014 by Fachinformationszentrum Karlsruhe, and the U.S. Secretary of 
#Commerce on behalf of the United States.  All rights reserved.
_database_code_ICSD                67890
_audit_creation_date               1995/01/10
_chemical_name_systematic
;
Dipotassium Nitropentahydro-octahedro-borate
;
_chemical_formula_structural       'K2 (B6 H5 (N O2))'
_chemical_formula_sum              'H5 B6 K2 N1 O2'
_publ_section_title
;
Darstellung von Mononitropentahydrohexaborat(2-) und Kristallstruktur 
von M2(B6H5(NO2)), M = K, Cs
;
loop_
_citation_id
_citation_journal_abbrev
_citation_year
_citation_journal_volume
_citation_page_first
_citation_page_last
_citation_journal_id_ASTM
primary 'Zeitschrift fuer Naturforschung, B: Chemical Sciences'
 1993 48 1727 1731 ZNBSEN
_publ_author_name
;
Franken, A.;Preetz, W.;Rath, M.;Hesse, K.F.
;
_cell_length_a                     5.953(1)
_cell_length_b                     8.059(4)
_cell_length_c                     8.906(1)
_cell_angle_alpha                  90.
_cell_angle_beta                   109.553(9)
_cell_angle_gamma                  90.
_cell_volume                       402.63
_cell_formula_units_Z              2
_symmetry_space_group_name_H-M     'P 1 21/m 1'
_symmetry_Int_Tables_number        11
_refine_ls_R_factor_all            .025
loop_
_symmetry_equiv_pos_site_id
_symmetry_equiv_pos_as_xyz
  1	'x, -y+.5, z'
  2	'-x, -y, -z'
  3	'-x, y+.5, -z'
  4	'x, y, z'
loop_
_atom_type_symbol
_atom_type_oxidation_number
B.667+	.667
H1-	-1
K1+	1
N3+	3
O2-	-2
loop_
_atom_site_label
_atom_site_type_symbol
_atom_site_symmetry_multiplicity
_atom_site_Wyckoff_symbol
_atom_site_fract_x
_atom_site_fract_y
_atom_site_fract_z
_atom_site_occupancy
_atom_site_attached_hydrogens
_atom_site_U_iso_or_equiv
K1 K1+ 2 e 0.7891(1) 0.25 0.0783(1) 1. 0 0.0031(1) 
K2 K1+ 2 d 0.5 0 0.5 1. 0 0.0036(1) 
O1 O2- 2 e 0.1311(2) 0.25 0.4013(1) 1. 0 0.0032(1) 
O2 O2- 2 e 0.7704(2) 0.25 0.4014(1) 1. 0 0.0032(1) 
N1 N3+ 2 e 0.9885(2) 0.25 0.4770(1) 1. 0 0.0022(1) 
B1 B.667+ 2 e 0.0788(2) 0.25 0.6573(1) 1. 0 0.0022(1) 
B2 B.667+ 4 f 0.7038(2) -.1426(1) 0.2020(1) 1. 0 0.0025(1) 
B3 B.667+ 4 f 0.0016(2) 0.1426(1) -.2020(1) 1. 0 0.0025(1) 
B4 B.667+ 2 e 0.2205(2) 0.25 0.9411(2) 1. 0 0.0025(1) 
H1 H1- 4 f 0.4173(26) 0.0483(17) 0.7992(16) 1. 0 0.0039(3) 
H2 H1- 4 f 0.8679(25) 0.0488(17) 0.8003(16) 1. 0 0.0036(3) 
H3 H1- 2 e 0.2794(42) 0.25 0.0633(28) 1. 0 0.0052(6) 

#End of data_67890-ICSD


