data_619422-ICSD
#?2014 by Fachinformationszentrum Karlsruhe, and the U.S. Secretary of 
#Commerce on behalf of the United States.  All rights reserved.
_database_code_ICSD                619422
_audit_creation_date               2012/02/01
_chemical_name_systematic          'Calcium Molybdenum Sulfide (1/6/8)'
_chemical_formula_structural       'Ca Mo6 S8'
_chemical_formula_sum              'Ca1 Mo6 S8'
_publ_section_title
;
Low-temperature structural phase transition in Ca Mo6 S8
;
loop_
_citation_id
_citation_journal_abbrev
_citation_year
_citation_journal_volume
_citation_journal_issue
_citation_page_first
_citation_page_last
_citation_journal_id_ASTM
primary 'Solid State Communications' 1989 72 12 1219 1221 SSCOA4
_publ_author_name                  'Kubel, F.;Yvon, K.'
_cell_length_a                     6.4912(8)
_cell_length_b                     6.4977(8)
_cell_length_c                     6.5060(10)
_cell_angle_alpha                  89.461(13)
_cell_angle_beta                   89.555(15)
_cell_angle_gamma                  89.393(19)
_cell_volume                       274.37
_cell_formula_units_Z              1
_symmetry_space_group_name_H-M     'P -1'
_symmetry_Int_Tables_number        2
loop_
_symmetry_equiv_pos_site_id
_symmetry_equiv_pos_as_xyz
  1	'-x, -y, -z'
  2	'x, y, z'
loop_
_atom_type_symbol
_atom_type_oxidation_number
Ca2+	2
Mo2.33+	2.33
S2-	-2
loop_
_atom_site_label
_atom_site_type_symbol
_atom_site_symmetry_multiplicity
_atom_site_Wyckoff_symbol
_atom_site_fract_x
_atom_site_fract_y
_atom_site_fract_z
_atom_site_occupancy
_atom_site_attached_hydrogens
Ca1 Ca2+ 1 a 0 0 0 1. 0 
Mo1 Mo2.33+ 2 i 0.231 0.564 0.417 1. 0 
Mo2 Mo2.33+ 2 i 0.418 0.232 0.568 1. 0 
Mo3 Mo2.33+ 2 i 0.567 0.418 0.226 1. 0 
S1 S2- 2 i 0.126 0.385 0.765 1. 0 
S2 S2- 2 i 0.232 0.255 0.225 1. 0 
S3 S2- 2 i 0.373 0.718 0.123 1. 0 
S4 S2- 2 i 0.748 0.144 0.359 1. 0 

#End of data_619422-ICSD


