data_710007-ICSD
#?2014 by Fachinformationszentrum Karlsruhe, and the U.S. Secretary of 
#Commerce on behalf of the United States.  All rights reserved.
_database_code_ICSD                710007
_audit_creation_date               2010/02/01
_audit_update_record               2013/08/01
_chemical_name_systematic
;
Dithallium Hexaaquazinc(II) Bis(sulfate)
;
_chemical_formula_structural       'Tl2 (Zn (H2 O)6) (S O4)2'
_chemical_formula_sum              'H12 O14 S2 Tl2 Zn1'
_publ_section_title
;
Crystal structures of Tutton's salts Tl2 [M(II) (H2 O)6] (S O4)2, 
M(II) = Mg, Mn, Fe, Co, Ni, Zn
;
loop_
_citation_id
_citation_journal_abbrev
_citation_year
_citation_journal_volume
_citation_journal_issue
_citation_page_first
_citation_page_last
_citation_journal_id_ASTM
primary 'Zeitschrift fuer Kristallographie - New Crystal Structures'
 2009 224 3 355 359 ZKNSFT
_publ_author_name
;
Euler, H.;Barbier, B.;Meents, A.;Kirfel, A.
;
_cell_length_a                     9.219(2)
_cell_length_b                     12.426(3)
_cell_length_c                     6.226(2)
_cell_angle_alpha                  90.00
_cell_angle_beta                   106.29(2)
_cell_angle_gamma                  90.00
_cell_volume                       684.59
_cell_formula_units_Z              2
_symmetry_space_group_name_H-M     'P 1 21/a 1'
_symmetry_Int_Tables_number        14
_refine_ls_R_factor_all            .0212
loop_
_symmetry_equiv_pos_site_id
_symmetry_equiv_pos_as_xyz
  1	'x+.5, -y+.5, z'
  2	'-x, -y, -z'
  3	'-x+.5, y+.5, -z'
  4	'x, y, z'
loop_
_atom_type_symbol
_atom_type_oxidation_number
H1+	1
O2-	-2
S6+	6
Tl1+	1
Zn2+	2
loop_
_atom_site_label
_atom_site_type_symbol
_atom_site_symmetry_multiplicity
_atom_site_Wyckoff_symbol
_atom_site_fract_x
_atom_site_fract_y
_atom_site_fract_z
_atom_site_occupancy
_atom_site_attached_hydrogens
_atom_site_U_iso_or_equiv
Zn1 Zn2+ 2 a 0.0000 0.0000 0.0000 1 0 0.02031(19) 
S1 S6+ 4 e 0.40655(13) 0.13702(11) 0.7362(2) 1 0 0.0218(3) 
O1 O2- 4 e 0.4171(5) 0.2292(3) 0.5946(6) 1 0 0.0377(10) 
O2 O2- 4 e 0.5447(4) 0.0717(4) 0.7815(7) 1 0 0.0420(10) 
O3 O2- 4 e 0.2782(4) 0.0695(3) 0.6135(6) 1 0 0.0301(9) 
O4 O2- 4 e 0.3813(4) 0.1754(3) 0.9468(6) 1 0 0.0340(9) 
O5 O2- 4 e 0.1664(4) 0.1108(3) 0.1623(6) 1 0 0.0282(8) 
O6 O2- 4 e -0.1681(4) 0.1118(3) 0.0266(7) 1 0 0.0301(9) 
O7 O2- 4 e -0.0006(4) -0.0663(3) 0.3009(5) 1 0 0.0254(8) 
Tl1 Tl1+ 4 e 0.12899(2) 0.353772(19) 0.35107(4) 1 0 0.03460(11) 
H1 H1+ 4 e 0.2045 0.0967 0.2771 1 0 0.046(8) 
H2 H1+ 4 e 0.2358 0.1258 0.0985 1 0 0.046(8) 
H3 H1+ 4 e -0.2496 0.1040 -0.0433 1 0 0.046(8) 
H4 H1+ 4 e -0.1487 0.1748 0.0020 1 0 0.046(8) 
H5 H1+ 4 e -0.0738 -0.0619 0.3359 1 0 0.046(8) 
H6 H1+ 4 e 0.0238 -0.1309 0.3226 1 0 0.046(8) 

loop_
_atom_site_aniso_label
_atom_site_aniso_type_symbol
_atom_site_aniso_U_11
_atom_site_aniso_U_22
_atom_site_aniso_U_33
_atom_site_aniso_U_12
_atom_site_aniso_U_13
_atom_site_aniso_U_23
Zn1 Zn2+ 0.0188(4) 0.0215(4) 0.0207(4) -0.0013(3) 0.0058(3) 0.0002(3)
S1 S6+ 0.0190(6) 0.0225(7) 0.0241(6) -0.0026(5) 0.0064(5) -0.0019(5)
O1 O2- 0.052(3) 0.029(2) 0.034(2) -0.0102(19) 0.0172(19) 0.0002(18)
O2 O2- 0.022(2) 0.045(3) 0.055(3) 0.0103(19) 0.0029(18) -0.004(2)
O3 O2- 0.024(2) 0.034(2) 0.032(2) -0.0054(17) 0.0070(15) -0.0065(18)
O4 O2- 0.045(2) 0.031(2) 0.028(2) -0.0045(17) 0.0136(17) -0.0052(16)
O5 O2- 0.0229(19) 0.035(2) 0.0229(19) -0.0059(15) 0.0002(15) 0.0005(15)
O6 O2- 0.0235(19) 0.029(2) 0.038(2) 0.0032(15) 0.0100(16) 0.0008(16)
O7 O2- 0.029(2) 0.024(2) 0.0265(19) 0.0016(15) 0.0131(15) 0.0014(15)
Tl1 Tl1+ 0.03558(14) 0.03519(15) 0.03539(14) -0.00156(12) 0.01383(9) 
0.00033(12)
#End of data_710007-ICSD


