data_16254-ICSD
#?2014 by Fachinformationszentrum Karlsruhe, and the U.S. Secretary of 
#Commerce on behalf of the United States.  All rights reserved.
_database_code_ICSD                16254
_audit_creation_date               1980/01/01
_audit_update_record               1984/04/11
_chemical_name_systematic          'Cesium Tetrafluoroargentate(II)'
_chemical_formula_structural       'Cs2 Ag F4'
_chemical_formula_sum              'Ag1 Cs2 F4'
_publ_section_title
;
Zur Magnetochemie des zweiwertigen Silbers: Neue Fluoroargentate(II): 
Cs2 Ag F4, Rb2 Ag F4 und K2 Ag F4
;
loop_
_citation_id
_citation_journal_abbrev
_citation_year
_citation_journal_volume
_citation_page_first
_citation_page_last
_citation_journal_id_ASTM
primary 'Zeitschrift fuer Anorganische und Allgemeine Chemie (1950) (DE)'
 1974 407 144 150 ZAACAB
_publ_author_name                  'Odenthal, R.H.;Paus, D.'
_cell_length_a                     4.581
_cell_length_b                     4.581
_cell_length_c                     14.192
_cell_angle_alpha                  90.
_cell_angle_beta                   90.
_cell_angle_gamma                  90.
_cell_volume                       297.83
_cell_formula_units_Z              2
_symmetry_space_group_name_H-M     'I 4/m m m'
_symmetry_Int_Tables_number        139
loop_
_symmetry_equiv_pos_site_id
_symmetry_equiv_pos_as_xyz
  1	'y, x, -z'
  2	'-y, -x, -z'
  3	'-y, x, -z'
  4	'y, -x, -z'
  5	'-x, y, -z'
  6	'x, -y, -z'
  7	'x, y, -z'
  8	'-x, -y, -z'
  9	'-y, -x, z'
 10	'y, x, z'
 11	'y, -x, z'
 12	'-y, x, z'
 13	'x, -y, z'
 14	'-x, y, z'
 15	'-x, -y, z'
 16	'x, y, z'
 17	'y+.5, x+.5, -z+.5'
 18	'-y+.5, -x+.5, -z+.5'
 19	'-y+.5, x+.5, -z+.5'
 20	'y+.5, -x+.5, -z+.5'
 21	'-x+.5, y+.5, -z+.5'
 22	'x+.5, -y+.5, -z+.5'
 23	'x+.5, y+.5, -z+.5'
 24	'-x+.5, -y+.5, -z+.5'
 25	'-y+.5, -x+.5, z+.5'
 26	'y+.5, x+.5, z+.5'
 27	'y+.5, -x+.5, z+.5'
 28	'-y+.5, x+.5, z+.5'
 29	'x+.5, -y+.5, z+.5'
 30	'-x+.5, y+.5, z+.5'
 31	'-x+.5, -y+.5, z+.5'
 32	'x+.5, y+.5, z+.5'
loop_
_atom_type_symbol
_atom_type_oxidation_number
Ag2+	2
Cs1+	1
F1-	-1
loop_
_atom_site_label
_atom_site_type_symbol
_atom_site_symmetry_multiplicity
_atom_site_Wyckoff_symbol
_atom_site_fract_x
_atom_site_fract_y
_atom_site_fract_z
_atom_site_occupancy
_atom_site_attached_hydrogens
Ag1 Ag2+ 2 a 0 0 0 1. 0 
Cs1 Cs1+ 4 e 0 0 0.36 1. 0 
F1 F1- 4 e 0 0 0.15 1. 0 
F2 F1- 4 c 0 0.5 0 1. 0 

#End of data_16254-ICSD


