data_1969-ICSD
#?2014 by Fachinformationszentrum Karlsruhe, and the U.S. Secretary of 
#Commerce on behalf of the United States.  All rights reserved.
_database_code_ICSD                1969
_audit_creation_date               1980/01/01
_audit_update_record               2010/02/01
_chemical_name_systematic          'Dipotassium Triiodoargentate'
_chemical_formula_structural       'K2 (Ag I3)'
_chemical_formula_sum              'Ag1 I3 K2'
_publ_section_title                'Dipotassium silver triiodide'
loop_
_citation_id
_citation_journal_abbrev
_citation_year
_citation_journal_volume
_citation_page_first
_citation_page_last
_citation_journal_id_ASTM
primary 'Acta Crystallographica B (24,1968-38,1982)' 1975 31 2339 2340 ACBCAR
2 'Acta Crystallographica B (24,1968-38,1982)' 1976 32 1619 1619 ACBCAR
_publ_author_name                  'Thackeray, M.M.;Coetzer, J.'
_cell_length_a                     10.01(1)
_cell_length_b                     4.78(1)
_cell_length_c                     19.320(20)
_cell_angle_alpha                  90.
_cell_angle_beta                   90.
_cell_angle_gamma                  90.
_cell_volume                       924.42
_cell_formula_units_Z              4
_symmetry_space_group_name_H-M     'P n m a'
_symmetry_Int_Tables_number        62
_refine_ls_R_factor_all            .062
loop_
_symmetry_equiv_pos_site_id
_symmetry_equiv_pos_as_xyz
  1	'x+.5, y, -z+.5'
  2	'x, -y+.5, z'
  3	'-x+.5, y+.5, z+.5'
  4	'-x, -y, -z'
  5	'-x+.5, -y, z+.5'
  6	'-x, y+.5, -z'
  7	'x+.5, -y+.5, -z+.5'
  8	'x, y, z'
loop_
_atom_type_symbol
_atom_type_oxidation_number
Ag1+	1
I1-	-1
K1+	1
loop_
_atom_site_label
_atom_site_type_symbol
_atom_site_symmetry_multiplicity
_atom_site_Wyckoff_symbol
_atom_site_fract_x
_atom_site_fract_y
_atom_site_fract_z
_atom_site_occupancy
_atom_site_attached_hydrogens
I1 I1- 4 c 0.4895(3) 0.25 0.4013(2) 1. 0 
I2 I1- 4 c 0.8807(3) 0.75 0.4294(2) 1. 0 
I3 I1- 4 c 0.6884(3) 0.75 0.2226(2) 1. 0 
Ag1 Ag1+ 4 c 0.6280(5) 0.75 0.3646(2) 1. 0 
K1 K1+ 4 c 0.9223(12) 0.25 0.2880(6) 1. 0 
K2 K1+ 4 c 0.7526(13) 0.25 0.5403(6) 1. 0 

loop_
_atom_site_aniso_label
_atom_site_aniso_type_symbol
_atom_site_aniso_U_11
_atom_site_aniso_U_22
_atom_site_aniso_U_33
_atom_site_aniso_U_12
_atom_site_aniso_U_13
_atom_site_aniso_U_23
I1 I1- 0.0262(19) 0.0292(22) 0.032(2) 0 0.0035(16) 0
I2 I1- 0.0199(19) 0.0446(25) 0.0240(19) 0 -.0006(15) 0
I3 I1- 0.0260(19) 0.0426(24) 0.0199(17) 0 -.0017(15) 0
Ag1 Ag1+ 0.0327(25) 0.0538(26) 0 0.0012(20) 0 0
K1 K1+ 0.0281(67) 0.0494(88) 0.0285(66) 0 -.0050(57) 0
K2 K1+ 0.0292(69) 0.0634(99) 0.0200(64) 0 0.0017(55) 0
#End of data_1969-ICSD


