data_300162-ICSD
#?2014 by Fachinformationszentrum Karlsruhe, and the U.S. Secretary of 
#Commerce on behalf of the United States.  All rights reserved.
_database_code_ICSD                300162
_audit_creation_date               1991/07/10
_audit_update_record               1991/10/30
_chemical_name_systematic
;
Hexasodium Di-mue-thio-bis(dithiogallate) - Ii
;
_chemical_formula_structural       'Na6 Ga2 S6'
_chemical_formula_sum              'Ga2 Na6 S6'
_publ_section_title
;
Crystal structure of hexasodium di-mue-thiobis(dithiogallate)
;
loop_
_citation_id
_citation_journal_abbrev
_citation_year
_citation_journal_volume
_citation_page_first
_citation_page_last
_citation_journal_id_ASTM
primary 'Zeitschrift fuer Kristallographie (1979-2010)' 1991 197 147 148 ZEKRDZ
_publ_author_name                  'Eisenmann, B.;Hofmann, A.'
_cell_length_a                     13.691(5)
_cell_length_b                     12.099(5)
_cell_length_c                     7.653(3)
_cell_angle_alpha                  90.
_cell_angle_beta                   98.384(60)
_cell_angle_gamma                  90.
_cell_volume                       1254.15
_cell_formula_units_Z              4
_symmetry_space_group_name_H-M     'P 1 21/c 1'
_symmetry_Int_Tables_number        14
_refine_ls_R_factor_all            .056
loop_
_symmetry_equiv_pos_site_id
_symmetry_equiv_pos_as_xyz
  1	'x, -y+.5, z+.5'
  2	'-x, -y, -z'
  3	'-x, y+.5, -z+.5'
  4	'x, y, z'
loop_
_atom_type_symbol
_atom_type_oxidation_number
Ga3+	3
Na1+	1
S2-	-2
loop_
_atom_site_label
_atom_site_type_symbol
_atom_site_symmetry_multiplicity
_atom_site_Wyckoff_symbol
_atom_site_fract_x
_atom_site_fract_y
_atom_site_fract_z
_atom_site_occupancy
_atom_site_attached_hydrogens
Na1 Na1+ 4 e 0.0140(2) 0.7509(3) 0.0034(5) 1. 0 
Na2 Na1+ 4 e 0.1935(2) 0.0187(3) 0.0831(4) 1. 0 
Na3 Na1+ 4 e 0.2411(2) 0.3081(3) 0.0354(5) 1. 0 
Na4 Na1+ 4 e 0.4736(3) 0.2373(3) 0.4154(5) 1. 0 
Na5 Na1+ 4 e 0.6333(3) 0.0881(3) 0.1106(4) 1. 0 
Na6 Na1+ 4 e 0.7570(2) 0.3279(3) 0.0057(4) 1. 0 
Ga1 Ga3+ 4 e 0.074 0.4926(1) 0.1781(1) 1. 0 
Ga2 Ga3+ 4 e 0.5666 0.4783(1) 0.1824(1) 1. 0 
S1 S2- 4 e 0.0974(1) 0.0020(1) 0.3799(2) 1. 0 
S2 S2- 4 e 0.1231(1) 0.3301(1) 0.2982(2) 1. 0 
S3 S2- 4 e 0.1474(1) 0.6406(1) 0.3111(2) 1. 0 
S4 S2- 4 e 0.3870(1) 0.1100(1) 0.1184(2) 1. 0 
S5 S2- 4 e 0.3960(1) 0.4669(1) 0.0921(2) 1. 0 
S6 S2- 4 e 0.6309(1) 0.3146(1) 0.2641(2) 1. 0 

#End of data_300162-ICSD


