data_202648-ICSD
#?2014 by Fachinformationszentrum Karlsruhe, and the U.S. Secretary of 
#Commerce on behalf of the United States.  All rights reserved.
_database_code_ICSD                202648
_audit_creation_date               1989/06/19
_audit_update_record               1992/08/19
_chemical_name_systematic
;
Dilithium Zirconium Tellurium Oxide
;
_chemical_formula_structural       'Li2 Zr Te O6'
_chemical_formula_sum              'Li2 O6 Te1 Zr1'
_publ_section_title
;
Les tellurates mixtes Li2 Zr Te O6 et Li2 Hf Te O6: un nouveau 
phenomene d'ordre dans la famille corindon
;
loop_
_citation_id
_citation_journal_abbrev
_citation_year
_citation_journal_volume
_citation_page_first
_citation_page_last
_citation_journal_id_ASTM
primary 'Journal of Solid State Chemistry' 1988 75 124 135 JSSCBI
_publ_author_name                  'Choisnet, J.;Rulmont, A.;Tarte, P.'
_cell_length_a                     5.172(2)
_cell_length_b                     5.172(2)
_cell_length_c                     13.847(6)
_cell_angle_alpha                  90.
_cell_angle_beta                   90.
_cell_angle_gamma                  120.
_cell_volume                       320.78
_cell_formula_units_Z              3
_symmetry_space_group_name_H-M     'R 3 H'
_symmetry_Int_Tables_number        146
_refine_ls_R_factor_all            .043
loop_
_symmetry_equiv_pos_site_id
_symmetry_equiv_pos_as_xyz
  1	'-x+y, -x, z'
  2	'-y, x-y, z'
  3	'x, y, z'
  4	'-x+y+.6666, -x+.3333, z+.3333'
  5	'-x+y+.3333, -x+.6666, z+.6666'
  6	'-y+.6666, x-y+.3333, z+.3333'
  7	'-y+.3333, x-y+.6666, z+.6666'
  8	'x+.6666, y+.3333, z+.3333'
  9	'x+.3333, y+.6666, z+.6666'
loop_
_atom_type_symbol
_atom_type_oxidation_number
Li1+	1
O2-	-2
Te6+	6
Zr4+	4
loop_
_atom_site_label
_atom_site_type_symbol
_atom_site_symmetry_multiplicity
_atom_site_Wyckoff_symbol
_atom_site_fract_x
_atom_site_fract_y
_atom_site_fract_z
_atom_site_occupancy
_atom_site_attached_hydrogens
_atom_site_B_iso_or_equiv
Li1 Li1+ 3 a 0 0 0.29(1) 1. 0 1. 
Li2 Li1+ 3 a 0 0 0.76(1) 1. 0 1. 
Zr1 Zr4+ 3 a 0 0 0.993(1) 1. 0 0.9(1) 
Te1 Te6+ 3 a 0 0 0.500(1) 1. 0 0.8(1) 
O1 O2- 9 b 0.049(2) 0.355(3) 0.077(4) 1. 0 1.1(6) 
O2 O2- 9 b 0.652(2) 0.962(2) 0.576(4) 1. 0 0.8(5) 

#End of data_202648-ICSD


