data_26405-ICSD
#?2014 by Fachinformationszentrum Karlsruhe, and the U.S. Secretary of 
#Commerce on behalf of the United States.  All rights reserved.
_database_code_ICSD                26405
_audit_creation_date               1981/12/31
_audit_update_record               2006/04/01
_chemical_name_systematic          'Heptasodium Trialuminium Oxide'
_chemical_formula_structural       'Na7 Al3 O8'
_chemical_formula_sum              'Al3 Na7 O8'
_publ_section_title
;
Preparation and crystal structures of the first alkali-rich sodium 
aluminates Na7 Al3 O8 and Na5 Al O4
;
loop_
_citation_id
_citation_journal_abbrev
_citation_year
_citation_journal_volume
_citation_page_first
_citation_page_last
_citation_journal_id_ASTM
primary 'Journal of the Chemical Society. Chemical Communications (1972-)'
 1981 1981 379 381 JCCCAT
2
;
Journal of the Chemical Society. Dalton Transactions, Inorganic 
Chemistry (1972-)
;
 1983 1984 1139 1146 JCDTBI
_publ_author_name
;
Barker, M.G.;Gadd, P.G.;Begley, M.J.
;
_cell_length_a                     7.972
_cell_length_b                     5.851
_cell_length_c                     11.272
_cell_angle_alpha                  89.71
_cell_angle_beta                   110.57
_cell_angle_gamma                  108.99
_cell_volume                       461.9
_cell_formula_units_Z              2
_symmetry_space_group_name_H-M     'P -1'
_symmetry_Int_Tables_number        2
_refine_ls_R_factor_all            .0327
loop_
_symmetry_equiv_pos_site_id
_symmetry_equiv_pos_as_xyz
  1	'-x, -y, -z'
  2	'x, y, z'
loop_
_atom_type_symbol
_atom_type_oxidation_number
Al3+	3
Na1+	1
O2-	-2
loop_
_atom_site_label
_atom_site_type_symbol
_atom_site_symmetry_multiplicity
_atom_site_Wyckoff_symbol
_atom_site_fract_x
_atom_site_fract_y
_atom_site_fract_z
_atom_site_occupancy
_atom_site_attached_hydrogens
Na1 Na1+ 2 i 0.6926(2) 0.4466(3) 0.7623(1) 1. 0 
Na2 Na1+ 2 i -.0875(2) -1.3719(3) 0.5559(1) 1. 0 
Na3 Na1+ 2 i 0.4830(2) -.2772(3) 0.5524(1) 1. 0 
Na4 Na1+ 2 i 0.9001(2) 0.1517(3) 0.6674(1) 1. 0 
Na5 Na1+ 2 i 0.5093(2) 0.7446(3) 0.0565(1) 1. 0 
Na6 Na1+ 2 i 0.7078(2) 0.4714(3) 0.2708(1) 1. 0 
Na7 Na1+ 2 i 0.9019(2) 0.6592(3) 0.0516(1) 1. 0 
Al1 Al3+ 2 i 0.0939(1) -1.1653(2) 0.8406(1) 1. 0 
Al2 Al3+ 2 i 0.3249(1) -.9585(2) 0.6457(1) 1. 0 
Al3 Al3+ 2 i 0.2996(1) 0.0692(2) 0.1357(1) 1. 0 
O1 O2- 2 i 0.0102(3) -1.4634(4) 0.7698(2) 1. 0 
O2 O2- 2 i 0.3668(4) -.6812(4) 0.5825(2) 1. 0 
O3 O2- 2 i 0.5567(4) 0.0208(5) 0.7285(2) 1. 0 
O4 O2- 2 i 0.2004(3) -1.2199(4) 0.5357(2) 1. 0 
O5 O2- 2 i 0.2157(4) -.9515(5) 0.7601(2) 1. 0 
O6 O2- 2 i 0.4047(4) 0.3598(4) 0.1042(2) 1. 0 
O7 O2- 2 i 0.0974(4) 0.0689(5) 0.1659(2) 1. 0 
O8 O2- 2 i 0.7678(4) 0.1526(5) -.0046(2) 1. 0 

loop_
_atom_site_aniso_label
_atom_site_aniso_type_symbol
_atom_site_aniso_U_11
_atom_site_aniso_U_22
_atom_site_aniso_U_33
_atom_site_aniso_U_12
_atom_site_aniso_U_13
_atom_site_aniso_U_23
Na1 Na1+ 0.0105(7) 0.0147(7) 0.0178(8) 0.0023(6) 0.0069(6) -.0019(6)
Na2 Na1+ 0.0082(7) 0.0146(7) 0.0097(7) 0.0033(6) 0.0032(6) 0.0011(5)
Na3 Na1+ 0.0143(8) 0.0129(7) 0.0161(8) 0.0048(6) 0.0101(6) 0.0014(6)
Na4 Na1+ 0.0275(9) 0.0122(7) 0.0090(7) 0.0054(7) 0.0042(6) 0.0019(6)
Na5 Na1+ 0.0103(7) 0.0114(7) 0.0116(7) 0.0032(6) 0.0052(6) 0.0014(6)
Na6 Na1+ 0.0119(7) 0.0222(8) 0.0136(8) 0.0070(6) 0.0054(6) -.0008(6)
Na7 Na1+ 0.0153(8) 0.0185(8) 0.0136(8) 0.0060(6) 0.0009(6) 0.0032(6)
Al1 Al3+ 0.0035(5) 0.0053(5) 0.0043(5) 0.0003(4) 0.0020(4) -.0003(4)
Al2 Al3+ 0.0040(5) 0.0054(5) 0.0041(5) 0.0011(4) 0.0025(4) 0.0008(4)
Al3 Al3+ 0.0042(5) 0.0066(5) 0.0043(5) 0.0019(4) 0.0022(4) 0.0008(4)
O1 O2- 0.008(1) 0.008(1) 0.007(1) 0.001(1) 0.002(1) -.0007(9)
O2 O2- 0.010(1) 0.010(1) 0.011(1) 0.005(1) 0.007(1) 0.0047(9)
O3 O2- 0.008(1) 0.012(1) 0.008(1) 0.004(1) 0.000(1) 0.002(1)
O4 O2- 0.007(1) 0.009(1) 0.008(1) 0.000(1) 0.002(1) 0.0018(9)
O5 O2- 0.013(1) 0.010(1) 0.011(1) 0.001(1) 0.009(1) 0.001(1)
O6 O2- 0.010(1) 0.006(1) 0.012(1) 0.0016(9) 0.006(1) 0.0020(9)
O7 O2- 0.007(1) 0.014(1) 0.013(1) 0.006(1) 0.006(1) 0.003(1)
O8 O2- 0.012(1) 0.015(1) 0.008(1) 0.008(1) 0.002(1) -.002(1)
#End of data_26405-ICSD


