data_81393-ICSD
#?2014 by Fachinformationszentrum Karlsruhe, and the U.S. Secretary of 
#Commerce on behalf of the United States.  All rights reserved.
_database_code_ICSD                81393
_audit_creation_date               1997/11/05
_chemical_name_systematic
;
Calcium Disodium Tetrakis(phosphate(V))
;
_chemical_formula_structural       'Ca Na2 (P O3)4'
_chemical_formula_sum              'Ca1 Na2 O12 P4'
_publ_section_title
;
Ca Na2 P4 O12, a new compound in the Ca (P O3)2 - Na P O3 system
;
loop_
_citation_id
_citation_journal_abbrev
_citation_year
_citation_journal_volume
_citation_page_first
_citation_page_last
_citation_journal_id_ASTM
primary 'European Journal of Solid State Inorganic Chemistry'
 1996 33 15 18 EJSCE5
_publ_author_name                  'Averbuch-Pouchot, M.T.'
_cell_length_a                     9.568(4)
_cell_length_b                     9.568(4)
_cell_length_c                     4.909(2)
_cell_angle_alpha                  90.
_cell_angle_beta                   90.
_cell_angle_gamma                  90.
_cell_volume                       449.4
_cell_formula_units_Z              2
_symmetry_space_group_name_H-M     'P 4/n b m Z'
_symmetry_Int_Tables_number        125
_refine_ls_R_factor_all            .036
loop_
_symmetry_equiv_pos_site_id
_symmetry_equiv_pos_as_xyz
  1	'y+.5, x+.5, z'
  2	'y, -x+.5, z'
  3	'-y+.5, x, z'
  4	'-y, -x, z'
  5	'-y+.5, -x+.5, -z'
  6	'-y, x+.5, -z'
  7	'y+.5, -x, -z'
  8	'y, x, -z'
  9	'x+.5, y+.5, -z'
 10	'-x+.5, y, -z'
 11	'x, -y+.5, -z'
 12	'-x, -y, -z'
 13	'-x+.5, -y+.5, z'
 14	'x+.5, -y, z'
 15	'-x, y+.5, z'
 16	'x, y, z'
loop_
_atom_type_symbol
_atom_type_oxidation_number
Ca2+	2
Na1+	1
O2-	-2
P5+	5
loop_
_atom_site_label
_atom_site_type_symbol
_atom_site_symmetry_multiplicity
_atom_site_Wyckoff_symbol
_atom_site_fract_x
_atom_site_fract_y
_atom_site_fract_z
_atom_site_occupancy
_atom_site_attached_hydrogens
_atom_site_B_iso_or_equiv
Ca1 Ca2+ 2 b 0.25 0.25 0.5 1. 0 0.95(2) 
Na1 Na1+ 4 f 0 0 0.5 1. 0 1.61(4) 
P1 P5+ 8 k 0.5325(1) 0.25 0 1. 0 0.80(2) 
O1 O2- 8 m 0.6371(3) 0.3629(3) 0.1286(8) 1. 0 0.94(4) 
O2 O2- 16 n 0.1902(3) 0.0434(3) 0.2326(5) 1. 0 1.04(4) 

#End of data_81393-ICSD


