data_9054-ICSD
#?2014 by Fachinformationszentrum Karlsruhe, and the U.S. Secretary of 
#Commerce on behalf of the United States.  All rights reserved.
_database_code_ICSD                9054
_audit_creation_date               1980/01/01
_audit_update_record               1990/05/24
_chemical_name_systematic          'Sodium Thiosulfate Pentahydrate'
_chemical_formula_structural       'Na2 S2 O3 (H2 O)5'
_chemical_formula_sum              'H10 Na2 O8 S2'
_publ_section_title
;
Neutron Diffraction Study of Sodium Thiosulphate Pentahydrate, Na2 S2 
O3 (H2 O)5
;
loop_
_citation_id
_citation_journal_abbrev
_citation_year
_citation_journal_volume
_citation_page_first
_citation_page_last
_citation_journal_id_ASTM
primary 'Acta Crystallographica B (24,1968-38,1982)' 1971 27 253 257 ACBCAR
_publ_author_name
;
Padmanabhan, V.M.;Yadava, V.S.;Navarro, Q.O.;Garcia, A.;Karsono, 
L.;Suh, I.-H.;Chien, L.S.
;
_cell_length_a                     5.941
_cell_length_b                     21.57
_cell_length_c                     7.53
_cell_angle_alpha                  90.
_cell_angle_beta                   103.967
_cell_angle_gamma                  90.
_cell_volume                       936.42
_cell_formula_units_Z              4
_symmetry_space_group_name_H-M     'P 1 21/c 1'
_symmetry_Int_Tables_number        14
_refine_ls_R_factor_all            .082
loop_
_symmetry_equiv_pos_site_id
_symmetry_equiv_pos_as_xyz
  1	'x, -y+.5, z+.5'
  2	'-x, -y, -z'
  3	'-x, y+.5, -z+.5'
  4	'x, y, z'
loop_
_atom_type_symbol
_atom_type_oxidation_number
H1+	1
Na1+	1
O2-	-2
S2-	-2
S6+	6
loop_
_atom_site_label
_atom_site_type_symbol
_atom_site_symmetry_multiplicity
_atom_site_Wyckoff_symbol
_atom_site_fract_x
_atom_site_fract_y
_atom_site_fract_z
_atom_site_occupancy
_atom_site_attached_hydrogens
_atom_site_B_iso_or_equiv
S1 S2- 4 e 0.089(1) 0.065(1) 0.102(2) 1. 0 1.62 
S2 S6+ 4 e 0.148(2) 0.137(1) 0.261(2) 1. 0 1.26 
Na1 Na1+ 4 e 0.703(2) 0.339(1) 0.078(2) 1. 0 1.23 
Na2 Na1+ 4 e 0.236(2) 0.399(1) 0.191(2) 1. 0 1.81 
O1 O2- 4 e 0.337(2) 0.140(2) 0.425(1) 1. 0 2.2 
O2 O2- 4 e 0.946(1) 0.151(2) 0.329(2) 1. 0 1.93 
O3 O2- 4 e 0.201(2) 0.195(1) 0.178(1) 1. 0 1.62 
O4 O2- 4 e 0.605(2) 0.233(2) 0.094(1) 1. 0 1.82 
O5 O2- 4 e 0.079(1) 0.310(2) 0.294(1) 1. 0 1.9 
O6 O2- 4 e 0.624(2) 0.365(2) 0.362(1) 1. 0 2.21 
O7 O2- 4 e 0.863(2) 0.453(1) 0.113(1) 1. 0 1.92 
O8 O2- 4 e 0.648(1) 0.017(1) 0.250(2) 1. 0 1.62 
H1 H1+ 4 e 0.462(3) 0.224(2) 0.135(3) 1. 0 3.31 
H2 H1+ 4 e 0.733(3) 0.206(2) 0.156(3) 1. 0 2.62 
H3 H1+ 4 e 0.127(3) 0.271(2) 0.253(3) 1. 0 2.31 
H4 H1+ 4 e 0.104(3) 0.311(2) 0.420(3) 1. 0 3.81 
H5 H1+ 4 e 0.613(3) 0.325(3) 0.408(3) 1. 0 3.72 
H6 H1+ 4 e 0.694(4) 0.397(3) 0.434(2) 1. 0 4.21 
H7 H1+ 4 e 0.802(3) 0.478(2) 0.191(3) 1. 0 4.1 
H8 H1+ 4 e 0.794(2) 0.454(2) 0.993(3) 1. 0 2.94 
H9 H1+ 4 e 0.768(2) 0.046(2) 0.291(3) 1. 0 2.62 
H10 H1+ 4 e 0.495(4) 0.031(2) 0.190(3) 1. 0 3.61 

#End of data_9054-ICSD


