data_188671-ICSD
#?2014 by Fachinformationszentrum Karlsruhe, and the U.S. Secretary of 
#Commerce on behalf of the United States.  All rights reserved.
_database_code_ICSD                188671
_audit_creation_date               2014/02/01
_chemical_name_systematic
;
Trisodium Vanadium(III) Triphosphate Nitride
;
_chemical_formula_structural       'Na3 V (P O3)3 N'
_chemical_formula_sum              'N1 Na3 O9 P3 V1'
_publ_section_title
;
Synchrotron powder study of Na3 V (P O3)3 N
;
loop_
_citation_id
_citation_journal_abbrev
_citation_year
_citation_journal_volume
_citation_journal_issue
_citation_page_first
_citation_page_last
_citation_journal_id_ASTM
primary 'Acta Crystallographica, Section E. Structure Reports Online'
 2013 69 6 i34 i34 ACSEBH
_publ_author_name                  'Minwoong Kim;Seung-Joo Kim'
_cell_length_a                     9.44783(5)
_cell_length_b                     9.44783(5)
_cell_length_c                     9.44783(5)
_cell_angle_alpha                  90.00000
_cell_angle_beta                   90.00000
_cell_angle_gamma                  90.00000
_cell_volume                       843.33
_cell_formula_units_Z              4
_symmetry_space_group_name_H-M     'P 21 3'
_symmetry_Int_Tables_number        198
_refine_ls_R_factor_all            .075
loop_
_symmetry_equiv_pos_site_id
_symmetry_equiv_pos_as_xyz
  1	'-z+.5, -x, y+.5'
  2	'-y+.5, -z, x+.5'
  3	'-x+.5, -y, z+.5'
  4	'-z, x+.5, -y+.5'
  5	'-y, z+.5, -x+.5'
  6	'-x, y+.5, -z+.5'
  7	'z+.5, -x+.5, -y'
  8	'y+.5, -z+.5, -x'
  9	'x+.5, -y+.5, -z'
 10	'z, x, y'
 11	'y, z, x'
 12	'x, y, z'
loop_
_atom_type_symbol
_atom_type_oxidation_number
N3-	-3
Na1+	1
O2-	-2
P5+	5
V3+	3
loop_
_atom_site_label
_atom_site_type_symbol
_atom_site_symmetry_multiplicity
_atom_site_Wyckoff_symbol
_atom_site_fract_x
_atom_site_fract_y
_atom_site_fract_z
_atom_site_occupancy
_atom_site_attached_hydrogens
_atom_site_U_iso_or_equiv
P1 P5+ 12 b 0.3326(3) 0.0844(3) 0.2446(3) 1.00000 0 0.0143(4) 
V1 V3+ 4 a 0.08073(17) -0.08073(17) 0.41927(17) 1.00000 0 0.0144(6) 
Na1 Na1+ 4 a 0.0136(3) 0.0136(3) 0.0136(3) 1.00000 0 0.0278(18) 
Na2 Na1+ 4 a 0.3913(4) 0.3913(4) 0.3913(4) 1.00000 0 0.0171(18) 
Na3 Na1+ 4 a 0.6989(5) 0.1989(5) 0.3011(5) 1.00000 0 0.0310(19) 
O1 O2- 12 b 0.2722(6) -0.0265(6) 0.3479(5) 1.00000 0 0.0130(14) 
O2 O2- 12 b 0.3727(5) 0.0002(6) 0.1109(5) 1.00000 0 0.0073(15) 
O3 O2- 12 b 0.4543(6) 0.1700(6) 0.3106(6) 1.00000 0 0.0160(18) 
N1 N3- 4 a 0.1937(7) 0.1937(7) 0.1937(7) 1.00000 0 0.012(3) 

#End of data_188671-ICSD


