data_249311-ICSD
#?2014 by Fachinformationszentrum Karlsruhe, and the U.S. Secretary of 
#Commerce on behalf of the United States.  All rights reserved.
_database_code_ICSD                249311
_audit_creation_date               2008/02/01
_audit_update_record               2011/02/01
_chemical_name_systematic
;
Lithium Sodium Hydroxoheptaoxotriborosilicate
;
_chemical_formula_structural       'Li Na (Si B3 O7 (O H))'
_chemical_formula_sum              'H1 B3 Li1 Na1 O8 Si1'
_chemical_name_mineral             Jadarite
_publ_section_title
;
Li Na Si B3 O7 (O H) - novel structure of the new borosilicate 
mineral jadarite determined from laboratory powder diffraction data
;
loop_
_citation_id
_citation_journal_abbrev
_citation_year
_citation_journal_volume
_citation_journal_issue
_citation_page_first
_citation_page_last
_citation_journal_id_ASTM
primary 'Acta Crystallographica, Section B: Structural Science'
 2007 63 3 396 401 ASBSDK
_publ_author_name
;
Whitfield, P.S.;le Page, Y.;Grice, J.D.;Stanley, C.J.;Jones, 
G.C.;Rumsey, M.S.;Blake, C.;Roberts, A.C.;Stirling, J.A.R.;Carpenter, 
G.J.C.
;
_cell_length_a                     6.76200(10)
_cell_length_b                     13.8016(3)
_cell_length_c                     7.6878(2)
_cell_angle_alpha                  90.000
_cell_angle_beta                   124.0890(10)
_cell_angle_gamma                  90.000
_cell_volume                       594.19
_cell_formula_units_Z              4
_symmetry_space_group_name_H-M     'P 1 21/c 1'
_symmetry_Int_Tables_number        14
_refine_ls_R_factor_all            .013
loop_
_symmetry_equiv_pos_site_id
_symmetry_equiv_pos_as_xyz
  1	'x, -y+.5, z+.5'
  2	'-x, -y, -z'
  3	'-x, y+.5, -z+.5'
  4	'x, y, z'
loop_
_atom_type_symbol
_atom_type_oxidation_number
B3+	3
H1+	1
Li1+	1
Na1+	1
O2-	-2
Si4+	4
loop_
_atom_site_label
_atom_site_type_symbol
_atom_site_symmetry_multiplicity
_atom_site_Wyckoff_symbol
_atom_site_fract_x
_atom_site_fract_y
_atom_site_fract_z
_atom_site_occupancy
_atom_site_attached_hydrogens
_atom_site_U_iso_or_equiv
Li1 Li1+ 4 e 0.462(2) 0.1995(6) 0.1383(15) 1.000 0 0.046(3) 
Na1 Na1+ 4 e 0.9733(3) 0.99060(10) 0.7544(3) 1.000 0 0.0764 
B1 B3+ 4 e 0.2096(17) 0.1602(8) 0.6623(18) 1.000 0 0.091(3) 
B2 B3+ 4 e 0.6920(14) 0.3493(6) 0.4160(15) 1.000 0 0.054(2) 
B3 B3+ 4 e 0.5290(10) 0.5022(4) 0.7860(9) 1.000 0 0.0947 
Si1 Si4+ 4 e 0.0378(4) 0.7539(2) 0.2048(3) 1.000 0 0.0584(5) 
O1 O2- 4 e 0.8157(7) 0.7241(3) 0.9895(6) 1.000 0 0.0651(14) 
O2 O2- 4 e 0.2673(7) 0.7818(3) 0.2102(6) 1.000 0 0.0663(13) 
O3 O2- 4 e 0.9733(6) 0.8483(3) 0.2873(7) 1.000 0 0.0581(14) 
O4 O2- 4 e 0.1150(5) 0.6584(3) 0.3491(6) 1.000 0 0.0542(13) 
O5 O2- 4 e 0.7457(8) 0.5506(3) 0.8761(9) 1.000 0 0.0708(15) 
O6 O2- 4 e 0.6846(9) 0.4560(3) 0.3520(8) 1.000 0 0.0570(13) 
O7 O2- 4 e 0.5489(7) 0.6725(3) 0.6198(6) 1.000 0 0.0634(12) 
O8 O2- 4 e 0.5299(3) 0.4051(3) 0.8362(6) 1.000 0 0.0733(14) 
H1 H1+ 4 e 0.699(3) 0.3993(14) 0.936(3) 1.000 0 0.0953(19) 

loop_
_atom_site_aniso_label
_atom_site_aniso_type_symbol
_atom_site_aniso_U_11
_atom_site_aniso_U_22
_atom_site_aniso_U_33
_atom_site_aniso_U_12
_atom_site_aniso_U_13
_atom_site_aniso_U_23
Na1 Na1+ 0.091(6) 0.0657(18) 0.081(2) 0.01(7) 0.038(2) -0.0046(19)
B3 B3+ 0.046(7) 0.158(10) 0.098(11) 0.016(7) 0.043(8) 0.078(8)
#End of data_249311-ICSD


