data_413873-ICSD
#?2014 by Fachinformationszentrum Karlsruhe, and the U.S. Secretary of 
#Commerce on behalf of the United States.  All rights reserved.
_database_code_ICSD                413873
_audit_creation_date               2005/10/01
_chemical_name_systematic          'Potassium Uranyltris(iodate)'
_chemical_formula_structural       'K (U O2 (I O3)3)'
_chemical_formula_sum              'I3 K1 O11 U1'
_publ_section_title
;
Crystal chemistry and ion-exchange properties of the layered uranyl 
iodate K [U O2 (I O3)3]
;
loop_
_citation_id
_citation_journal_abbrev
_citation_year
_citation_journal_volume
_citation_page_first
_citation_page_last
_citation_journal_id_ASTM
primary 'Journal of Solid State Chemistry' 2005 178 499 504 JSSCBI
_publ_author_name
;
Shvareva, T.Y.;Almond, P.M.;Albrecht Schmitt, T.E.
;
_cell_length_a                     11.4950(10)
_cell_length_b                     7.2293(7)
_cell_length_c                     25.394(2)
_cell_angle_alpha                  90.00
_cell_angle_beta                   90.00
_cell_angle_gamma                  90.00
_cell_volume                       2110.26
_cell_formula_units_Z              8
_symmetry_space_group_name_H-M     'P b c a'
_symmetry_Int_Tables_number        61
_refine_ls_R_factor_all            .0207
loop_
_symmetry_equiv_pos_site_id
_symmetry_equiv_pos_as_xyz
  1	'x+.5, y, -z+.5'
  2	'x, -y+.5, z+.5'
  3	'-x+.5, y+.5, z'
  4	'-x, -y, -z'
  5	'-x+.5, -y, z+.5'
  6	'-x, y+.5, -z+.5'
  7	'x+.5, -y+.5, -z'
  8	'x, y, z'
loop_
_atom_type_symbol
_atom_type_oxidation_number
I5+	5
K1+	1
O2-	-2
U6+	6
loop_
_atom_site_label
_atom_site_type_symbol
_atom_site_symmetry_multiplicity
_atom_site_Wyckoff_symbol
_atom_site_fract_x
_atom_site_fract_y
_atom_site_fract_z
_atom_site_occupancy
_atom_site_attached_hydrogens
_atom_site_U_iso_or_equiv
U1 U6+ 8 c 0.025479(13) 0.03508(2) 0.651857(6) 1 0 0.00879(6) 
I1 I5+ 8 c 0.06541(3) 0.45625(4) 0.562961(11) 1 0 0.01283(7) 
I2 I5+ 8 c -0.29921(2) 0.13659(4) 0.655693(11) 1 0 0.01057(7) 
I3 I5+ 8 c 0.34092(2) 0.05934(4) 0.703091(11) 1 0 0.00965(7) 
K1 K1+ 8 c 0.16417(11) -0.94799(16) 0.47805(5) 1 0 0.0264(3) 
O1 O2- 8 c 0.0605(3) 0.3375(4) 0.62797(12) 1 0 0.0121(6) 
O2 O2- 8 c -0.0357(3) 0.3232(5) 0.52457(13) 1 0 0.0182(7) 
O3 O2- 8 c 0.1980(3) 0.3599(5) 0.53908(14) 1 0 0.0212(7) 
O4 O2- 8 c -0.1523(3) 0.2142(5) 0.64225(14) 1 0 0.0156(7) 
O5 O2- 8 c -0.3464(3) 0.1100(5) 0.58881(13) 1 0 0.0192(7) 
O6 O2- 8 c -0.3497(3) 0.3740(4) 0.66690(15) 1 0 0.0169(7) 
O7 O2- 8 c 0.2277(3) 0.0367(5) 0.65393(12) 1 0 0.0144(7) 
O8 O2- 8 c 0.2723(3) 0.2224(5) 0.74629(13) 1 0 0.0156(7) 
O9 O2- 8 c 0.4362(3) 0.2138(4) 0.66708(13) 1 0 0.0138(6) 
O10 O2- 8 c 0.0261(3) 0.0927(5) 0.72020(13) 1 0 0.0146(7) 
O11 O2- 8 c 0.0272(3) -0.0278(4) 0.58421(14) 1 0 0.0141(7) 

loop_
_atom_site_aniso_label
_atom_site_aniso_type_symbol
_atom_site_aniso_U_11
_atom_site_aniso_U_22
_atom_site_aniso_U_33
_atom_site_aniso_U_12
_atom_site_aniso_U_13
_atom_site_aniso_U_23
U1 U6+ 0.00662(9) 0.00921(9) 0.01054(9) -0.00032(5) -0.00016(5) 0.00007(5)
I1 I5+ 0.01511(15) 0.01254(14) 0.01083(14) -0.00085(10) 0.00132(11) 
0.00105(10)
I2 I5+ 0.00784(13) 0.00866(13) 0.01521(14) 0.00004(9) -0.00013(10) 
0.00134(10)
I3 I5+ 0.00724(13) 0.01041(13) 0.01131(14) -0.00064(9) -0.00017(9) 
0.00083(9)
K1 K1+ 0.0282(6) 0.0267(6) 0.0242(6) 0.0072(5) -0.0119(5) -0.0037(4)
O1 O2- 0.0133(15) 0.0114(15) 0.0117(15) -0.0013(12) -0.0007(12) 0.0032(12)
O2 O2- 0.0234(18) 0.0164(17) 0.0147(17) -0.0037(13) -0.0054(13) 0.0003(13)
O3 O2- 0.0194(17) 0.0218(18) 0.0224(18) 0.0033(14) 0.0085(14) 0.0005(15)
O4 O2- 0.0066(14) 0.0148(16) 0.0255(18) -0.0004(12) 0.0021(13) 0.0048(13)
O5 O2- 0.0219(18) 0.0235(18) 0.0122(16) -0.0021(14) -0.0051(13) 0.0007(14)
O6 O2- 0.0115(15) 0.0064(14) 0.0329(19) 0.0011(12) -0.0042(14) -0.0016(13)
O7 O2- 0.0082(15) 0.0205(18) 0.0145(17) 0.0001(12) -0.0003(12) -0.0009(12)
O8 O2- 0.0145(15) 0.0181(16) 0.0140(16) 0.0016(12) 0.0017(13) -0.0028(13)
O9 O2- 0.0143(15) 0.0100(15) 0.0171(16) -0.0038(12) 0.0015(13) 0.0014(12)
O10 O2- 0.0125(16) 0.0193(17) 0.0120(16) 0.0000(12) 0.0008(12) -0.0026(13)
O11 O2- 0.0145(17) 0.0152(17) 0.0127(16) 0.0013(12) -0.0014(12) -0.0041(13)
#End of data_413873-ICSD


