data_79650-ICSD
#?2014 by Fachinformationszentrum Karlsruhe, and the U.S. Secretary of 
#Commerce on behalf of the United States.  All rights reserved.
_database_code_ICSD                79650
_audit_creation_date               1996/10/14
_audit_update_record               2005/10/01
_chemical_name_systematic          'Potassium Oxotin Phosphate(V)'
_chemical_formula_structural       'K (Sn O) (P O4)'
_chemical_formula_sum              'K1 O5 P1 Sn1'
_publ_section_title
;
Influence of electronic configuration on the structure and physical 
properties of K Sn O P O4
;
loop_
_citation_id
_citation_journal_abbrev
_citation_year
_citation_journal_volume
_citation_page_first
_citation_page_last
_citation_journal_id_ASTM
primary 'Inorganic Chemistry' 1990 29 3245 3247 INOCAJ
2 'Golden Book of Phase Transitions, Wroclaw' 2002 1 1 123 GBOPT5
_publ_author_name
;
Phillips, M.L.F.;Harrison, W.T.A.;Stucky, G.D.
;
_cell_length_a                     13.170(2)
_cell_length_b                     6.5387(9)
_cell_length_c                     10.745(1)
_cell_angle_alpha                  90.
_cell_angle_beta                   90.
_cell_angle_gamma                  90.
_cell_volume                       925.3
_cell_formula_units_Z              8
_symmetry_space_group_name_H-M     'P n a 21'
_symmetry_Int_Tables_number        33
_refine_ls_R_factor_all            .03
loop_
_symmetry_equiv_pos_site_id
_symmetry_equiv_pos_as_xyz
  1	'x+.5, -y+.5, z'
  2	'-x+.5, y+.5, z+.5'
  3	'-x, -y, z+.5'
  4	'x, y, z'
loop_
_atom_type_symbol
_atom_type_oxidation_number
K1+	1
O2-	-2
P5+	5
Sn4+	4
loop_
_atom_site_label
_atom_site_type_symbol
_atom_site_symmetry_multiplicity
_atom_site_Wyckoff_symbol
_atom_site_fract_x
_atom_site_fract_y
_atom_site_fract_z
_atom_site_occupancy
_atom_site_attached_hydrogens
K1 K1+ 4 a 0.3757(2) 0.7771(3) 0.3135(4) 1. 0 
K2 K1+ 4 a 0.1091(2) 0.6937(4) 0.0718(4) 1. 0 
Sn1 Sn4+ 4 a 0.37295(3) 0.49790(9) 0.0111(3) 1. 0 
Sn2 Sn4+ 4 a 0.24874(5) 0.2540(1) 0.2616(3) 1. 0 
P1 P5+ 4 a 0.5011(2) 0.3413(3) 0.2619(5) 1. 0 
P2 P5+ 4 a 0.1759(1) 0.5009(4) 0.5142(6) 1. 0 
O1 O2- 4 a 0.487(1) 0.487(1) 0.149(1) 1. 0 
O2 O2- 4 a 0.515(1) 0.478(2) 0.378(1) 1. 0 
O3 O2- 4 a 0.4074(5) 0.205(1) 0.2842(8) 1. 0 
O4 O2- 4 a 0.5927(5) 0.201(1) 0.2400(8) 1. 0 
O5 O2- 4 a 0.1056(5) 0.316(1) 0.5369(8) 1. 0 
O6 O2- 4 a 0.1079(6) 0.687(1) 0.4901(9) 1. 0 
O7 O2- 4 a 0.2440(9) 0.531(2) 0.628(1) 1. 0 
O8 O2- 4 a 0.2495(9) 0.471(2) 0.405(1) 1. 0 
O9 O2- 4 a 0.272(1) 0.484(1) 0.149(1) 1. 0 
O10 O2- 4 a 0.2348(9) 0.033(2) 0.387(1) 1. 0 

loop_
_atom_site_aniso_label
_atom_site_aniso_type_symbol
_atom_site_aniso_U_11
_atom_site_aniso_U_22
_atom_site_aniso_U_33
_atom_site_aniso_U_12
_atom_site_aniso_U_13
_atom_site_aniso_U_23
K1 K1+ 0.0236(7) 0.0127(6) 0.0288(8) 0.0057(5) -.0045(6) -.0007(6)
K2 K1+ 0.0163(7) 0.0263(8) 0.041(1) 0.0077(6) 0.0006(7) -.0001(8)
Sn1 Sn4+ 0.0055(1) 0.0051(1) 0.0095(1) -.0001(1) -.0001(3) -.0006(1)
Sn2 Sn4+ 0.0055(1) 0.0059(1) 0.0094(1) -.00034(9) -.0005(1) -.0002(1)
P1 P5+ 0.0060(4) 0.0077(5) 0.0112(5) 0.0007(5) 0.0012(4) -.001(1)
P2 P5+ 0.0077(5) 0.0053(4) 0.0119(5) -.0002(5) -.001(1) 0.0002(4)
O1 O2- 0.009(3) 0.010(3) 0.007(3) -.001(2) 0.002(2) -.002(2)
O2 O2- 0.010(3) 0.015(3) 0.021(4) 0.005(2) 0.005(3) 0.006(3)
O3 O2- 0.009(2) 0.010(2) 0.017(3) -.002(1) 0.002(2) -.001(2)
O4 O2- 0.009(2) 0.011(2) 0.020(3) -.001(2) -.002(2) 0.001(2)
O5 O2- 0.009(2) 0.006(2) 0.022(3) -.002(1) 0.000(2) -.002(2)
O6 O2- 0.013(2) 0.007(2) 0.024(4) 0.001(2) 0.006(2) 0.001(2)
O7 O2- 0.013(3) 0.013(2) 0.012(3) 0.005(3) 0.002(2) 0.004(3)
O8 O2- 0.011(3) 0.011(2) 0.018(4) -.003(2) -.004(2) 0.005(3)
O9 O2- 0.012(3) 0.014(3) 0.022(4) 0.005(2) -.007(3) -.006(2)
O10 O2- 0.008(2) 0.012(2) 0.011(3) 0.003(2) -.002(2) -.003(2)
#End of data_79650-ICSD


