data_245873-ICSD
#?2014 by Fachinformationszentrum Karlsruhe, and the U.S. Secretary of 
#Commerce on behalf of the United States.  All rights reserved.
_database_code_ICSD                245873
_audit_creation_date               2009/02/01
_chemical_name_systematic
;
Pentacalcium Tetradecaoxotritellurate(VI)
;
_chemical_formula_structural       'Ca5 Te3 O14'
_chemical_formula_sum              'Ca5 O14 Te3'
_publ_section_title
;
Chiolite-like Ca5 Te3 O14: An X-ray and neutron diffraction study
;
loop_
_citation_id
_citation_journal_abbrev
_citation_year
_citation_journal_volume
_citation_journal_issue
_citation_page_first
_citation_page_last
_citation_journal_id_ASTM
primary 'Journal of Solid State Chemistry' 2008 181 5 1236 1239 JSSCBI
_publ_author_name                  'Fu, W.T.;Ijdo, D.J.W.'
_cell_length_a                     10.4267(2)
_cell_length_b                     10.3907(2)
_cell_length_c                     10.4702(2)
_cell_angle_alpha                  90.
_cell_angle_beta                   90.
_cell_angle_gamma                  90.
_cell_volume                       1134.35
_cell_formula_units_Z              4
_symmetry_space_group_name_H-M     'C m c a'
_symmetry_Int_Tables_number        64
_refine_ls_R_factor_all            .0306
loop_
_symmetry_equiv_pos_site_id
_symmetry_equiv_pos_as_xyz
  1	'-x, -y+.5, z+.5'
  2	'-x, y+.5, -z+.5'
  3	'-x, y, z'
  4	'-x, -y, -z'
  5	'x, y+.5, -z+.5'
  6	'x, -y+.5, z+.5'
  7	'x, -y, -z'
  8	'x, y, z'
  9	'-x+.5, -y, z+.5'
 10	'-x+.5, y, -z+.5'
 11	'-x+.5, y+.5, z'
 12	'-x+.5, -y+.5, -z'
 13	'x+.5, y, -z+.5'
 14	'x+.5, -y, z+.5'
 15	'x+.5, -y+.5, -z'
 16	'x+.5, y+.5, z'
loop_
_atom_type_symbol
_atom_type_oxidation_number
Ca2+	2
O2-	-2
Te6+	6
loop_
_atom_site_label
_atom_site_type_symbol
_atom_site_symmetry_multiplicity
_atom_site_Wyckoff_symbol
_atom_site_fract_x
_atom_site_fract_y
_atom_site_fract_z
_atom_site_occupancy
_atom_site_attached_hydrogens
_atom_site_B_iso_or_equiv
Ca1 Ca2+ 4 b 0 0 0.5 1. 0 1.3(1) 
Ca2 Ca2+ 8 e 0.25 0.0190(4) 0.25 1. 0 0.23(4) 
Ca3 Ca2+ 8 f 0.5 0.2575(4) 0.2736(3) 1. 0 0.23 
Te1 Te6+ 4 a 0 0 0 1. 0 0.20(2) 
Te2 Te6+ 8 c 0.25 0.25 0 1. 0 0.20 
O1 O2- 8 f 0 -0.0538(5) 0.1732(5) 1. 0 0.46(4) 
O2 O2- 16 g 0.1292(4) 0.1208(4) 0.0611(3) 1. 0 0.46 
O3 O2- 16 g 0.1658(4) 0.3674(4) 0.1136(3) 1. 0 0.46 
O4 O2- 16 g 0.1441(4) 0.3202(4) -0.1305(3) 1. 0 0.46 

#End of data_245873-ICSD


