data_34523-ICSD
#?2014 by Fachinformationszentrum Karlsruhe, and the U.S. Secretary of 
#Commerce on behalf of the United States.  All rights reserved.
_database_code_ICSD                34523
_audit_creation_date               1980/01/01
_audit_update_record               2003/04/01
_chemical_name_systematic
;
Sodium Trihydrogen Bis(selenate(IV))
;
_chemical_formula_structural       'Na H3 (Se O3)2'
_chemical_formula_sum              'H3 Na1 O6 Se2'
_publ_section_title
;
Neutron diffraction study of the arrangement of the hydrogen isotopes 
in sodium trihydrodeuteroselenites
;
loop_
_citation_id
_citation_journal_abbrev
_citation_year
_citation_journal_volume
_citation_page_first
_citation_page_last
_citation_journal_id_ASTM
primary Kristallografiya 1975 20 169 171 KRISAJ
2 'Soviet Physics, Crystallography (= Kristallografiya)'
 1975 20 98 99 SPHCA6
3 'Phase Transition' 1992 38 127 220 PHTRDP
_publ_author_name                  'Nozik, Yu.Z.'
_cell_length_a                     10.3450(4)
_cell_length_b                     4.8440(2)
_cell_length_c                     5.7866(2)
_cell_angle_alpha                  90.
_cell_angle_beta                   91.133(4)
_cell_angle_gamma                  90.
_cell_volume                       289.92
_cell_formula_units_Z              2
_symmetry_space_group_name_H-M     'P 1 21/n 1'
_symmetry_Int_Tables_number        14
_refine_ls_R_factor_all            .059
loop_
_symmetry_equiv_pos_site_id
_symmetry_equiv_pos_as_xyz
  1	'-x+.5, y+.5, -z+.5'
  2	'-x, -y, -z'
  3	'x+.5, -y+.5, z+.5'
  4	'x, y, z'
loop_
_atom_type_symbol
_atom_type_oxidation_number
H1+	1
Na1+	1
O2-	-2
Se4+	4
loop_
_atom_site_label
_atom_site_type_symbol
_atom_site_symmetry_multiplicity
_atom_site_Wyckoff_symbol
_atom_site_fract_x
_atom_site_fract_y
_atom_site_fract_z
_atom_site_occupancy
_atom_site_attached_hydrogens
_atom_site_B_iso_or_equiv
Na1 Na1+ 2 a 0 0 0 1. 0 0.96 
Se1 Se4+ 4 e 0.1691 0.506 0.3861 1. 0 1.42 
O1 O2- 4 e 0.4472 0.1257 0.6904 1. 0 1.54 
O2 O2- 4 e 0.6443 0.2877 0.2072 1. 0 1.17 
O3 O2- 4 e 0.3071 0.4509 0.2067 1. 0 1.2 
H1 H1+ 2 c 0 0.5 0 1. 0 0 
H2 H1+ 4 e 0.1721 0.9152 0.4919 1. 0 0 

#End of data_34523-ICSD


