data_15872-ICSD
#?2014 by Fachinformationszentrum Karlsruhe, and the U.S. Secretary of 
#Commerce on behalf of the United States.  All rights reserved.
_database_code_ICSD                15872
_audit_creation_date               1980/01/01
_audit_update_record               2012/02/01
_chemical_name_systematic          'Potassium Catena-phosphate(V)'
_chemical_formula_structural       'K (P O3)'
_chemical_formula_sum              'K1 O3 P1'
_publ_section_title
;
Die Struktur des Kaliumpolyphosphats (K P O3)x
;
loop_
_citation_id
_citation_journal_abbrev
_citation_year
_citation_journal_volume
_citation_page_first
_citation_page_last
_citation_journal_id_ASTM
primary 'Acta Crystallographica (1,1948-23,1967)' 1963 16 623 626 ACCRA9
2 'Golden Book of Phase Transitions, Wroclaw' 2002 1 1 123 GBOPT5
_publ_author_name                  'Jost, K.H.'
_cell_length_a                     14.02
_cell_length_b                     4.54
_cell_length_c                     10.28
_cell_angle_alpha                  90.
_cell_angle_beta                   101.5
_cell_angle_gamma                  90.
_cell_volume                       641.19
_cell_formula_units_Z              8
_symmetry_space_group_name_H-M     'P 1 21/a 1'
_symmetry_Int_Tables_number        14
_refine_ls_R_factor_all            .13
loop_
_symmetry_equiv_pos_site_id
_symmetry_equiv_pos_as_xyz
  1	'x+.5, -y+.5, z'
  2	'-x, -y, -z'
  3	'-x+.5, y+.5, -z'
  4	'x, y, z'
loop_
_atom_type_symbol
_atom_type_oxidation_number
K1+	1
O2-	-2
P5+	5
loop_
_atom_site_label
_atom_site_type_symbol
_atom_site_symmetry_multiplicity
_atom_site_Wyckoff_symbol
_atom_site_fract_x
_atom_site_fract_y
_atom_site_fract_z
_atom_site_occupancy
_atom_site_attached_hydrogens
_atom_site_B_iso_or_equiv
K1 K1+ 4 e 0.13 0.767 0.397 1. 0 2.47 
K2 K1+ 4 e 0.17 0.227 0.067 1. 0 2.47 
P1 P5+ 4 e 0.153 0.202 0.69 1. 0 2.47 
P2 P5+ 4 e 0.055 0.704 0.784 1. 0 2.47 
O1 O2- 4 e 0.113 0.73 0.916 1. 0 2.47 
O2 O2- 4 e 0.051 0.24 0.237 1. 0 2.47 
O3 O2- 4 e 0.167 0.3 0.555 1. 0 2.47 
O4 O2- 4 e 0.237 0.231 0.798 1. 0 2.47 
O5 O2- 4 e 0.103 0.886 0.677 1. 0 2.47 
O6 O2- 4 e 0.062 0.388 0.725 1. 0 2.47 

#End of data_15872-ICSD


