data_30890-ICSD
#?2014 by Fachinformationszentrum Karlsruhe, and the U.S. Secretary of 
#Commerce on behalf of the United States.  All rights reserved.
_database_code_ICSD                30890
_audit_creation_date               1985/05/29
_audit_update_record               2012/02/01
_chemical_name_systematic
;
Dibarium Calcium Bis(cyclo-triborate)
;
_chemical_formula_structural       'Ba2 Ca (B3 O6)2'
_chemical_formula_sum              'B6 Ba2 Ca1 O12'
_publ_section_title
;
Struktur und Kristallchemie von Ba2 M (B3 O6)2 mit M = Ca, Cd, Mg, Co 
und Ni
;
loop_
_citation_id
_citation_journal_abbrev
_citation_year
_citation_journal_volume
_citation_page_first
_citation_page_last
_citation_journal_id_ASTM
primary 'Zeitschrift fuer Kristallographie (1979-2010)' 1984 168 293 297 ZEKRDZ
_publ_author_name                  'Liebertz, J.;Froehlich, R.'
_cell_length_a                     7.165
_cell_length_b                     7.165(3)
_cell_length_c                     17.680(6)
_cell_angle_alpha                  90.
_cell_angle_beta                   90.
_cell_angle_gamma                  120.
_cell_volume                       786.04
_cell_formula_units_Z              3
_symmetry_space_group_name_H-M     'R -3 H'
_symmetry_Int_Tables_number        148
_refine_ls_R_factor_all            .029
loop_
_symmetry_equiv_pos_site_id
_symmetry_equiv_pos_as_xyz
  1	'x-y, x, -z'
  2	'y, -x+y, -z'
  3	'-x, -y, -z'
  4	'-x+y, -x, z'
  5	'-y, x-y, z'
  6	'x, y, z'
  7	'x-y+.6666, x+.3333, -z+.3333'
  8	'x-y+.3333, x+.6666, -z+.6666'
  9	'y+.6666, -x+y+.3333, -z+.3333'
 10	'y+.3333, -x+y+.6666, -z+.6666'
 11	'-x+.6666, -y+.3333, -z+.3333'
 12	'-x+.3333, -y+.6666, -z+.6666'
 13	'-x+y+.6666, -x+.3333, z+.3333'
 14	'-x+y+.3333, -x+.6666, z+.6666'
 15	'-y+.6666, x-y+.3333, z+.3333'
 16	'-y+.3333, x-y+.6666, z+.6666'
 17	'x+.6666, y+.3333, z+.3333'
 18	'x+.3333, y+.6666, z+.6666'
loop_
_atom_type_symbol
_atom_type_oxidation_number
B3+	3
Ba2+	2
Ca2+	2
O2-	-2
loop_
_atom_site_label
_atom_site_type_symbol
_atom_site_symmetry_multiplicity
_atom_site_Wyckoff_symbol
_atom_site_fract_x
_atom_site_fract_y
_atom_site_fract_z
_atom_site_occupancy
_atom_site_attached_hydrogens
_atom_site_U_iso_or_equiv
Ba1 Ba2+ 6 c 0 0 0.20864(2) 1. 0 0.0112(1) 
Ca1 Ca2+ 3 a 0 0 0 1. 0 0.0078(2) 
O1 O2- 18 f 0.5430(3) -.1665(3) 0.2524(1) 1. 0 0.0160(6) 
B1 B3+ 18 f 0.3802(5) -.1150(5) 0.2505(2) 1. 0 0.0119(8) 
O2 O2- 18 f 0.4150(3) 0.0835(3) 0.2463(1) 1. 0 0.0137(6) 

#End of data_30890-ICSD


