data_201358-ICSD
#?2014 by Fachinformationszentrum Karlsruhe, and the U.S. Secretary of 
#Commerce on behalf of the United States.  All rights reserved.
_database_code_ICSD                201358
_audit_creation_date               1982/12/31
_audit_update_record               2002/04/01
_chemical_name_systematic
;
Dineodymium Aluminium Trioxide Nitride
;
_chemical_formula_structural       'Nd2 Al O3 N'
_chemical_formula_sum              'Al1 N1 Nd2 O3'
_publ_section_title
;
Structure cristalline de Nd2 Al O3 N. Determination de l'ordre 
oxygene-azote par diffraction de neutrons
;
loop_
_citation_id
_citation_journal_abbrev
_citation_year
_citation_journal_volume
_citation_page_first
_citation_page_last
_citation_journal_id_ASTM
primary 'Revue de Chimie Minerale' 1982 19 684 689 RVCMA8
_publ_author_name
;
Marchand, R.;Pastuszak, R.;Laurent, Y.;Roult, G.
;
_cell_length_a                     3.7046(2)
_cell_length_b                     3.7046(2)
_cell_length_c                     12.5301(13)
_cell_angle_alpha                  90.
_cell_angle_beta                   90.
_cell_angle_gamma                  90.
_cell_volume                       171.96
_cell_formula_units_Z              2
_symmetry_space_group_name_H-M     'I 4 m m'
_symmetry_Int_Tables_number        107
_refine_ls_R_factor_all            .0367
loop_
_symmetry_equiv_pos_site_id
_symmetry_equiv_pos_as_xyz
  1	'-y, x, z'
  2	'y, -x, z'
  3	'-y, -x, z'
  4	'y, x, z'
  5	'x, -y, z'
  6	'-x, y, z'
  7	'-x, -y, z'
  8	'x, y, z'
  9	'-y+.5, x+.5, z+.5'
 10	'y+.5, -x+.5, z+.5'
 11	'-y+.5, -x+.5, z+.5'
 12	'y+.5, x+.5, z+.5'
 13	'x+.5, -y+.5, z+.5'
 14	'-x+.5, y+.5, z+.5'
 15	'-x+.5, -y+.5, z+.5'
 16	'x+.5, y+.5, z+.5'
loop_
_atom_type_symbol
_atom_type_oxidation_number
Al3+	3
N3-	-3
Nd3+	3
O2-	-2
loop_
_atom_site_label
_atom_site_type_symbol
_atom_site_symmetry_multiplicity
_atom_site_Wyckoff_symbol
_atom_site_fract_x
_atom_site_fract_y
_atom_site_fract_z
_atom_site_occupancy
_atom_site_attached_hydrogens
_atom_site_B_iso_or_equiv
Al1 Al3+ 2 a 0 0 0 1. 0 0.71(21) 
Nd1 Nd3+ 2 a 0 0 0.3649(7) 1. 0 0.15(17) 
Nd2 Nd3+ 2 a 0 0 0.6517(7) 1. 0 0.47(19) 
O1 O2- 4 b 0 0.5 0.0086(12) 1. 0 0.49(8) 
O2 O2- 2 a 0 0 0.8335(7) 1. 0 0.06(18) 
N1 N3- 2 a 0 0 0.1700(5) 1. 0 0.94(16) 

#End of data_201358-ICSD


