data_83644-ICSD
#?2014 by Fachinformationszentrum Karlsruhe, and the U.S. Secretary of 
#Commerce on behalf of the United States.  All rights reserved.
_database_code_ICSD                83644
_audit_creation_date               1998/06/26
_chemical_name_systematic
;
Dipotassium Dioxomolybdenum Diarsenate(V)
;
_chemical_formula_structural       'K2 (Mo O2) (As2 O7)'
_chemical_formula_sum              'As2 K2 Mo1 O9'
_publ_section_title                'K2 Mo O2 As2 O7'
loop_
_citation_id
_citation_journal_abbrev
_citation_year
_citation_journal_volume
_citation_page_first
_citation_page_last
_citation_journal_id_ASTM
primary 'Acta Crystallographica, Section C: Crystal Structure Communications'
 1996 52 1334 1336 ACSCEE
_publ_author_name                  'Faouzi Zid, M.;Jouini, T.'
_cell_length_a                     7.429(2)
_cell_length_b                     13.906(9)
_cell_length_c                     9.157(2)
_cell_angle_alpha                  90.
_cell_angle_beta                   110.72(2)
_cell_angle_gamma                  90.
_cell_volume                       884.8
_cell_formula_units_Z              4
_symmetry_space_group_name_H-M     'P 1 21/n 1'
_symmetry_Int_Tables_number        14
_refine_ls_R_factor_all            .025
loop_
_symmetry_equiv_pos_site_id
_symmetry_equiv_pos_as_xyz
  1	'-x+.5, y+.5, -z+.5'
  2	'-x, -y, -z'
  3	'x+.5, -y+.5, z+.5'
  4	'x, y, z'
loop_
_atom_type_symbol
_atom_type_oxidation_number
As5+	5
K1+	1
Mo6+	6
O2-	-2
loop_
_atom_site_label
_atom_site_type_symbol
_atom_site_symmetry_multiplicity
_atom_site_Wyckoff_symbol
_atom_site_fract_x
_atom_site_fract_y
_atom_site_fract_z
_atom_site_occupancy
_atom_site_attached_hydrogens
_atom_site_U_iso_or_equiv
Mo1 Mo6+ 4 e 0.24575(6) 0.21715(3) 0.66940(5) 1. 0 0.0089(1) 
As1 As5+ 4 e 0.17481(7) 0.15904(4) 0.30494(6) 1. 0 0.0090(1) 
As2 As5+ 4 e 0.31886(7) 0.16579(4) 0.03156(6) 1. 0 0.0095(1) 
K1 K1+ 4 e 0.3208(2) 0.4104(1) 0.3620(2) 1. 0 0.0272(3) 
K2 K1+ 4 e 0.2068(2) 0.4514(1) 0.8743(2) 1. 0 0.0334(4) 
O1 O2- 4 e 0.2824(5) 0.0548(3) 0.3508(4) 1. 0 0.0189(9) 
O2 O2- 4 e 0.4356(5) 0.3436(3) 0.7243(4) 1. 0 0.0135(8) 
O3 O2- 4 e 0.2518(5) 0.2375(3) 0.4566(4) 1. 0 0.0136(8) 
O4 O2- 4 e 0.2516(5) 0.2249(3) 0.1741(4) 1. 0 0.0173(8) 
O5 O2- 4 e 0.2062(5) 0.0638(3) 0.9845(4) 1. 0 0.0211(9) 
O6 O2- 4 e 0.0577(5) 0.3392(3) 0.6098(4) 1. 0 0.0137(8) 
O7 O2- 4 e 0.2401(5) 0.2466(3) 0.8826(4) 1. 0 0.0147(8) 
O8 O2- 4 e 0.0597(5) 0.1371(3) 0.6124(4) 1. 0 0.0169(9) 
O9 O2- 4 e 0.4374(5) 0.1412(3) 0.7328(4) 1. 0 0.0179(9) 

#End of data_83644-ICSD


