data_83453-ICSD
#?2014 by Fachinformationszentrum Karlsruhe, and the U.S. Secretary of 
#Commerce on behalf of the United States.  All rights reserved.
_database_code_ICSD                83453
_audit_creation_date               1998/06/26
_audit_update_record               2002/04/01
_chemical_name_systematic          'Dialuminium Silicate Oxide'
_chemical_formula_structural       'Al2 (Si O4) O'
_chemical_formula_sum              'Al2 O5 Si1'
_chemical_name_mineral             Kyanite
_publ_section_title
;
Compressibility and crystal structure of kyanite, Al2 Si O5, at high 
pressure
;
loop_
_citation_id
_citation_journal_abbrev
_citation_year
_citation_journal_volume
_citation_page_first
_citation_page_last
_citation_journal_id_ASTM
primary 'American Mineralogist' 1997 82 467 474 AMMIAY
_publ_author_name
;
Yang, H.;Downs, R.T.;Finger, L.W.;Hazen, R.M.;Prewitt, C.T.
;
_cell_length_a                     7.0750(6)
_cell_length_b                     7.8027(6)
_cell_length_c                     5.5367(6)
_cell_angle_alpha                  90.063(7)
_cell_angle_beta                   101.091(8)
_cell_angle_gamma                  105.985(6)
_cell_volume                       287.87
_cell_formula_units_Z              4
_symmetry_space_group_name_H-M     'P -1'
_symmetry_Int_Tables_number        2
_refine_ls_R_factor_all            .032
loop_
_symmetry_equiv_pos_site_id
_symmetry_equiv_pos_as_xyz
  1	'-x, -y, -z'
  2	'x, y, z'
loop_
_atom_type_symbol
_atom_type_oxidation_number
Al3+	3
O2-	-2
Si4+	4
loop_
_atom_site_label
_atom_site_type_symbol
_atom_site_symmetry_multiplicity
_atom_site_Wyckoff_symbol
_atom_site_fract_x
_atom_site_fract_y
_atom_site_fract_z
_atom_site_occupancy
_atom_site_attached_hydrogens
_atom_site_B_iso_or_equiv
Al1 Al3+ 2 i 0.3241(6) 0.7034(4) 0.4560(8) 1. 0 0.41(4) 
Al2 Al3+ 2 i 0.2985(6) 0.6994(4) 0.9524(8) 1. 0 0.36(3) 
Al3 Al3+ 2 i 0.1001(6) 0.3866(4) 0.6413(7) 1. 0 0.34(3) 
Al4 Al3+ 2 i 0.1124(5) 0.9176(4) 0.1652(7) 1. 0 0.36(4) 
Si1 Si4+ 2 i 0.2959(5) 0.0650(4) 0.7054(7) 1. 0 0.33(3) 
Si2 Si4+ 2 i 0.2919(5) 0.3321(3) 0.1910(7) 1. 0 0.38(3) 
O1 O2- 2 i 0.1085(13) 0.1478(9) 0.1299(15) 1. 0 0.53(8) 
O2 O2- 2 i 0.1213(13) 0.6837(9) 0.1780(15) 1. 0 0.50(9) 
O3 O2- 2 i 0.2763(13) 0.4551(9) 0.9547(16) 1. 0 0.43(8) 
O4 O2- 2 i 0.2838(12) 0.9366(9) 0.9376(14) 1. 0 0.35(8) 
O5 O2- 2 i 0.1083(13) 0.1522(9) 0.6671(16) 1. 0 0.50(9) 
O6 O2- 2 i 0.1203(14) 0.631(1) 0.6400(17) 1. 0 0.34(8) 
O7 O2- 2 i 0.2822(12) 0.4456(9) 0.4292(14) 1. 0 0.48(9) 
O8 O2- 2 i 0.2925(13) 0.9479(10) 0.4657(15) 1. 0 0.43(8) 
O9 O2- 2 i 0.5011(12) 0.273(1) 0.2439(15) 1. 0 0.48(9) 
O10 O2- 2 i 0.5012(13) 0.2327(10) 0.7555(16) 1. 0 0.47(8) 

#End of data_83453-ICSD


