data_79786-ICSD
#?2014 by Fachinformationszentrum Karlsruhe, and the U.S. Secretary of 
#Commerce on behalf of the United States.  All rights reserved.
_database_code_ICSD                79786
_audit_creation_date               1996/10/14
_audit_update_record               2006/04/01
_chemical_name_systematic          'Dilead Magnesium Tungstate - Ii'
_chemical_formula_structural       'Pb2 Mg (W O6)'
_chemical_formula_sum              'Mg1 O6 Pb2 W1'
_publ_section_title
;
Crystal structure of the antiferroelectric perovskite Pb2 Mg W O6
;
loop_
_citation_id
_citation_journal_abbrev
_citation_year
_citation_journal_volume
_citation_page_first
_citation_page_last
_citation_journal_id_ASTM
primary 'Acta Crystallographica, Section B: Structural Science'
 1995 51 668 673 ASBSDK
2 'Golden Book of Phase Transitions, Wroclaw' 2002 1 1 123 GBOPT5
_publ_author_name
;
Baldinozzi, G.;Sciau, P.;Pinot, M.;Grebille, D.
;
_cell_length_a                     7.9440(4)
_cell_length_b                     5.6866(3)
_cell_length_c                     11.4059(4)
_cell_angle_alpha                  90.
_cell_angle_beta                   90.
_cell_angle_gamma                  90.
_cell_volume                       515.25
_cell_formula_units_Z              4
_symmetry_space_group_name_H-M     'P m c n'
_symmetry_Int_Tables_number        62
_refine_ls_R_factor_all            .04
loop_
_symmetry_equiv_pos_site_id
_symmetry_equiv_pos_as_xyz
  1	'x, -y+.5, z+.5'
  2	'-x+.5, y, z'
  3	'x+.5, y+.5, -z+.5'
  4	'-x, -y, -z'
  5	'-x, y+.5, -z+.5'
  6	'x+.5, -y, -z'
  7	'-x+.5, -y+.5, z+.5'
  8	'x, y, z'
loop_
_atom_type_symbol
_atom_type_oxidation_number
Mg2+	2
O2-	-2
Pb2+	2
W6+	6
loop_
_atom_site_label
_atom_site_type_symbol
_atom_site_symmetry_multiplicity
_atom_site_Wyckoff_symbol
_atom_site_fract_x
_atom_site_fract_y
_atom_site_fract_z
_atom_site_occupancy
_atom_site_attached_hydrogens
_atom_site_B_iso_or_equiv
Pb1 Pb2+ 8 d 0.0032(4) 0.7804(2) 0.1422(1) 1. 0 1.51(2) 
Mg1 Mg2+ 4 c 0.25 0.7519(9) 0.3772(4) 1. 0 0.44(4) 
W1 W6+ 4 c 0.25 0.2577(6) 0.1161(2) 1. 0 0.66(3) 
O1 O2- 8 d 0.4907(14) 0.2365(4) 0.1314(2) 1. 0 1.09(3) 
O2 O2- 4 c 0.25 0.0133(12) 0.0027(6) 1. 0 1.06(3) 
O3 O2- 4 c 0.25 0.4991(17) 0.0103(5) 1. 0 1.06(3) 
O4 O2- 4 c 0.25 -.0153(15) 0.2370(4) 1. 0 1.06(3) 
O5 O2- 4 c 0.25 0.4745(15) 0.2491(5) 1. 0 1.06(3) 

#End of data_79786-ICSD


