data_421185-ICSD
#?2014 by Fachinformationszentrum Karlsruhe, and the U.S. Secretary of 
#Commerce on behalf of the United States.  All rights reserved.
_database_code_ICSD                421185
_audit_creation_date               2010/08/01
_chemical_name_systematic          'Potassium Iron(III) Oxide'
_chemical_formula_structural       'K Fe O2'
_chemical_formula_sum              'Fe1 K1 O2'
_publ_section_title
;
The A Fe O2 (A = K, Rb and Cs) family: A comparative study of 
structures and structural phase transitions
;
loop_
_citation_id
_citation_journal_abbrev
_citation_year
_citation_journal_volume
_citation_journal_issue
_citation_page_first
_citation_page_last
_citation_journal_id_ASTM
primary 'Journal of Solid State Chemistry' 2010 183 3 752 759 JSSCBI
_publ_author_name
;
Ali, N.Z.;Nuss, J.;Sheptyakov, D.;Jansen, M.
;
_cell_length_a                     5.59483(1)
_cell_length_b                     11.24908(3)
_cell_length_c                     15.93549(4)
_cell_angle_alpha                  90
_cell_angle_beta                   90
_cell_angle_gamma                  90
_cell_volume                       1002.93
_cell_formula_units_Z              16
_symmetry_space_group_name_H-M     'P b c a'
_symmetry_Int_Tables_number        61
_refine_ls_R_factor_all            .0293
loop_
_symmetry_equiv_pos_site_id
_symmetry_equiv_pos_as_xyz
  1	'x+.5, y, -z+.5'
  2	'x, -y+.5, z+.5'
  3	'-x+.5, y+.5, z'
  4	'-x, -y, -z'
  5	'-x+.5, -y, z+.5'
  6	'-x, y+.5, -z+.5'
  7	'x+.5, -y+.5, -z'
  8	'x, y, z'
loop_
_atom_type_symbol
_atom_type_oxidation_number
Fe3+	3
K1+	1
O2-	-2
loop_
_atom_site_label
_atom_site_type_symbol
_atom_site_symmetry_multiplicity
_atom_site_Wyckoff_symbol
_atom_site_fract_x
_atom_site_fract_y
_atom_site_fract_z
_atom_site_occupancy
_atom_site_attached_hydrogens
_atom_site_U_iso_or_equiv
K1 K1+ 8 c 0.7465(7) 0.5112(3) 0.4377(2) 1.00000 0 0.0207(3) 
K2 K1+ 8 c 0.3042(4) 0.2359(3) 0.6852(2) 1.00000 0 0.0207(3) 
Fe1 Fe3+ 8 c 0.7524(3) 0.00919(15) 0.18891(15) 1.00000 0 0.00729(19) 
Fe2 Fe3+ 8 c 0.7853(2) 0.23570(14) 0.56452(14) 1.00000 0 0.00729(19) 
O1 O2- 8 c 0.4310(12) 0.9811(6) 0.2162(4) 1.00000 0 0.0168(8) 
O2 O2- 8 c 0.8391(11) 0.9037(7) 0.1018(4) 1.00000 0 0.0168(8) 
O3 O2- 8 c 0.7999(11) 0.1572(6) 0.1541(4) 1.00000 0 0.0168(8) 
O4 O2- 8 c 0.5856(12) 0.2984(6) 0.4799(4) 1.00000 0 0.0168(8) 

#End of data_421185-ICSD


