data_6169-ICSD
#?2014 by Fachinformationszentrum Karlsruhe, and the U.S. Secretary of 
#Commerce on behalf of the United States.  All rights reserved.
_database_code_ICSD                6169
_audit_creation_date               1980/01/01
_audit_update_record               2010/02/01
_chemical_name_systematic
;
Hexalithium Dialuminium Tetrakis(borate)
;
_chemical_formula_structural       'Li6 Al2 (B O3)4'
_chemical_formula_sum              'Al2 B4 Li6 O12'
_publ_section_title
;
Crystal structure of lithium aluminoborate, Li6 (Al2 (B O3)4)
;
loop_
_citation_id
_citation_journal_abbrev
_citation_year
_citation_journal_volume
_citation_page_first
_citation_page_last
_citation_journal_id_ASTM
primary Kristallografiya 1974 19 165 167 KRISAJ
2 'Soviet Physics, Crystallography (= Kristallografiya)'
 1974 19 98 99 SPHCA6
_publ_author_name                  'Abdullaev, G.K.;Mamedov, Kh.S.'
_cell_length_a                     6.13(3)
_cell_length_b                     4.82(2)
_cell_length_c                     8.23(5)
_cell_angle_alpha                  90.0(5)
_cell_angle_beta                   118.0(5)
_cell_angle_gamma                  90.0(5)
_cell_volume                       214.71
_cell_formula_units_Z              1
_symmetry_space_group_name_H-M     'P -1'
_symmetry_Int_Tables_number        2
_refine_ls_R_factor_all            .106
loop_
_symmetry_equiv_pos_site_id
_symmetry_equiv_pos_as_xyz
  1	'-x, -y, -z'
  2	'x, y, z'
loop_
_atom_type_symbol
_atom_type_oxidation_number
Al3+	3
B3+	3
Li1+	1
O2-	-2
loop_
_atom_site_label
_atom_site_type_symbol
_atom_site_symmetry_multiplicity
_atom_site_Wyckoff_symbol
_atom_site_fract_x
_atom_site_fract_y
_atom_site_fract_z
_atom_site_occupancy
_atom_site_attached_hydrogens
_atom_site_B_iso_or_equiv
Al1 Al3+ 2 i 0.185 0.365 0.236 1. 0 0.8(5) 
O1 O2- 2 i 0.315 0.195 0.091 1. 0 0.8(5) 
O2 O2- 2 i 0.223 0.095 0.408 1. 0 0.8(5) 
O3 O2- 2 i 0.207 0.68 0.542 1. 0 0.8(5) 
O4 O2- 2 i 0.314 0.22 0.808 1. 0 0.8(5) 
O5 O2- 2 i 0.187 0.615 0.911 1. 0 0.8(5) 
O6 O2- 2 i 0.362 0.681 0.328 1. 0 0.8(5) 
B1 B3+ 2 i 0.281 0.82 0.435 1. 0 0.8(5) 
B2 B3+ 2 i 0.305 0.352 0.955 1. 0 0.8(5) 
Li1 Li1+ 2 i 0.137 0.305 0.562 1. 0 0.8(5) 
Li2 Li1+ 2 i 0.131 0.85 0.716 1. 0 0.8(5) 
Li3 Li1+ 2 i 0.49 0.975 0.681 1. 0 0.8(5) 

#End of data_6169-ICSD


