data_82863-ICSD
#?2014 by Fachinformationszentrum Karlsruhe, and the U.S. Secretary of 
#Commerce on behalf of the United States.  All rights reserved.
_database_code_ICSD                82863
_audit_creation_date               1998/06/26
_audit_update_record               2003/04/01
_chemical_name_systematic          'Aluminium Phosphate(V)'
_chemical_formula_structural       'Al (P O4)'
_chemical_formula_sum              'Al1 O4 P1'
_publ_section_title
;
The structure of the calcined aluminophosphate (Al P O4)-5 determined 
by high-resolution X-ray and neutron powder diffraction
;
loop_
_citation_id
_citation_journal_abbrev
_citation_year
_citation_journal_volume
_citation_journal_issue
_citation_page_first
_citation_page_last
_citation_journal_id_ASTM
primary 'Journal of Materials Chemistry' 1996 6 11 1831 1835 JMACEP
_publ_author_name
;
Mora, A.J.;Fitch, A.N.;Cole, M.;Goyal, R.;Jones, R.H.;Jobic, H.;Carr, 
S.W.
;
_cell_length_a                     13.794(3)
_cell_length_b                     23.900(6)
_cell_length_c                     8.4168(6)
_cell_angle_alpha                  90.
_cell_angle_beta                   90.
_cell_angle_gamma                  90.
_cell_volume                       2774.82
_cell_formula_units_Z              24
_symmetry_space_group_name_H-M     'P c c 2'
_symmetry_Int_Tables_number        27
_refine_ls_R_factor_all            .158
loop_
_symmetry_equiv_pos_site_id
_symmetry_equiv_pos_as_xyz
  1	'-x, y, z+.5'
  2	'x, -y, z+.5'
  3	'-x, -y, z'
  4	'x, y, z'
loop_
_atom_type_symbol
_atom_type_oxidation_number
Al3+	3
O2-	-2
P5+	5
loop_
_atom_site_label
_atom_site_type_symbol
_atom_site_symmetry_multiplicity
_atom_site_Wyckoff_symbol
_atom_site_fract_x
_atom_site_fract_y
_atom_site_fract_z
_atom_site_occupancy
_atom_site_attached_hydrogens
_atom_site_B_iso_or_equiv
P1 P5+ 4 e 0.294(2) 0.169(2) 0.13 1. 0 2.5(3) 
Al1 Al3+ 4 e 0.292(4) 0.169(2) 0.497(6) 1. 0 1.5(4) 
O1 O2- 4 e 0.315(5) 0.108(2) 0.102(8) 1. 0 3.64(8) 
O2 O2- 4 e 0.313(4) 0.177(2) 0.297(5) 1. 0 3.64(8) 
O3 O2- 4 e 0.191(3) 0.181(3) 0.075(7) 1. 0 3.64(8) 
O4 O2- 4 e 0.363(5) 0.206(2) 0.050(7) 1. 0 3.64(8) 
P2 P5+ 4 e 0.611(3) 0.063(2) 0.136(7) 1. 0 2.5(3) 
Al2 Al3+ 4 e 0.611(3) 0.061(2) 0.517(7) 1. 0 1.5(4) 
O5 O2- 4 e 0.681(5) 0.103(3) 0.056(8) 1. 0 3.64(8) 
O6 O2- 4 e 0.628(4) 0.069(2) 0.316(8) 1. 0 3.64(8) 
O7 O2- 4 e 0.635(6) 0.003(2) 0.09(1) 1. 0 3.64(8) 
O8 O2- 4 e 0.508(4) 0.078(3) 0.07(1) 1. 0 3.64(8) 
P3 P5+ 4 e 0.107(3) 0.774(2) 0.122(7) 1. 0 2.5(3) 
Al3 Al3+ 4 e 0.111(3) 0.774(2) 0.500(6) 1. 0 1.5(4) 
O9 O2- 4 e 0.003(4) 0.789(3) 0.074(9) 1. 0 3.64(8) 
O10 O2- 4 e 0.121(5) 0.783(3) 0.297(7) 1. 0 3.64(8) 
O11 O2- 4 e 0.174(4) 0.816(3) 0.040(8) 1. 0 3.64(8) 
O12 O2- 4 e 0.129(5) 0.716(3) 0.054(8) 1. 0 3.64(8) 
P4 P5+ 4 e 0.789(3) 0.665(2) 0.13 1. 0 2.5(3) 
Al4 Al3+ 4 e 0.788(4) 0.667(2) 0.503(5) 1. 0 1.5(4) 
O13 O2- 4 e 0.811(2) 0.608(2) 0.049(7) 1. 0 3.64(8) 
O14 O2- 4 e 0.810(4) 0.660(2) 0.304(5) 1. 0 3.64(8) 
O15 O2- 4 e 0.684(4) 0.682(3) 0.109(1) 1. 0 3.64(8) 
O16 O2- 4 e 0.853(3) 0.708(1) 0.050(7) 1. 0 3.64(8) 
P5 P5+ 4 e 0.107(3) 0.560(2) 0.112(7) 1. 0 2.5(3) 
Al5 Al3+ 4 e 0.104(4) 0.561(2) 0.484(7) 1. 0 1.5(4) 
O17 O2- 4 e 0.182(5) 0.604(3) 0.091(8) 1. 0 3.64(8) 
O18 O2- 4 e 0.098(4) 0.559(2) 0.283(7) 1. 0 3.64(8) 
O19 O2- 4 e 0.136(6) 0.504(2) 0.044(9) 1. 0 3.64(8) 
O20 O2- 4 e 0.012(4) 0.578(3) 0.034(9) 1. 0 3.64(8) 
P6 P5+ 4 e 0.605(3) 0.273(2) 0.141(7) 1. 0 2.5(3) 
Al6 Al3+ 4 e 0.608(4) 0.274(2) 0.512(6) 1. 0 1.5(4) 
O21 O2- 4 e 0.504(4) 0.288(3) 0.083(9) 1. 0 3.64(8) 
O22 O2- 4 e 0.622(4) 0.288(2) 0.312(7) 1. 0 3.64(8) 
O23 O2- 4 e 0.675(5) 0.314(3) 0.069(8) 1. 0 3.64(8) 
O24 O2- 4 e 0.633(5) 0.214(2) 0.100(8) 1. 0 3.64(8) 

#End of data_82863-ICSD


