data_161265-ICSD
#?2014 by Fachinformationszentrum Karlsruhe, and the U.S. Secretary of 
#Commerce on behalf of the United States.  All rights reserved.
_database_code_ICSD                161265
_audit_creation_date               2009/02/01
_chemical_name_systematic          'Calcium Digermanate - Hp'
_chemical_formula_structural       'Ca (Ge2 O5)'
_chemical_formula_sum              'Ca1 Ge2 O5'
_publ_section_title
;
Equation of state and crystal structure of a new germanate post-
titanite phase
;
loop_
_citation_id
_citation_journal_abbrev
_citation_year
_citation_journal_volume
_citation_page_first
_citation_page_last
_citation_journal_id_ASTM
primary 'American Mineralogist' 2008 93 1424 1428 AMMIAY
_publ_author_name
;
Nestola, F.;Nemeth, P.;Angel, R.J.;Buseck, P.R.
;
_cell_length_a                     7.1236(2)
_cell_length_b                     8.1912(3)
_cell_length_c                     5.6468(3)
_cell_angle_alpha                  90.
_cell_angle_beta                   90.
_cell_angle_gamma                  90.
_cell_volume                       329.5
_cell_formula_units_Z              4
_symmetry_space_group_name_H-M     'P b a m'
_symmetry_Int_Tables_number        55
_refine_ls_R_factor_all            .033
loop_
_symmetry_equiv_pos_site_id
_symmetry_equiv_pos_as_xyz
  1	'x+.5, -y+.5, z'
  2	'-x+.5, y+.5, z'
  3	'x, y, -z'
  4	'-x, -y, -z'
  5	'-x+.5, y+.5, -z'
  6	'x+.5, -y+.5, -z'
  7	'-x, -y, z'
  8	'x, y, z'
loop_
_atom_type_symbol
_atom_type_oxidation_number
Ca2+	2
Ge4+	4
O2-	-2
loop_
_atom_site_label
_atom_site_type_symbol
_atom_site_symmetry_multiplicity
_atom_site_Wyckoff_symbol
_atom_site_fract_x
_atom_site_fract_y
_atom_site_fract_z
_atom_site_occupancy
_atom_site_attached_hydrogens
_atom_site_U_iso_or_equiv
Ge1 Ge4+ 4 e 0 0 0.2543(3) 1. 0 0.0044(5) 
Ge2 Ge4+ 4 g 0.8918(2) 0.6468(1) 0 1. 0 0.0039(4) 
Ca1 Ca2+ 4 h 0.1313(3) 0.6663(3) 0.5 1. 0 0.0053(8) 
O1 O2- 8 i 0.1087(7) 0.2079(6) 0.243(2) 1. 0 0.005(2) 
O2 O2- 4 f 0 0.5 0.204(2) 1. 0 0.005(2) 
O3 O2- 4 h 0.161(1) 0.9439(9) 0.5 1. 0 0.005(3) 
O4 O2- 4 g 0.655(1) 0.575(1) 0 1. 0 0.005(2) 

#End of data_161265-ICSD


