data_27091-ICSD
#?2014 by Fachinformationszentrum Karlsruhe, and the U.S. Secretary of 
#Commerce on behalf of the United States.  All rights reserved.
_database_code_ICSD                27091
_audit_creation_date               1980/01/01
_audit_update_record               2014/08/01
_chemical_name_systematic          'Ytterbium Dithioargentate - Lt'
_chemical_formula_structural       'Yb (Ag S2)'
_chemical_formula_sum              'Ag1 S2 Yb1'
_publ_section_title
;
Une classe de nouveaux composes sulfures de terres rares et d'argent 
de type Ag T S2
;
loop_
_citation_id
_citation_journal_abbrev
_citation_year
_citation_journal_volume
_citation_page_first
_citation_page_last
_citation_journal_id_ASTM
primary
;
Comptes Rendus Hebdomadaires des Seances de l`Academie des Sciences, 
Serie C, Sciences Chimiques (1966-)
;
 1966 262 1253 1256 CHDCAQ
_publ_author_name                  'Ballestracci, R.'
_cell_length_a                     5.356
_cell_length_b                     5.356
_cell_length_c                     11.803
_cell_angle_alpha                  90.
_cell_angle_beta                   90.
_cell_angle_gamma                  90.
_cell_volume                       338.59
_cell_formula_units_Z              4
_symmetry_space_group_name_H-M     'I 41 m d'
_symmetry_Int_Tables_number        109
_refine_ls_R_factor_all            .07
loop_
_symmetry_equiv_pos_site_id
_symmetry_equiv_pos_as_xyz
  1	'y, -x+.5, z+.25'
  2	'-y, x+.5, z+.25'
  3	'x, -y, z'
  4	'-x, y, z'
  5	'-y, -x+.5, z+.25'
  6	'y, x+.5, z+.25'
  7	'-x, -y, z'
  8	'x, y, z'
  9	'y+.5, -x, z+.75'
 10	'-y+.5, x, z+.75'
 11	'x+.5, -y+.5, z+.5'
 12	'-x+.5, y+.5, z+.5'
 13	'-y+.5, -x, z+.75'
 14	'y+.5, x, z+.75'
 15	'-x+.5, -y+.5, z+.5'
 16	'x+.5, y+.5, z+.5'
loop_
_atom_type_symbol
_atom_type_oxidation_number
Ag1+	1
S2-	-2
Yb3+	3
loop_
_atom_site_label
_atom_site_type_symbol
_atom_site_symmetry_multiplicity
_atom_site_Wyckoff_symbol
_atom_site_fract_x
_atom_site_fract_y
_atom_site_fract_z
_atom_site_occupancy
_atom_site_attached_hydrogens
Yb1 Yb3+ 4 a 0 0 0 1. 0 
Ag1 Ag1+ 4 a 0 0 0.54 1. 0 
S1 S2- 4 a 0 0 0.23 1. 0 
S2 S2- 4 a 0 0 0.77 1. 0 

#End of data_27091-ICSD


