data_91526-ICSD
#?2014 by Fachinformationszentrum Karlsruhe, and the U.S. Secretary of 
#Commerce on behalf of the United States.  All rights reserved.
_database_code_ICSD                91526
_audit_creation_date               2002/10/01
_audit_update_record               2009/02/01
_chemical_name_systematic          'Sodium Nickel Tris(phosphate(V))'
_chemical_formula_structural       'Na Ni (P O3)3'
_chemical_formula_sum              'Na1 Ni1 O9 P3'
_publ_section_title
;
Synthesis, IR spectra and structures of double metaphosphates M Ni (P 
O3)3 (M = Na or K)
;
loop_
_citation_id
_citation_journal_abbrev
_citation_year
_citation_journal_volume
_citation_journal_issue
_citation_page_first
_citation_page_last
_citation_journal_id_ASTM
primary Kristallografiya 2000 45 2 238 241 KRISAJ
2 'Crystallography Reports' 2000 45- 206 209 CYSTE3
_publ_author_name
;
Kapshuk, A.A.;Nagornyi, P.G.;Petrenko, O.V.
;
_cell_length_a                     13.781(2)
_cell_length_b                     10.584(2)
_cell_length_c                     9.863(1)
_cell_angle_alpha                  90.
_cell_angle_beta                   90.
_cell_angle_gamma                  90.
_cell_volume                       1438.6
_cell_formula_units_Z              8
_symmetry_space_group_name_H-M     'P c c a'
_symmetry_Int_Tables_number        54
_refine_ls_R_factor_all            .03
loop_
_symmetry_equiv_pos_site_id
_symmetry_equiv_pos_as_xyz
  1	'x, -y, z+.5'
  2	'-x+.5, y, z+.5'
  3	'x+.5, y, -z'
  4	'-x, -y, -z'
  5	'-x, y, -z+.5'
  6	'x+.5, -y, -z+.5'
  7	'-x+.5, -y, z'
  8	'x, y, z'
loop_
_atom_type_symbol
_atom_type_oxidation_number
Na1+	1
Ni2+	2
O2-	-2
P5+	5
loop_
_atom_site_label
_atom_site_type_symbol
_atom_site_symmetry_multiplicity
_atom_site_Wyckoff_symbol
_atom_site_fract_x
_atom_site_fract_y
_atom_site_fract_z
_atom_site_occupancy
_atom_site_attached_hydrogens
_atom_site_U_iso_or_equiv
Ni1 Ni2+ 4 a 0.5 0 0 1. 0 0.006(1) 
Ni2 Ni2+ 4 e 0.75 0.5 0.0287(1) 1. 0 0.006(1) 
P1 P5+ 8 f 0.6478(1) 0.0446(1) 0.7629(1) 1. 0 0.005(1) 
P2 P5+ 8 f 0.6253(1) 0.2525(1) -.0459(1) 1. 0 0.006(1) 
P3 P5+ 8 f 0.6016(1) 0.4745(1) 0.7854(1) 1. 0 0.005(1) 
O1 O2- 4 d 0.75 0 0.7051(3) 1. 0 0.008(1) 
O2 O2- 8 f 0.6084(2) -.0479(2) 0.8616(2) 1. 0 0.011(1) 
O3 O2- 8 f 0.5893(2) 0.0831(2) 0.6441(2) 1. 0 0.010(1) 
O4 O2- 8 f 0.6799(2) 0.1699(2) 0.8427(2) 1. 0 0.009(1) 
O5 O2- 8 f 0.5527(2) 0.1764(2) 0.0288(2) 1. 0 0.009(1) 
O6 O2- 8 f 0.7027(2) 0.3174(2) 0.0317(2) 1. 0 0.010(1) 
O7 O2- 8 f 0.5649(2) 0.3522(2) 0.8671(2) 1. 0 0.009(1) 
O8 O2- 8 f 0.6493(2) 0.4317(2) 0.6602(2) 1. 0 0.012(1) 
O9 O2- 8 f 0.6529(2) 0.5613(2) 0.8793(2) 1. 0 0.010(1) 
O10 O2- 4 c 0.5 0.5385(3) 0.75 1. 0 0.008(1) 
Na1 Na1+ 8 f 0.6245(1) 0.7518(1) -.0128(2) 1. 0 0.023(1) 

#End of data_91526-ICSD


