data_174307-ICSD
#?2014 by Fachinformationszentrum Karlsruhe, and the U.S. Secretary of 
#Commerce on behalf of the United States.  All rights reserved.
_database_code_ICSD                174307
_audit_creation_date               2010/08/01
_chemical_name_systematic
;
Nonapotassium Bis(oxoferrate(III,IV))
;
_chemical_formula_structural       'K9 (Fe O4)2'
_chemical_formula_sum              'Fe2 K9 O8'
_publ_section_title
;
Neue Oxoferrate der Alkalimetalle. Synthesen und Kristallchemie
;
loop_
_citation_id
_citation_journal_abbrev
_citation_year
_citation_journal_volume
_citation_page_first
_citation_page_last
_citation_journal_id_ASTM
primary 'Dissertation Albert-Ludwigs-Universitaet Freiburg'
 2006 2006 1 203 DIUFRJ
_publ_author_name                  'Frisch, G.'
_cell_length_a                     16.414(5)
_cell_length_b                     12.785(4)
_cell_length_c                     13.326(4)
_cell_angle_alpha                  90.
_cell_angle_beta                   93.539(6)
_cell_angle_gamma                  90.
_cell_volume                       2791.17
_cell_formula_units_Z              8
_symmetry_space_group_name_H-M     'C 1 2/c 1'
_symmetry_Int_Tables_number        15
_refine_ls_R_factor_all            .159
loop_
_symmetry_equiv_pos_site_id
_symmetry_equiv_pos_as_xyz
  1	'x, -y, z+.5'
  2	'-x, -y, -z'
  3	'-x, y, -z+.5'
  4	'x, y, z'
  5	'x+.5, -y+.5, z+.5'
  6	'-x+.5, -y+.5, -z'
  7	'-x+.5, y+.5, -z+.5'
  8	'x+.5, y+.5, z'
loop_
_atom_type_symbol
_atom_type_oxidation_number
Fe3+	3
Fe4+	4
K1+	1
O2-	-2
loop_
_atom_site_label
_atom_site_type_symbol
_atom_site_symmetry_multiplicity
_atom_site_Wyckoff_symbol
_atom_site_fract_x
_atom_site_fract_y
_atom_site_fract_z
_atom_site_occupancy
_atom_site_attached_hydrogens
_atom_site_U_iso_or_equiv
K1 K1+ 8 f 0.0899(2) 0.1993(2) 0.2190(2) 1. 0 0.0276(6) 
K2 K1+ 4 e 0 0.4450(3) 0.25 1. 0 0.0290(9) 
K3 K1+ 8 f 0.3452(2) 0.2537(2) 0.0330(2) 1. 0 0.0284(6) 
K4 K1+ 8 f 0.2069(2) 0.1088(2) 0.3922(2) 1. 0 0.0276(6) 
K5 K1+ 8 f 0.0868(2) 0.0103(2) 0.0385(2) 1. 0 0.0264(6) 
K6 K1+ 8 f 0.2044(2) 0.4044(2) 0.1567(2) 1. 0 0.0387(8) 
K7 K1+ 8 f 0.4037(2) 0.0140(2) 0.5265(2) 1. 0 0.0278(6) 
K8 K1+ 8 f 0.2513(2) 0.3458(2) 0.3787(2) 1. 0 0.0309(7) 
K9 K1+ 8 f 0.4003(2) 0.2166(3) 0.2825(2) 1. 0 0.0418(8) 
K10 K1+ 4 e 0 0.9618(3) 0.25 1. 0 0.0440(10) 
Fe1 Fe4+ 8 f 0.0375(1) 0.2360(1) 0.4814(1) 1. 0 0.0219(4) 
Fe2 Fe3+ 8 f 0.2568(1) 0.0810(1) 0.1620(2) 1. 0 0.0343(5) 
O1 O2- 8 f 0.0376(4) 0.1298(6) 0.3912(5) 1. 0 0.0230(20) 
O2 O2- 8 f 0.1391(4) 0.2813(6) 0.5149(6) 1. 0 0.0300(20) 
O3 O2- 8 f 0.4960(4) 0.3193(6) 0.0902(6) 1. 0 0.0270(20) 
O4 O2- 8 f 0.0283(5) 0.3392(6) 0.0751(6) 1. 0 0.0280(20) 
O5 O2- 8 f 0.2474(4) 0.0617(6) 0.0233(6) 1. 0 0.0230(20) 
O6 O2- 8 f 0.2480(4) 0.2180(6) 0.2019(6) 1. 0 0.0260(20) 
O7 O2- 8 f 0.1747(4) 0.0066(5) 0.2166(5) 1. 0 0.0210(20) 
O8 O2- 8 f 0.3569(5) 0.0292(6) 0.2085(6) 1. 0 0.0330(20) 

loop_
_atom_site_aniso_label
_atom_site_aniso_type_symbol
_atom_site_aniso_U_11
_atom_site_aniso_U_22
_atom_site_aniso_U_33
_atom_site_aniso_U_12
_atom_site_aniso_U_13
_atom_site_aniso_U_23
K1 K1+ 0.0164(13) 0.0365(15) 0.0295(15) -0.0011(11) -0.0009(11) 0.0056(12)
K2 K1+ 0.0144(19) 0.0350(2) 0.0370(2) 0 -0.0017(16) 0
K3 K1+ 0.0189(14) 0.0301(14) 0.0364(16) -0.0038(11) 0.0037(11) 0.0046(12)
K4 K1+ 0.0307(16) 0.0287(14) 0.0234(15) 0.0070(11) 0.0025(11) 0.0018(11)
K5 K1+ 0.0182(13) 0.0306(14) 0.0297(15) 0.0008(11) -0.0045(11) -0.0101(12)
K6 K1+ 0.0670(2) 0.0257(15) 0.0239(16) 0.0021(13) 0.0062(14) -0.0006(12)
K7 K1+ 0.0174(13) 0.0251(13) 0.0415(17) -0.0055(10) 0.0057(12) -0.0014(12)
K8 K1+ 0.0418(18) 0.0234(13) 0.0273(15) 0.0002(12) 0.0001(13) 0.0034(12)
K9 K1+ 0.0244(16) 0.0590(2) 0.0417(19) -0.0121(14) -0.0048(13) -0.0141(16)
K10 K1+ 0.0770(4) 0.0240(2) 0.0330(3) 0 0.0130(2) 0.0000
Fe1 Fe4+ 0.0169(9) 0.0225(9) 0.0261(10) -0.0008(7) -0.0010(7) 0.0024(7)
Fe2 Fe3+ 0.0265(10) 0.0335(10) 0.0421(10) 0.0006(8) -0.0037(9) -0.0005(9)
O1 O2- 0.0210(40) 0.0290(40) 0.0180(40) 0.0030(30) -0.0010(30) -0.0050(30)
O2 O2- 0.0140(40) 0.0440(50) 0.0300(50) -0.0020(30) -0.0040(40) 0.0100(40)
O3 O2- 0.0170(40) 0.0350(50) 0.0300(50) 0.0060(30) 0.0010(40) -0.0130(40)
O4 O2- 0.0270(50) 0.0200(40) 0.0370(50) -0.0040(30) 0.0010(40) -0.0090(40)
O5 O2- 0.0160(40) 0.0270(40) 0.0270(50) -0.0020(30) 0.0100(30) -0.0020(30)
O6 O2- 0.0200(40) 0.0200(40) 0.0380(50) -0.0010(30) 0.0030(40) -0.0040(40)
O7 O2- 0.0230(40) 0.0180(40) 0.0210(40) 0.0010(30) 0.0070(30) 0.0030(30)
O8 O2- 0.0180(50) 0.0390(50) 0.0420(50) 0.0070(40) -0.0100(40) -0.0090(40)
#End of data_174307-ICSD


