data_410870-ICSD
#?2014 by Fachinformationszentrum Karlsruhe, and the U.S. Secretary of 
#Commerce on behalf of the United States.  All rights reserved.
_database_code_ICSD                410870
_audit_creation_date               2000/07/15
_audit_update_record               2013/08/01
_chemical_name_systematic          'Rubidium Zincoborodiphosphate(V)'
_chemical_formula_structural       'Rb (Zn B P2 O8)'
_chemical_formula_sum              'B1 O8 P2 Rb1 Zn1'
_publ_section_title
;
K (Zn B P2 O8) and A (Zn B P2 O8) (A= NH4+, Rb+, Cs+): 
Zincoborophosphates as a new class of compounds with tetrahedral 
framework structures
;
loop_
_citation_id
_citation_journal_abbrev
_citation_year
_citation_journal_volume
_citation_page_first
_citation_page_last
_citation_journal_id_ASTM
primary 'Angewandte Chemie. International Edition' 1999 38 3642 3644 ACIEF5
_publ_author_name
;
Kniep, R.;Schaefer, G.;Engelmann, H.;Boy, I.
;
_cell_length_a                     7.439(2)
_cell_length_b                     7.639(2)
_cell_length_c                     7.861(2)
_cell_angle_alpha                  118.82(2)
_cell_angle_beta                   101.73(2)
_cell_angle_gamma                  103.51(2)
_cell_volume                       353.42
_cell_formula_units_Z              2
_symmetry_space_group_name_H-M     'P -1'
_symmetry_Int_Tables_number        2
_refine_ls_R_factor_all            .0418
loop_
_symmetry_equiv_pos_site_id
_symmetry_equiv_pos_as_xyz
  1	'-x, -y, -z'
  2	'x, y, z'
loop_
_atom_type_symbol
_atom_type_oxidation_number
B3+	3
O2-	-2
P5+	5
Rb1+	1
Zn2+	2
loop_
_atom_site_label
_atom_site_type_symbol
_atom_site_symmetry_multiplicity
_atom_site_Wyckoff_symbol
_atom_site_fract_x
_atom_site_fract_y
_atom_site_fract_z
_atom_site_occupancy
_atom_site_attached_hydrogens
Rb1 Rb1+ 2 i 0.27564(6) 0.66126(7) 0.41740(7) 1. 0 
Zn1 Zn2+ 2 i 0.19640(5) 0.29470(6) 0.74195(6) 1. 0 
B1 B3+ 2 i 0.2985(5) 0.0755(6) 0.0701(5) 1. 0 
P1 P5+ 2 i 0.03492(11) 0.11208(14) 0.27626(12) 1. 0 
P2 P5+ 2 i 0.44916(12) 0.77822(14) 0.08280(13) 1. 0 
O1 O2- 2 i 0.0195(4) 0.9009(4) 0.2506(4) 1. 0 
O2 O2- 2 i 0.0854(4) 0.2982(4) 0.4976(4) 1. 0 
O3 O2- 2 i 0.1985(3) 0.1867(4) 0.2021(4) 1. 0 
O4 O2- 2 i 0.4082(4) 0.1860(4) 0.7242(4) 1. 0 
O5 O2- 2 i 0.4487(3) 0.2481(4) 0.0784(4) 1. 0 
O6 O2- 2 i 0.5939(3) 0.0129(4) 0.8350(3) 1. 0 
O7 O2- 2 i 0.7396(4) 0.4190(4) 0.0221(4) 1. 0 
O8 O2- 2 i 0.8360(3) 0.0960(4) 0.1447(4) 1. 0 

loop_
_atom_site_aniso_label
_atom_site_aniso_type_symbol
_atom_site_aniso_U_11
_atom_site_aniso_U_22
_atom_site_aniso_U_33
_atom_site_aniso_U_12
_atom_site_aniso_U_13
_atom_site_aniso_U_23
Rb1 Rb1+ 0.0343(2) 0.0303(2) 0.0404(2) 0.01125(16) 0.02140(17) 0.01797(18)
Zn1 Zn2+ 0.01604(18) 0.0192(2) 0.01725(18) 0.00655(14) 0.00553(13) 
0.01126(15)
B1 B3+ 0.0116(14) 0.0178(17) 0.0166(15) 0.0057(13) 0.0066(12) 0.0113(13)
P1 P5+ 0.0128(3) 0.0177(4) 0.0145(3) 0.0061(3) 0.0056(3) 0.0096(3)
P2 P5+ 0.0136(3) 0.0160(4) 0.0163(3) 0.0064(3) 0.0069(3) 0.0103(3)
O1 O2- 0.0185(11) 0.0215(13) 0.0290(13) 0.0081(10) 0.0105(9) 0.0175(11)
O2 O2- 0.0227(11) 0.0231(13) 0.0143(10) 0.011(1) 0.0070(9) 0.0113(9)
O3 O2- 0.0178(10) 0.0198(12) 0.0239(12) 0.0097(9) 0.0130(9) 0.0145(10)
O4 O2- 0.0211(11) 0.0273(13) 0.0216(11) 0.0135(10) 0.0092(9) 0.0173(10)
O5 O2- 0.0172(10) 0.0183(11) 0.0206(11) 0.0063(9) 0.0107(8) 0.0119(9)
O6 O2- 0.018(1) 0.0180(12) 0.0152(10) 0.0095(9) 0.0050(8) 0.0093(9)
O7 O2- 0.0192(11) 0.0195(12) 0.0244(12) 0.0048(9) 0.0112(9) 0.0107(10)
O8 O2- 0.0143(10) 0.0185(12) 0.0165(10) 0.0055(9) 0.0033(8) 0.0084(9)
#End of data_410870-ICSD


