data_300238-ICSD
#?2014 by Fachinformationszentrum Karlsruhe, and the U.S. Secretary of 
#Commerce on behalf of the United States.  All rights reserved.
_database_code_ICSD                300238
_audit_creation_date               1992/08/20
_audit_update_record               2007/08/01
_chemical_name_systematic
;
Hexapotassium Heptaselenodistannate
;
_chemical_formula_structural       'K6 (Sn2 Se7)'
_chemical_formula_sum              'K6 Se7 Sn2'
_publ_section_title
;
Crystal structure of hexapotassium heptaselenidodistannate
;
loop_
_citation_id
_citation_journal_abbrev
_citation_year
_citation_journal_volume
_citation_page_first
_citation_page_last
_citation_journal_id_ASTM
primary 'Zeitschrift fuer Kristallographie (1979-2010)' 1993 203 303 304 ZEKRDZ
_publ_author_name                  'Eisenmann, B.;Hansa, J.'
_cell_length_a                     17.052(6)
_cell_length_b                     12.328(6)
_cell_length_c                     19.709(6)
_cell_angle_alpha                  90.
_cell_angle_beta                   102.6(1)
_cell_angle_gamma                  90.
_cell_volume                       4043.39
_cell_formula_units_Z              8
_symmetry_space_group_name_H-M     'P 1 21/c 1'
_symmetry_Int_Tables_number        14
_refine_ls_R_factor_all            .103
loop_
_symmetry_equiv_pos_site_id
_symmetry_equiv_pos_as_xyz
  1	'x, -y+.5, z+.5'
  2	'-x, -y, -z'
  3	'-x, y+.5, -z+.5'
  4	'x, y, z'
loop_
_atom_type_symbol
_atom_type_oxidation_number
K1+	1
Se2-	-2
Sn4+	4
loop_
_atom_site_label
_atom_site_type_symbol
_atom_site_symmetry_multiplicity
_atom_site_Wyckoff_symbol
_atom_site_fract_x
_atom_site_fract_y
_atom_site_fract_z
_atom_site_occupancy
_atom_site_attached_hydrogens
K1 K1+ 4 e 0.6484(8) 0.0443(10) 0.3144(7) 1. 0 
K2 K1+ 4 e 0.1229(7) 0.1127(10) 0.0554(7) 1. 0 
K3 K1+ 4 e 0.7419(8) 0.8333(12) 0.7402(6) 1. 0 
K4 K1+ 4 e 0.8062(8) 0.3238(11) 0.4738(6) 1. 0 
K5 K1+ 4 e 0.6249(8) 0.0784(10) 0.8288(6) 1. 0 
K6 K1+ 4 e 0.6446(8) 0.0584(13) 0.5786(7) 1. 0 
K7 K1+ 4 e 0.9938(8) 0.2195(12) 0.8712(7) 1. 0 
K8 K1+ 4 e 0.2207(10) 0.0440(15) 0.8464(8) 1. 0 
K9 K1+ 4 e 0.5441(8) 0.7687(15) 0.3080(7) 1. 0 
K10 K1+ 4 e 0.9691(8) 0.9921(11) 0.7305(7) 1. 0 
K11 K1+ 4 e 0.8617(8) 0.9765(10) 0.4646(8) 1. 0 
K12 K1+ 4 e 0.5627(11) 0.3899(14) 0.5507(8) 1. 0 
Sn1 Sn4+ 4 e 0.7860(2) 0.2362(3) 0.7437(2) 1. 0 
Sn2 Sn4+ 4 e 0.9630(2) 0.2736(3) 0.6264(2) 1. 0 
Sn3 Sn4+ 4 e 0.4828(2) 0.2114(3) 0.3934(2) 1. 0 
Sn4 Sn4+ 4 e 0.3033(2) 0.2546(3) 0.5089(2) 1. 0 
Se1 Se2- 4 e 0.9824(3) 0.1827(5) 0.5190(3) 1. 0 
Se2 Se2- 4 e 0.8299(4) 0.1801(5) 0.6312(3) 1. 0 
Se3 Se2- 4 e 0.6317(3) 0.2190(4) 0.4402(3) 1. 0 
Se4 Se2- 4 e 0.4403(3) 0.1644(5) 0.5093(3) 1. 0 
Se5 Se2- 4 e 0.0677(3) 0.2388(5) 0.7320(3) 1. 0 
Se6 Se2- 4 e 0.8182(3) 0.0728(5) 0.8187(3) 1. 0 
Se7 Se2- 4 e 0.8480(4) 0.4031(5) 0.8008(3) 1. 0 
Se8 Se2- 4 e 0.4462(4) 0.0607(5) 0.3089(3) 1. 0 
Se9 Se2- 4 e 0.9380(4) 0.4687(5) 0.5971(3) 1. 0 
Se10 Se2- 4 e 0.6396(3) 0.2638(5) 0.6980(3) 1. 0 
Se11 Se2- 4 e 0.4236(4) 0.3839(5) 0.3394(3) 1. 0 
Se12 Se2- 4 e 0.7289(3) 0.8102(5) 0.3808(3) 1. 0 
Se13 Se2- 4 e 0.6798(4) 0.5448(5) 0.4821(4) 1. 0 
Se14 Se2- 4 e 0.7999(4) 0.8089(6) 0.5922(3) 1. 0 

loop_
_atom_site_aniso_label
_atom_site_aniso_type_symbol
_atom_site_aniso_U_11
_atom_site_aniso_U_22
_atom_site_aniso_U_33
_atom_site_aniso_U_12
_atom_site_aniso_U_13
_atom_site_aniso_U_23
K1 K1+ 0.056(9) 0.022(7) 0.034(8) 0.002(6) 0.018(7) -0.003(7)
K2 K1+ 0.029(8) 0.021(7) 0.062(9) 0.010(7) 0.017(7) 0.001(6)
K3 K1+ 0.045(9) 0.052(9) 0.024(7) -0.001(7) 0.001(7) 0.012(7)
K4 K1+ 0.033(8) 0.048(9) 0.030(8) 0.006(7) 0.006(6) 0.003(7)
K5 K1+ 0.036(8) 0.036(8) 0.025(7) -0.010(6) -0.018(6) -0.008(7)
K6 K1+ 0.031(8) 0.080(11) 0.029(8) 0.006(8) 0.001(6) -0.017(8)
K7 K1+ 0.035(8) 0.06(1) 0.036(8) -0.009(7) 0.003(7) -0.009(7)
K8 K1+ 0.062(10) 0.090(13) 0.048(10) -0.007(9) 0.005(8) -0.045(10)
K9 K1+ 0.026(8) 0.110(14) 0.026(8) 0.018(8) 0.004(6) -0.009(9)
K10 K1+ 0.036(8) 0.027(8) 0.056(9) 0.022(7) 0.008(7) 0.009(7)
K11 K1+ 0.027(8) 0.022(8) 0.072(10) -0.006(7) -0.002(7) -0.012(6)
K12 K1+ 0.100(14) 0.060(11) 0.042(9) -0.004(8) 0.021(9) -0.026(10)
Sn1 Sn4+ 0.021(2) 0.021(2) 0.025(2) 0.002(2) 0.001(2) -0.001(2)
Sn2 Sn4+ 0.021(2) 0.019(2) 0.022(2) 0.000(2) 0.001(2) 0.000(2)
Sn3 Sn4+ 0.022(2) 0.025(2) 0.019(2) -0.004(2) 0.001(2) -0.002(2)
Sn4 Sn4+ 0.025(2) 0.030(2) 0.020(2) 0.000(2) 0.003(2) 0.007(2)
Se1 Se2- 0.030(4) 0.042(4) 0.028(4) -0.010(3) 0.004(3) -0.008(3)
Se2 Se2- 0.033(4) 0.045(4) 0.031(4) -0.008(3) 0.012(3) -0.014(3)
Se3 Se2- 0.019(3) 0.037(4) 0.032(3) 0.003(3) 0.000(3) -0.008(3)
Se4 Se2- 0.018(3) 0.032(4) 0.024(3) 0.005(3) 0.004(3) 0.008(3)
Se5 Se2- 0.030(4) 0.029(4) 0.035(4) 0.003(3) -0.001(3) 0.004(3)
Se6 Se2- 0.029(4) 0.032(4) 0.026(4) 0.003(3) 0.001(3) 0.001(3)
Se7 Se2- 0.029(4) 0.043(4) 0.033(4) -0.009(3) -0.001(3) -0.003(3)
Se8 Se2- 0.036(4) 0.033(4) 0.030(4) -0.017(3) 0.005(3) -0.004(3)
Se9 Se2- 0.038(4) 0.027(4) 0.029(4) 0.004(3) -0.004(3) 0.000(3)
Se10 Se2- 0.022(3) 0.047(4) 0.036(4) -0.005(3) 0.001(3) -0.002(3)
Se11 Se2- 0.052(4) 0.037(4) 0.037(4) 0.016(3) 0.012(3) 0.015(3)
Se12 Se2- 0.027(3) 0.039(4) 0.018(3) 0.000(3) 0.007(3) -0.002(3)
Se13 Se2- 0.076(5) 0.028(4) 0.047(4) -0.002(3) 0.018(4) 0.006(4)
Se14 Se2- 0.033(4) 0.072(5) 0.029(4) -0.003(4) 0.001(3) -0.0019(40)
#End of data_300238-ICSD


