data_417776-ICSD
#?2014 by Fachinformationszentrum Karlsruhe, and the U.S. Secretary of 
#Commerce on behalf of the United States.  All rights reserved.
_database_code_ICSD                417776
_audit_creation_date               2008/02/01
_chemical_name_systematic
;
Pentabismuth-tris(tetrabromoaluminate)
;
_chemical_formula_structural       'Bi5 (Al Br4)3'
_chemical_formula_sum              'Al3 Bi5 Br12'
_publ_section_title
;
Bi5(3+)-Polykationen in geordneten und plastischen Kristallen von Bi5 
[Al I4]3 und Bi5 [Al Br4]3
;
loop_
_citation_id
_citation_journal_abbrev
_citation_year
_citation_journal_volume
_citation_journal_issue
_citation_page_first
_citation_page_last
_citation_journal_id_ASTM
primary 'Zeitschrift fuer Anorganische und Allgemeine Chemie (1950) (DE)'
 2007 633 10 1556 1562 ZAACAB
_publ_author_name                  'Ruck, M.;Steden, F.'
_cell_length_a                     12.415(8)
_cell_length_b                     12.415(8)
_cell_length_c                     30.41(2)
_cell_angle_alpha                  90.00
_cell_angle_beta                   90.00
_cell_angle_gamma                  120.00
_cell_volume                       4059.2
_cell_formula_units_Z              6
_symmetry_space_group_name_H-M     'R -3 c H'
_symmetry_Int_Tables_number        167
_refine_ls_R_factor_all            .1885
loop_
_symmetry_equiv_pos_site_id
_symmetry_equiv_pos_as_xyz
  1	'x-y, -y, -z+.5'
  2	'-x, -x+y, -z+.5'
  3	'y, x, -z+.5'
  4	'x-y, x, -z'
  5	'y, -x+y, -z'
  6	'-x, -y, -z'
  7	'-x+y, y, z+.5'
  8	'x, x-y, z+.5'
  9	'-y, -x, z+.5'
 10	'-x+y, -x, z'
 11	'-y, x-y, z'
 12	'x, y, z'
 13	'x-y+.6666, -y+.3333, -z+.8333'
 14	'x-y+.3333, -y+.6666, -z+.1666'
 15	'-x+.6666, -x+y+.3333, -z+.8333'
 16	'-x+.3333, -x+y+.6666, -z+.1666'
 17	'y+.6666, x+.3333, -z+.8333'
 18	'y+.3333, x+.6666, -z+.1666'
 19	'x-y+.6666, x+.3333, -z+.3333'
 20	'x-y+.3333, x+.6666, -z+.6666'
 21	'y+.6666, -x+y+.3333, -z+.3333'
 22	'y+.3333, -x+y+.6666, -z+.6666'
 23	'-x+.6666, -y+.3333, -z+.3333'
 24	'-x+.3333, -y+.6666, -z+.6666'
 25	'-x+y+.6666, y+.3333, z+.8333'
 26	'-x+y+.3333, y+.6666, z+.1666'
 27	'x+.6666, x-y+.3333, z+.8333'
 28	'x+.3333, x-y+.6666, z+.1666'
 29	'-y+.6666, -x+.3333, z+.8333'
 30	'-y+.3333, -x+.6666, z+.1666'
 31	'-x+y+.6666, -x+.3333, z+.3333'
 32	'-x+y+.3333, -x+.6666, z+.6666'
 33	'-y+.6666, x-y+.3333, z+.3333'
 34	'-y+.3333, x-y+.6666, z+.6666'
 35	'x+.6666, y+.3333, z+.3333'
 36	'x+.3333, y+.6666, z+.6666'
loop_
_atom_type_symbol
_atom_type_oxidation_number
Al3+	3
Bi.6+	.6
Br1-	-1
loop_
_atom_site_label
_atom_site_type_symbol
_atom_site_symmetry_multiplicity
_atom_site_Wyckoff_symbol
_atom_site_fract_x
_atom_site_fract_y
_atom_site_fract_z
_atom_site_occupancy
_atom_site_attached_hydrogens
_atom_site_U_iso_or_equiv
Bi1 Bi.6+ 18 e 0.15620(17) 0.0000 0.2500 1 0 0.0839(6) 
Bi2 Bi.6+ 12 c 0.0000 0.0000 0.32514(9) 1 0 0.0924(7) 
Al1 Al3+ 18 e 0.5077(11) 0.0000 0.2500 1 0 0.050(3) 
Br1 Br1- 36 f 0.4136(2) 0.0116(3) 0.31018(8) 1 0 0.0602(8) 
Br2 Br1- 36 f 0.7130(3) 0.1700(3) 0.24016(9) 1 0 0.0686(9) 

loop_
_atom_site_aniso_label
_atom_site_aniso_type_symbol
_atom_site_aniso_U_11
_atom_site_aniso_U_22
_atom_site_aniso_U_33
_atom_site_aniso_U_12
_atom_site_aniso_U_13
_atom_site_aniso_U_23
Bi1 Bi.6+ 0.0699(11) 0.1070(17) 0.0873(18) 0.0535(9) 0.0066(6) 0.0132(13)
Bi2 Bi.6+ 0.1083(14) 0.1083(14) 0.0607(18) 0.0541(7) 0.000 0.000
Al1 Al3+ 0.059(6) 0.045(7) 0.042(8) 0.023(4) 0.001(2) 0.002(5)
Br1 Br1- 0.064(2) 0.070(2) 0.0485(18) 0.0348(19) -0.0032(16) -0.0074(14)
Br2 Br1- 0.063(2) 0.061(2) 0.069(2) 0.0207(19) 0.0051(14) 0.0086(15)
#End of data_417776-ICSD


