data_2425-ICSD
#?2014 by Fachinformationszentrum Karlsruhe, and the U.S. Secretary of 
#Commerce on behalf of the United States.  All rights reserved.
_database_code_ICSD                2425
_audit_creation_date               1980/01/01
_audit_update_record               2012/08/01
_chemical_name_systematic          'Dizinc Silicate'
_chemical_formula_structural       'Zn2 (Si O4)'
_chemical_formula_sum              'O4 Si1 Zn2'
_chemical_name_mineral             Willemite
_publ_section_title                'New investigation of willemite'
loop_
_citation_id
_citation_journal_abbrev
_citation_year
_citation_journal_volume
_citation_page_first
_citation_page_last
_citation_journal_id_ASTM
primary 'Acta Crystallographica B (24,1968-38,1982)' 1978 34 3324 3325 ACBCAR
2 'Powder Diffraction' 1986 1 265 275 PODIE2
_publ_author_name                  'Klaska, K.H.;Eck, J.C.;Pohl, D.'
_cell_length_a                     13.948(2)
_cell_length_b                     13.948(2)
_cell_length_c                     9.315(2)
_cell_angle_alpha                  90.
_cell_angle_beta                   90.
_cell_angle_gamma                  120.
_cell_volume                       1569.41
_cell_formula_units_Z              18
_symmetry_space_group_name_H-M     'R -3 H'
_symmetry_Int_Tables_number        148
_refine_ls_R_factor_all            .032
loop_
_symmetry_equiv_pos_site_id
_symmetry_equiv_pos_as_xyz
  1	'x-y, x, -z'
  2	'y, -x+y, -z'
  3	'-x, -y, -z'
  4	'-x+y, -x, z'
  5	'-y, x-y, z'
  6	'x, y, z'
  7	'x-y+.6666, x+.3333, -z+.3333'
  8	'x-y+.3333, x+.6666, -z+.6666'
  9	'y+.6666, -x+y+.3333, -z+.3333'
 10	'y+.3333, -x+y+.6666, -z+.6666'
 11	'-x+.6666, -y+.3333, -z+.3333'
 12	'-x+.3333, -y+.6666, -z+.6666'
 13	'-x+y+.6666, -x+.3333, z+.3333'
 14	'-x+y+.3333, -x+.6666, z+.6666'
 15	'-y+.6666, x-y+.3333, z+.3333'
 16	'-y+.3333, x-y+.6666, z+.6666'
 17	'x+.6666, y+.3333, z+.3333'
 18	'x+.3333, y+.6666, z+.6666'
loop_
_atom_type_symbol
_atom_type_oxidation_number
O2-	-2
Si4+	4
Zn2+	2
loop_
_atom_site_label
_atom_site_type_symbol
_atom_site_symmetry_multiplicity
_atom_site_Wyckoff_symbol
_atom_site_fract_x
_atom_site_fract_y
_atom_site_fract_z
_atom_site_occupancy
_atom_site_attached_hydrogens
Si1 Si4+ 18 f 0.98393(8) 0.19557(8) 0.7494(1) 1. 0 
Zn1 Zn2+ 18 f 0.98257(4) 0.19167(4) 0.41535(5) 1. 0 
Zn2 Zn2+ 18 f 0.97694(4) 0.19197(4) 0.08140(5) 1. 0 
O1 O2- 18 f 0.1104(2) 0.2164(2) 0.7505(3) 1. 0 
O2 O2- 18 f -.0042(2) 0.3178(2) 0.7490(3) 1. 0 
O3 O2- 18 f 0.9164(2) 0.1256(2) 0.8926(3) 1. 0 
O4 O2- 18 f 0.9227(2) 0.1283(2) 0.6036(3) 1. 0 

#End of data_2425-ICSD


