data_201425-ICSD
#?2014 by Fachinformationszentrum Karlsruhe, and the U.S. Secretary of 
#Commerce on behalf of the United States.  All rights reserved.
_database_code_ICSD                201425
_audit_creation_date               1984/12/31
_audit_update_record               2013/02/01
_chemical_name_systematic
;
Cesium Dicalcium Triniobium Decaoxide
;
_chemical_formula_structural       'Cs Ca2 Nb3 O10'
_chemical_formula_sum              'Ca2 Cs1 Nb3 O10'
_publ_section_title
;
Structure cristalline de la perovskite feuilletee ferroelastique Cs 
Ca2 Nb3 O10
;
loop_
_citation_id
_citation_journal_abbrev
_citation_year
_citation_journal_volume
_citation_page_first
_citation_page_last
_citation_journal_id_ASTM
primary 'Revue de Chimie Minerale' 1984 21 92 103 RVCMA8
_publ_author_name                  'Dion, M.;Ganne, M.;Tournoux, M.'
_cell_length_a                     30.185(3)
_cell_length_b                     7.740(2)
_cell_length_c                     7.746(2)
_cell_angle_alpha                  90.
_cell_angle_beta                   90.
_cell_angle_gamma                  90.
_cell_volume                       1809.71
_cell_formula_units_Z              8
_symmetry_space_group_name_H-M     'P n a m'
_symmetry_Int_Tables_number        62
_refine_ls_R_factor_all            .028
loop_
_symmetry_equiv_pos_site_id
_symmetry_equiv_pos_as_xyz
  1	'x+.5, -y+.5, z'
  2	'x, y, -z+.5'
  3	'-x+.5, y+.5, z+.5'
  4	'-x, -y, -z'
  5	'-x+.5, y+.5, -z'
  6	'-x, -y, z+.5'
  7	'x+.5, -y+.5, -z+.5'
  8	'x, y, z'
loop_
_atom_type_symbol
_atom_type_oxidation_number
Ca2+	2
Cs1+	1
Nb5+	5
O2-	-2
loop_
_atom_site_label
_atom_site_type_symbol
_atom_site_symmetry_multiplicity
_atom_site_Wyckoff_symbol
_atom_site_fract_x
_atom_site_fract_y
_atom_site_fract_z
_atom_site_occupancy
_atom_site_attached_hydrogens
_atom_site_B_iso_or_equiv
Nb1 Nb5+ 4 a 0 0 0 1. 0 0 
Nb2 Nb5+ 4 b 0 0.5 0 1. 0 0 
Nb3 Nb5+ 8 d 0.14029(2) 0.00946(6) 0.00325(9) 1. 0 0 
Nb4 Nb5+ 8 d 0.35974(2) 0.00159(6) 0.00256(9) 1. 0 0 
Ca1 Ca2+ 4 c 0.07229(6) 0.2750(3) 0.25 1. 0 0 
Ca2 Ca2+ 4 c 0.07196(8) 0.7588(3) 0.25 1. 0 0 
Ca3 Ca2+ 4 c 0.42533(7) 0.2466(3) 0.25 1. 0 0 
Ca4 Ca2+ 4 c 0.42833(7) 0.7303(3) 0.25 1. 0 0 
Cs1 Cs1+ 4 c 0.25778(2) 0.26287(9) 0.25 1. 0 0 
Cs2 Cs1+ 4 c 0.24638(3) 0.7497(1) 0.25 1. 0 0 
O1 O2- 8 d 0.0627(2) -.0307(7) -.0392(7) 1. 0 0.87(7) 
O2 O2- 8 d 0.1974(2) 0.0334(6) 0.0271(7) 1. 0 0.68(7) 
O3 O2- 8 d 0.3012(2) -.0182(7) 0.0203(8) 1. 0 1.27(8) 
O4 O2- 8 d 0.4382(2) 0.0404(6) -.0395(7) 1. 0 0.62(7) 
O5 O2- 8 d 0.0098(2) 0.2495(2) 0.0582(7) 1. 0 0.95(6) 
O6 O2- 8 d 0.1186(1) 0.2554(8) -.002(1) 1. 0 0.71(5) 
O7 O2- 8 d 0.3660(1) 0.2535(8) -.0126(8) 1. 0 0.83(6) 
O8 O2- 4 c 0.0077(3) -.0678(9) 0.25 1. 0 0.6(1) 
O9 O2- 4 c 0.4861(3) -.045(1) 0.25 1. 0 0.7(1) 
O10 O2- 4 c 0.1189(2) 0.0156(8) 0.25 1. 0 0.36(8) 
O11 O2- 4 c 0.3799(3) 0.0115(9) 0.25 1. 0 0.6(1) 
O12 O2- 4 c 0.6337(2) 0.0087(8) 0.25 1. 0 0.10(8) 
O13 O2- 4 c 0.8663(4) -.004(1) 0.25 1. 0 1.9(2) 

loop_
_atom_site_aniso_label
_atom_site_aniso_type_symbol
_atom_site_aniso_U_11
_atom_site_aniso_U_22
_atom_site_aniso_U_33
_atom_site_aniso_U_12
_atom_site_aniso_U_13
_atom_site_aniso_U_23
Nb1 Nb5+ 0.0055(3) 0.0055(3) 0.0113(3) 0.0003(2) 0.0017(3) 0.0010(4)
Nb2 Nb5+ 0.0033(2) 0.0071(3) 0.0034(3) -.0006(2) 0.0000(3) -.0013(3)
Nb3 Nb5+ 0.0033(2) 0.0039(2) 0.0052(2) -.0003(1) -.0006(2) -.0005(2)
Nb4 Nb5+ 0.0067(2) 0.0049(2) 0.0046(2) 0.0000(2) -.0005(2) -.0001(2)
Ca1 Ca2+ 0.0089(6) 0.0128(7) 0.0100(7) 0.0091(7) 0 0
Ca2 Ca2+ 0.0236(8) 0.0040(6) 0.0100(7) 0.0043(8) 0 0
Ca3 Ca2+ 0.0143(7) 0.0131(7) 0.0113(8) -.0067(8) 0 0
Ca4 Ca2+ 0.0148(7) 0.0099(7) 0.0068(7) -.0096(7) 0 0
Cs1 Cs1+ 0.0141(2) 0.0135(2) 0.0118(2) -.0067(2) 0 0
Cs2 Cs1+ 0.0260(3) 0.0161(3) 0.0192(3) -.0037(3) 0 0
#End of data_201425-ICSD


