data_15725-ICSD
#?2014 by Fachinformationszentrum Karlsruhe, and the U.S. Secretary of 
#Commerce on behalf of the United States.  All rights reserved.
_database_code_ICSD                15725
_audit_creation_date               1980/01/01
_audit_update_record               2007/08/01
_chemical_name_systematic
;
Dipotassium Strontium Tetrakis(catena-phosphate(V))
;
_chemical_formula_structural       'K2 Sr (P O3)4'
_chemical_formula_sum              'K2 O12 P4 Sr1'
_publ_section_title
;
Structure cristalline du tetrametaphosphate de strontium-potassium: 
Sr K2 (P O3)4
;
loop_
_citation_id
_citation_journal_abbrev
_citation_year
_citation_journal_volume
_citation_page_first
_citation_page_last
_citation_journal_id_ASTM
primary
;
Bulletin de la Societe Francaise de Mineralogie et de 
Cristallographie (72,1949-100,1977)
;
 1967 90 293 298 BUFCAE
2 'Powder Diffraction' 1986 1 77 99 PODIE2
_publ_author_name                  'Tordjman, I.;Martin, C.;Durif, A.'
_cell_length_a                     7.445(5)
_cell_length_b                     7.445
_cell_length_c                     10.17(2)
_cell_angle_alpha                  90.
_cell_angle_beta                   90.
_cell_angle_gamma                  90.
_cell_volume                       563.7
_cell_formula_units_Z              2
_symmetry_space_group_name_H-M     'I -4'
_symmetry_Int_Tables_number        82
_refine_ls_R_factor_all            .07
loop_
_symmetry_equiv_pos_site_id
_symmetry_equiv_pos_as_xyz
  1	'-y, x, -z'
  2	'y, -x, -z'
  3	'-x, -y, z'
  4	'x, y, z'
  5	'-y+.5, x+.5, -z+.5'
  6	'y+.5, -x+.5, -z+.5'
  7	'-x+.5, -y+.5, z+.5'
  8	'x+.5, y+.5, z+.5'
loop_
_atom_type_symbol
_atom_type_oxidation_number
K1+	1
O2-	-2
P5+	5
Sr2+	2
loop_
_atom_site_label
_atom_site_type_symbol
_atom_site_symmetry_multiplicity
_atom_site_Wyckoff_symbol
_atom_site_fract_x
_atom_site_fract_y
_atom_site_fract_z
_atom_site_occupancy
_atom_site_attached_hydrogens
K1 K1+ 4 e 0 0 0.328 1. 0 
Sr1 Sr2+ 2 c 0 0.5 0.25 1. 0 
P1 P5+ 8 g 0.154 0.217 -.03 1. 0 
O1 O2- 8 g 0.186 0.06 0.066 1. 0 
O2 O2- 8 g 0.193 0.385 0.048 1. 0 
O3 O2- 8 g 0.24 0.189 -.16 1. 0 

#End of data_15725-ICSD


