data_71312-ICSD
#?2014 by Fachinformationszentrum Karlsruhe, and the U.S. Secretary of 
#Commerce on behalf of the United States.  All rights reserved.
_database_code_ICSD                71312
_audit_creation_date               1993/01/06
_audit_update_record               2006/04/01
_chemical_name_systematic
;
Dipotassium Barium Tetranitrate(III) - Gamma, Lt
;
_chemical_formula_structural       'K2 Ba (N O2)4'
_chemical_formula_sum              'Ba1 K2 N4 O8'
_publ_section_title
;
Low-temperature structure of K2 Ba (N O2)4
;
loop_
_citation_id
_citation_journal_abbrev
_citation_year
_citation_journal_volume
_citation_journal_issue
_citation_page_first
_citation_page_last
_citation_journal_id_ASTM
primary 'Journal of the Physical Society of Japan' 1991 60 7 2139 2142 JUPSAU
2 'Phase Transition' 1992 38- 127 220 PHTRDP
_publ_author_name
;
Iwata, Y.;Shibuya, I.;Ishibashi, Y.
;
_cell_length_a                     13.062(8)
_cell_length_b                     12.310(5)
_cell_length_c                     13.06(2)
_cell_angle_alpha                  90.
_cell_angle_beta                   120.00(5)
_cell_angle_gamma                  90.
_cell_volume                       1818.62
_cell_formula_units_Z              8
_symmetry_space_group_name_H-M     'C 1 2/m 1'
_symmetry_Int_Tables_number        12
_refine_ls_R_factor_all            .042
loop_
_symmetry_equiv_pos_site_id
_symmetry_equiv_pos_as_xyz
  1	'-x, y, -z'
  2	'-x, -y, -z'
  3	'x, -y, z'
  4	'x, y, z'
  5	'-x+.5, y+.5, -z'
  6	'-x+.5, -y+.5, -z'
  7	'x+.5, -y+.5, z'
  8	'x+.5, y+.5, z'
loop_
_atom_type_symbol
_atom_type_oxidation_number
Ba2+	2
K1+	1
N3+	3
O2-	-2
loop_
_atom_site_label
_atom_site_type_symbol
_atom_site_symmetry_multiplicity
_atom_site_Wyckoff_symbol
_atom_site_fract_x
_atom_site_fract_y
_atom_site_fract_z
_atom_site_occupancy
_atom_site_attached_hydrogens
_atom_site_B_iso_or_equiv
Ba1 Ba2+ 2 a 0 0 0 1. 0 0.79(1) 
Ba2 Ba2+ 2 c 0 0 0.5 1. 0 0.79(1) 
Ba3 Ba2+ 2 b 0.5 0 0 1. 0 0.79(1) 
Ba4 Ba2+ 2 d 0 0.5 0.5 1. 0 0.79(1) 
K1 K1+ 8 j 0.3406(2) 0.25 0.1650(2) 1. 0 1.16(3) 
K2 K1+ 8 j 0.1755(2) 0.25 0.3348(2) 1. 0 1.16(3) 
N1 N3+ 4 i 0.0087(5) 0 0.2670(6) 1. 0 1.3(1) 
O1 O2- 8 j 0.0097(3) 0.0866(4) 0.2148(4) 1. 0 1.67(6) 
N2 N3+ 4 i 0.2417(5) 0 0.2330(6) 1. 0 1.3(1) 
O2 O2- 8 j 0.2949(3) 0.0866(4) 0.2852(4) 1. 0 1.67(6) 
N3 N3+ 4 i 0.4914(5) 0 0.7330(6) 1. 0 1.3(1) 
O3 O2- 8 j 0.4903(3) 0.0866(4) 0.7852(4) 1. 0 1.67(6) 
N4 N3+ 4 i 0.2584(5) 0 0.7670(6) 1. 0 1.3(1) 
O4 O2- 8 j 0.2051(3) 0.0866(4) 0.7148(4) 1. 0 1.67(6) 
N5 N3+ 4 g 0 0.2674(15) 0 1. 0 1.1(3) 
O5 O2- 8 j 0.0921(7) 0.2135(8) 0.0544(8) 1. 0 1.6(2) 
N6 N3+ 4 h 0 0.2327(15) 0.5 1. 0 1.1(3) 
O6 O2- 8 j 0.0377(7) 0.2865(8) 0.4456(8) 1. 0 1.6(2) 
N7 N3+ 4 i 0.2314(11) 0 -.0048(14) 1. 0 1.1(2) 
O7 O2- 8 j 0.2818(5) 0.9135(6) -.0056(6) 1. 0 1.2(1) 
N8 N3+ 4 i 0.2639(11) 0 0.4952(14) 1. 0 1.1(2) 
O8 O2- 8 j 0.2147(5) 0.0865(6) 0.4964(6) 1. 0 1.2(1) 

#End of data_71312-ICSD


