data_421740-ICSD
#?2014 by Fachinformationszentrum Karlsruhe, and the U.S. Secretary of 
#Commerce on behalf of the United States.  All rights reserved.
_database_code_ICSD                421740
_audit_creation_date               2011/02/01
_chemical_name_systematic
;
Rubidium Magnesium Phosphate(V) - Beta
;
_chemical_formula_structural       'Rb Mg P O4'
_chemical_formula_sum              'Mg1 O4 P1 Rb1'
_publ_section_title
;
Polymorphism of new rubidium magnesium monophosphate
;
loop_
_citation_id
_citation_journal_abbrev
_citation_year
_citation_journal_volume
_citation_journal_issue
_citation_page_first
_citation_page_last
_citation_journal_id_ASTM
primary 'Journal of Solid State Chemistry' 2010 183 9 2082 2086 JSSCBI
_publ_author_name
;
Benhamou, R.A.;Wallez, G.;Loiseau, P.;Viana, B.;Elaatmani, M.;Daoud, 
M.;Zegzouti, A.
;
_cell_length_a                     8.7938(3)
_cell_length_b                     9.3698(2)
_cell_length_c                     5.3956(1)
_cell_angle_alpha                  90
_cell_angle_beta                   90
_cell_angle_gamma                  90
_cell_volume                       444.58
_cell_formula_units_Z              4
_symmetry_space_group_name_H-M     'P n a 21'
_symmetry_Int_Tables_number        33
_refine_ls_R_factor_all            .077
loop_
_symmetry_equiv_pos_site_id
_symmetry_equiv_pos_as_xyz
  1	'x+.5, -y+.5, z'
  2	'-x+.5, y+.5, z+.5'
  3	'-x, -y, z+.5'
  4	'x, y, z'
loop_
_atom_type_symbol
_atom_type_oxidation_number
Mg2+	2
O2-	-2
P5+	5
Rb1+	1
loop_
_atom_site_label
_atom_site_type_symbol
_atom_site_symmetry_multiplicity
_atom_site_Wyckoff_symbol
_atom_site_fract_x
_atom_site_fract_y
_atom_site_fract_z
_atom_site_occupancy
_atom_site_attached_hydrogens
_atom_site_U_iso_or_equiv
Rb1 Rb1+ 4 a -0.0026(4) 0.30797(14) 0.25000 1.00000 0 0.0477(4) 
P1 P5+ 4 a 0.2967(3) 0.4075(4) 0.7504(8) 1.00000 0 0.0431(17) 
Mg1 Mg2+ 4 a 0.3247(5) 0.5792(5) 0.2601(14) 1.00000 0 0.040(2) 
O1 O2- 4 a 0.2000(15) 0.2781(8) 0.820(3) 1.00000 0 0.123(9) 
O2 O2- 4 a 0.4647(6) 0.4010(13) 0.687(3) 1.00000 0 0.169(7) 
O3 O2- 4 a 0.2483(12) 0.5216(12) 0.9391(17) 1.00000 0 0.065(7) 
O4 O2- 4 a 0.2260(10) 0.4579(13) 0.5056(14) 1.00000 0 0.032(5) 

#End of data_421740-ICSD


