data_262273-ICSD
#?2014 by Fachinformationszentrum Karlsruhe, and the U.S. Secretary of 
#Commerce on behalf of the United States.  All rights reserved.
_database_code_ICSD                262273
_audit_creation_date               2012/08/01
_chemical_name_systematic          'Sodium Copper Sulfate(VI) Fluoride'
_chemical_formula_structural       'Na Cu (S O4) F'
_chemical_formula_sum              'Cu1 F1 Na1 O4 S1'
_publ_section_title
;
Synthesis and crystal chemistry of the Na M S O4 F family (M = Mg, 
Fe, Co, Cu, Zn)
;
loop_
_citation_id
_citation_journal_abbrev
_citation_year
_citation_journal_volume
_citation_journal_issue
_citation_page_first
_citation_page_last
_citation_journal_id_ASTM
primary 'Solid State Sciences' 2012 14 1 15 20 SSSCFJ
_publ_author_name
;
Reynaud, M.;Barpanda, P.;Rousse, G.;Chotard, J.N.;Melot, B.C.;Recham, 
N.;Tarascon, J.M.
;
_cell_length_a                     6.8231(2)
_cell_length_b                     8.5246(3)
_cell_length_c                     6.8778(2)
_cell_angle_alpha                  90
_cell_angle_beta                   110.745(2)
_cell_angle_gamma                  90
_cell_volume                       374.11
_cell_formula_units_Z              4
_symmetry_space_group_name_H-M     'C 1 2/c 1'
_symmetry_Int_Tables_number        15
_refine_ls_R_factor_all            .131
loop_
_symmetry_equiv_pos_site_id
_symmetry_equiv_pos_as_xyz
  1	'x, -y, z+.5'
  2	'-x, -y, -z'
  3	'-x, y, -z+.5'
  4	'x, y, z'
  5	'x+.5, -y+.5, z+.5'
  6	'-x+.5, -y+.5, -z'
  7	'-x+.5, y+.5, -z+.5'
  8	'x+.5, y+.5, z'
loop_
_atom_type_symbol
_atom_type_oxidation_number
Cu2+	2
F1-	-1
Na1+	1
O2-	-2
S6+	6
loop_
_atom_site_label
_atom_site_type_symbol
_atom_site_symmetry_multiplicity
_atom_site_Wyckoff_symbol
_atom_site_fract_x
_atom_site_fract_y
_atom_site_fract_z
_atom_site_occupancy
_atom_site_attached_hydrogens
_atom_site_B_iso_or_equiv
Na1 Na1+ 4 e 0 0.3444(13) 0.25 1. 0 1.7(4) 
Cu1 Cu2+ 4 a 0 0 0 1. 0 2.55(18) 
S1 S6+ 4 e 0 0.6885(13) 0.25 1. 0 1.9(3) 
O1 O2- 8 f 0.604(2) 0.2898(13) 0.1418(18) 1. 0 1.6(2) 
O2 O2- 8 f 0.3566(19) 0.0927(14) 0.094(2) 1. 0 1.6(2) 
F1 F1- 4 e 0 0.0916(17) 0.25 1. 0 1.6(2) 

#End of data_262273-ICSD


