data_262720-ICSD
#?2014 by Fachinformationszentrum Karlsruhe, and the U.S. Secretary of 
#Commerce on behalf of the United States.  All rights reserved.
_database_code_ICSD                262720
_audit_creation_date               2012/08/01
_chemical_name_systematic          'Dilithium Manganese Orthosilicate'
_chemical_formula_structural       'Li2 Mn Si O4'
_chemical_formula_sum              'Li2 Mn1 O4 Si1'
_publ_section_title
;
Crystal chemistry of the Pmnb polymorph of Li2 Mn Si O4
;
loop_
_citation_id
_citation_journal_abbrev
_citation_year
_citation_journal_volume
_citation_journal_issue
_citation_page_first
_citation_page_last
_citation_journal_id_ASTM
primary 'Journal of Solid State Chemistry' 2012 188 4 32 37 JSSCBI
_publ_author_name
;
Gummow, R.J.;Sharma, N.;Peterson, V.K.;He, Y.
;
_cell_length_a                     6.306938(25)
_cell_length_b                     10.75355(4)
_cell_length_c                     5.008629(23)
_cell_angle_alpha                  90.
_cell_angle_beta                   90.
_cell_angle_gamma                  90.
_cell_volume                       339.7
_cell_formula_units_Z              4
_symmetry_space_group_name_H-M     'P m n b'
_symmetry_Int_Tables_number        62
_refine_ls_R_factor_all            .0274
loop_
_symmetry_equiv_pos_site_id
_symmetry_equiv_pos_as_xyz
  1	'x, y+.5, -z+.5'
  2	'-x+.5, y, z'
  3	'x+.5, -y+.5, z+.5'
  4	'-x, -y, -z'
  5	'-x, -y+.5, z+.5'
  6	'x+.5, -y, -z'
  7	'-x+.5, y+.5, -z+.5'
  8	'x, y, z'
loop_
_atom_type_symbol
_atom_type_oxidation_number
Li1+	1
Mn2+	2
O2-	-2
Si4+	4
loop_
_atom_site_label
_atom_site_type_symbol
_atom_site_symmetry_multiplicity
_atom_site_Wyckoff_symbol
_atom_site_fract_x
_atom_site_fract_y
_atom_site_fract_z
_atom_site_occupancy
_atom_site_attached_hydrogens
_atom_site_U_iso_or_equiv
Li1 Li1+ 8 d 0.5077(8) 0.9129(4) 0.3133(10) 1. 0 0.0255(10) 
Mn1 Mn2+ 4 c 0.25 0.1653(1) 0.1942(2) 1. 0 0.0078(1) 
Si1 Si4+ 4 c 0.25 0.3386(1) 0.6790(3) 1. 0 0.0139(33) 
O1 O2- 4 c 0.25 0.3433(2) 0.3417(4) 1. 0 0.0119(5) 
O2 O2- 8 d 0.0366(2) 0.0907(1) 0.2848(3) 1. 0 0.0078(4) 
O3 O2- 4 c 0.25 0.1926(2) 0.7574(4) 1. 0 0.0061(5) 

#End of data_262720-ICSD


