data_250459-ICSD
#?2014 by Fachinformationszentrum Karlsruhe, and the U.S. Secretary of 
#Commerce on behalf of the United States.  All rights reserved.
_database_code_ICSD                250459
_audit_creation_date               2008/08/01
_chemical_name_systematic
;
Dialuminium Disilicon Pentaoxide Tetrahydroxide
;
_chemical_formula_structural       'Al2 Si2 O5 (O H)4'
_chemical_formula_sum              'H4 Al2 O9 Si2'
_publ_section_title
;
Crystal structure of nacrite from the electron diffraction data
;
loop_
_citation_id
_citation_journal_abbrev
_citation_year
_citation_journal_volume
_citation_journal_issue
_citation_page_first
_citation_page_last
_citation_journal_id_ASTM
primary Kristallografiya 2008 53 1 76 82 KRISAJ
2 'Crystallography Reports' 2008 53 1 76 82 CYSTE3
_publ_author_name                  'Zhukhlistov, A.P.'
_cell_length_a                     8.910(3)
_cell_length_b                     5.144(2)
_cell_length_c                     14.593(3)
_cell_angle_alpha                  90
_cell_angle_beta                   100.50(3)
_cell_angle_gamma                  90
_cell_volume                       657.64
_cell_formula_units_Z              4
_symmetry_space_group_name_H-M     'C 1 c 1'
_symmetry_Int_Tables_number        9
_refine_ls_R_factor_all            .0276
loop_
_symmetry_equiv_pos_site_id
_symmetry_equiv_pos_as_xyz
  1	'x, -y, z+.5'
  2	'x, y, z'
  3	'x+.5, -y+.5, z+.5'
  4	'x+.5, y+.5, z'
loop_
_atom_type_symbol
_atom_type_oxidation_number
Al3+	3
H1+	1
O2-	-2
Si4+	4
loop_
_atom_site_label
_atom_site_type_symbol
_atom_site_symmetry_multiplicity
_atom_site_Wyckoff_symbol
_atom_site_fract_x
_atom_site_fract_y
_atom_site_fract_z
_atom_site_occupancy
_atom_site_attached_hydrogens
Al1 Al3+ 4 a 0.3275 -0.0703(3) -0.0002 1 0 
Al2 Al3+ 4 a 0.1628(2) 0.4245(3) 0.0004(1) 1 0 
Si1 Si4+ 4 a 0.0632(2) 0.2796(3) 0.1897(1) 1 0 
Si2 Si4+ 4 a 0.2342(2) -0.2344(3) 0.1907(1) 1 0 
O1 O2- 4 a 0.1349(3) 0.0011(5) 0.2215(2) 1 0 
O2 O2- 4 a 0.1809(3) 0.5027(5) 0.2362(2) 1 0 
O3 O2- 4 a 0.4119(3) -0.1925(5) 0.2371(2) 1 0 
O4 O2- 4 a 0.0214(3) 0.3111(5) 0.0788(2) 1 0 
O5 O2- 4 a 0.2143(3) -0.2620(5) 0.0794(2) 1 0 
O6 O2- 4 a 0.3271(3) 0.2379(5) 0.0748(2) 1 0 
O7 O2- 4 a 0.1640(3) 0.1153(6) -0.0660(2) 1 0 
O8 O2- 4 a 0.2853(3) -0.3793(5) -0.0650(2) 1 0 
O9 O2- 4 a 0.4772(3) 0.0432(5) -0.0651(2) 1 0 
H1 H1+ 4 a 0.426(3) 0.318(5) 0.096(2) 1 0 
H2 H1+ 4 a 0.599(2) 0.410(5) 0.378(2) 1 0 
H3 H1+ 4 a 0.300(2) 0.346(4) 0.380(1) 1 0 
H4 H1+ 4 a 0.499(2) -0.114(4) 0.380(1) 1 0 

#End of data_250459-ICSD


