data_24235-ICSD
#?2014 by Fachinformationszentrum Karlsruhe, and the U.S. Secretary of 
#Commerce on behalf of the United States.  All rights reserved.
_database_code_ICSD                24235
_audit_creation_date               1980/01/01
_chemical_name_systematic          'Disodium Calcium Silicate'
_chemical_formula_structural       'Na2 Ca Si O4'
_chemical_formula_sum              'Ca1 Na2 O4 Si1'
_publ_section_title
;
Silicate structures of the cristobalite type: II. The crystal 
structure of Na2 Ca Si O4
;
loop_
_citation_id
_citation_journal_abbrev
_citation_year
_citation_journal_volume
_citation_page_first
_citation_page_last
_citation_journal_id_ASTM
primary
;
Zeitschrift fuer Kristallographie, Kristallgeometrie, Kristallphysik, 
Kristallchemie (-144,1977)
;
 1932 81 370 375 ZEKGAX
_publ_author_name                  'Barth, T.F.W.;Posnjak, E.'
_cell_length_a                     7.48(1)
_cell_length_b                     7.48(1)
_cell_length_c                     7.48(1)
_cell_angle_alpha                  90.
_cell_angle_beta                   90.
_cell_angle_gamma                  90.
_cell_volume                       418.51
_cell_formula_units_Z              4
_symmetry_space_group_name_H-M     'P 21 3'
_symmetry_Int_Tables_number        198
loop_
_symmetry_equiv_pos_site_id
_symmetry_equiv_pos_as_xyz
  1	'-z+.5, -x, y+.5'
  2	'-y+.5, -z, x+.5'
  3	'-x+.5, -y, z+.5'
  4	'-z, x+.5, -y+.5'
  5	'-y, z+.5, -x+.5'
  6	'-x, y+.5, -z+.5'
  7	'z+.5, -x+.5, -y'
  8	'y+.5, -z+.5, -x'
  9	'x+.5, -y+.5, -z'
 10	'z, x, y'
 11	'y, z, x'
 12	'x, y, z'
loop_
_atom_type_symbol
_atom_type_oxidation_number
Ca2+	2
Na1+	1
O2-	-2
Si4+	4
loop_
_atom_site_label
_atom_site_type_symbol
_atom_site_symmetry_multiplicity
_atom_site_Wyckoff_symbol
_atom_site_fract_x
_atom_site_fract_y
_atom_site_fract_z
_atom_site_occupancy
_atom_site_attached_hydrogens
Na1 Na1+ 4 a 0.500(8) 0.500(8) 0.500(8) 1. 0 
Na2 Na1+ 4 a 0.750(8) 0.750(8) 0.750(8) 1. 0 
Ca1 Ca2+ 4 a -.007(8) -.007(8) -.007(8) 1. 0 
Si1 Si4+ 4 a 0.253(8) 0.253(8) 0.253(8) 1. 0 
O1 O2- 4 a 0.133(14) 0.133(14) 0.133(14) 1. 0 
O2 O2- 12 b 0.556(14) 0.667(14) 0.222(14) 1. 0 

#End of data_24235-ICSD


