data_180433-ICSD
#?2014 by Fachinformationszentrum Karlsruhe, and the U.S. Secretary of 
#Commerce on behalf of the United States.  All rights reserved.
_database_code_ICSD                180433
_audit_creation_date               2012/02/01
_audit_update_record               2013/08/01
_chemical_name_systematic
;
Tripotassium Triindium Tetraphosphate
;
_chemical_formula_structural       'K3 In3 (P O4)4'
_chemical_formula_sum              'In3 K3 O16 P4'
_publ_section_title
;
Interactions in the systems M(I)2 O - M(III)2 O3 - P2 O5 - Mo O3 
(M(I) = Na,K; M(III) = Ga, In) and the formation of K3 In3 (P O4)4
;
loop_
_citation_id
_citation_journal_abbrev
_citation_year
_citation_journal_volume
_citation_page_first
_citation_page_last
_citation_journal_id_ASTM
primary 'Ukrains`kii Khimicheskii Zhurnal (Russian Edition)'
 2010 76 72 772 UKZHAU
_publ_author_name
;
Zatovs'kii, I.V.;Terebilenko, K.V.;Baumer, V.M.;Slobodyanik, M.S.
;
_cell_length_a                     9.6928(2)
_cell_length_b                     9.7967(2)
_cell_length_c                     15.8411(3)
_cell_angle_alpha                  90.
_cell_angle_beta                   90.390(2)
_cell_angle_gamma                  90.
_cell_volume                       1504.2
_cell_formula_units_Z              4
_symmetry_space_group_name_H-M     'P 1 21/n 1'
_symmetry_Int_Tables_number        14
_refine_ls_R_factor_all            .028
loop_
_symmetry_equiv_pos_site_id
_symmetry_equiv_pos_as_xyz
  1	'-x+.5, y+.5, -z+.5'
  2	'-x, -y, -z'
  3	'x+.5, -y+.5, z+.5'
  4	'x, y, z'
loop_
_atom_type_symbol
_atom_type_oxidation_number
In3+	3
K1+	1
O2-	-2
P5+	5
loop_
_atom_site_label
_atom_site_type_symbol
_atom_site_symmetry_multiplicity
_atom_site_Wyckoff_symbol
_atom_site_fract_x
_atom_site_fract_y
_atom_site_fract_z
_atom_site_occupancy
_atom_site_attached_hydrogens
_atom_site_U_iso_or_equiv
In1 In3+ 4 e 0.25546(2) 0.42456(2) -0.009247(12 1. 0 0.00816(6) 
In2 In3+ 4 e 0.31189(2) 0.64120(2) 0.161176(13) 1. 0 0.00979(6) 
In3 In3+ 4 e 0.17676(2) 0.72855(2) -0.135281(13 1. 0 0.00835(6) 
K1 K1+ 4 e 0.17235(12) 0.02926(12) 0.10156(7) 1. 0 0.0424(3) 
K2 K1+ 4 e 0.47603(11) 0.22699(12) 0.21472(8) 1. 0 0.0470(3) 
K3 K1+ 4 e 0.82538(10) 0.39198(10) 0.36871(6) 1. 0 0.0309(2) 
P1 P5+ 4 e 0.13637(8) 0.39592(9) 0.20399(5) 1. 0 0.00894(14) 
P2 P5+ 4 e 0.05315(7) 0.72255(9) 0.02557(5) 1. 0 0.00826(14) 
P3 P5+ 4 e 0.36656(8) 0.46903(8) -0.21173(5) 1. 0 0.00834(14) 
P4 P5+ 4 e 0.55669(7) 0.26688(9) -0.00461(5) 1. 0 0.00864(14) 
O1 O2- 4 e 0.2060(3) 0.2640(3) 0.23188(16) 1. 0 0.0193(5) 
O2 O2- 4 e 0.2011(3) 0.4390(3) 0.11867(15) 1. 0 0.0216(6) 
O3 O2- 4 e 0.1754(3) 0.5167(3) 0.25961(17) 1. 0 0.0206(5) 
O4 O2- 4 e -0.0193(2) 0.3757(3) 0.20153(16) 1. 0 0.0183(5) 
O5 O2- 4 e 0.1296(2) 0.7381(3) 0.10964(14) 1. 0 0.0147(5) 
O6 O2- 4 e -0.1005(2) 0.7114(3) 0.04255(17) 1. 0 0.0204(5) 
O7 O2- 4 e 0.1136(2) 0.6004(2) -0.02687(13) 1. 0 0.0099(4) 
O8 O2- 4 e 0.0752(2) 0.8450(3) -0.03395(14) 1. 0 0.0148(5) 
O9 O2- 4 e 0.3124(2) 0.6161(2) -0.21275(15) 1. 0 0.0135(4) 
O10 O2- 4 e 0.3174(3) 0.3937(3) -0.13400(15) 1. 0 0.0183(5) 
O11 O2- 4 e 0.3072(3) 0.4011(3) -0.29110(15) 1. 0 0.0171(5) 
O12 O2- 4 e 0.5246(2) 0.4727(3) -0.21585(15) 1. 0 0.0167(5) 
O13 O2- 4 e 0.6103(2) 0.4132(2) -0.02824(14) 1. 0 0.0128(4) 
O14 O2- 4 e 0.4034(2) 0.2693(3) 0.02043(14) 1. 0 0.0132(4) 
O15 O2- 4 e 0.5786(2) 0.1895(3) -0.08791(14) 1. 0 0.0152(5) 
O16 O2- 4 e 0.6373(2) 0.2070(3) 0.06952(14) 1. 0 0.0145(5) 

#End of data_180433-ICSD


