data_95571-ICSD
#?2014 by Fachinformationszentrum Karlsruhe, and the U.S. Secretary of 
#Commerce on behalf of the United States.  All rights reserved.
_database_code_ICSD                95571
_audit_creation_date               2003/10/01
_audit_update_record               2013/08/01
_chemical_name_systematic          'Lithium Molybdenum(III) Sulfide'
_chemical_formula_structural       'Li Mo S2'
_chemical_formula_sum              'Li1 Mo1 S2'
_publ_section_title
;
Structure of nanocrystalline materials using atomic pair distribution 
function analysis: study of Li Mo S2
;
loop_
_citation_id
_citation_journal_abbrev
_citation_year
_citation_journal_volume
_citation_page_first
_citation_page_last
_citation_journal_id_ASTM
primary 'Physical Review, Serie 3. B - Condensed Matter (18,1978-)'
 2002 65 0921051 0921054 PRBMDO
_publ_author_name
;
Petkov, V.;Billinge, S.J.L.;Larson, P.;Mahanti, S.D.;Vogt, T.;Rangan, 
K.K.;Kanatzidis, M.G.
;
_cell_length_a                     6.963(1)
_cell_length_b                     6.386(1)
_cell_length_c                     6.250(1)
_cell_angle_alpha                  88.60
_cell_angle_beta                   89.07
_cell_angle_gamma                  120.06
_cell_volume                       240.33
_cell_formula_units_Z              4
_symmetry_space_group_name_H-M     'P -1'
_symmetry_Int_Tables_number        2
_refine_ls_R_factor_all            .29
loop_
_symmetry_equiv_pos_site_id
_symmetry_equiv_pos_as_xyz
  1	'-x, -y, -z'
  2	'x, y, z'
loop_
_atom_type_symbol
_atom_type_oxidation_number
Li1+	1
Mo3+	3
S2-	-2
loop_
_atom_site_label
_atom_site_type_symbol
_atom_site_symmetry_multiplicity
_atom_site_Wyckoff_symbol
_atom_site_fract_x
_atom_site_fract_y
_atom_site_fract_z
_atom_site_occupancy
_atom_site_attached_hydrogens
Mo1 Mo3+ 2 i 0.9187 0.7251 0.4977 1. 0 
Mo2 Mo3+ 2 i 0.506 0.7342 0.5138 1. 0 
S1 S2- 2 i 0.6638 0.5628 0.7863 1. 0 
S2 S2- 2 i 0.1349 0.0158 0.771 1. 0 
S3 S2- 2 i 0.6979 0.0736 0.7441 1. 0 
S4 S2- 2 i 0.1033 0.5369 0.7569 1. 0 
Li1 Li1+ 2 i 0.03 0.7481 0.013 1. 0 
Li2 Li1+ 2 i 0.537 0.7356 0.009 1. 0 

#End of data_95571-ICSD


