data_10371-ICSD
#?2014 by Fachinformationszentrum Karlsruhe, and the U.S. Secretary of 
#Commerce on behalf of the United States.  All rights reserved.
_database_code_ICSD                10371
_audit_creation_date               1980/01/01
_audit_update_record               2010/02/01
_chemical_name_systematic          'Dipotassium Dichromate'
_chemical_formula_structural       'K2 (Cr2 O7)'
_chemical_formula_sum              'Cr2 K2 O7'
_chemical_name_mineral             Lopezite
_publ_section_title
;
Refinement of the structure of K2 Cr2 O7
;
loop_
_citation_id
_citation_journal_abbrev
_citation_year
_citation_journal_volume
_citation_page_first
_citation_page_last
_citation_journal_id_ASTM
primary 'Materials Research Bulletin' 1973 8 271 274 MRBUAC
2 'Golden Book of Phase Transitions, Wroclaw' 2002 1 1 123 GBOPT5
_publ_author_name                  'Brunton, G.'
_cell_length_a                     7.4200(6)
_cell_length_b                     13.399(3)
_cell_length_c                     7.3845(9)
_cell_angle_alpha                  98.03
_cell_angle_beta                   90.88
_cell_angle_gamma                  96.18
_cell_volume                       722.4
_cell_formula_units_Z              4
_symmetry_space_group_name_H-M     'P -1'
_symmetry_Int_Tables_number        2
_refine_ls_R_factor_all            .057
loop_
_symmetry_equiv_pos_site_id
_symmetry_equiv_pos_as_xyz
  1	'-x, -y, -z'
  2	'x, y, z'
loop_
_atom_type_symbol
_atom_type_oxidation_number
Cr6+	6
K1+	1
O2-	-2
loop_
_atom_site_label
_atom_site_type_symbol
_atom_site_symmetry_multiplicity
_atom_site_Wyckoff_symbol
_atom_site_fract_x
_atom_site_fract_y
_atom_site_fract_z
_atom_site_occupancy
_atom_site_attached_hydrogens
Cr1 Cr6+ 2 i 0.19317(6) 0.08615(3) 0.20690(6) 1. 0 
Cr2 Cr6+ 2 i 0.76885(6) 0.10722(3) 0.59195(6) 1. 0 
Cr3 Cr6+ 2 i 0.84734(5) 0.58327(3) 0.18665(5) 1. 0 
Cr4 Cr6+ 2 i 0.57394(5) 0.38661(3) 0.18305(6) 1. 0 
K1 K1+ 2 i 0.66919(9) 0.14053(5) 0.1038(1) 1. 0 
K2 K1+ 2 i 0.23292(9) 0.15052(5) 0.74983(9) 1. 0 
K3 K1+ 2 i 0.34729(9) 0.63594(5) 0.3046(1) 1. 0 
K4 K1+ 2 i 0.08500(8) 0.34153(5) 0.33748(8) 1. 0 
O1 O2- 2 i 0.3250(3) 0.0570(2) 0.0410(3) 1. 0 
O2 O2- 2 i 0.0295(3) 0.1395(2) 0.1312(3) 1. 0 
O3 O2- 2 i 0.1068(3) 0.9732(2) 0.2919(3) 1. 0 
O4 O2- 2 i 0.3049(4) 0.1630(2) 0.3652(3) 1. 0 
O5 O2- 2 i 0.3878(3) 0.8508(2) 0.2793(3) 1. 0 
O6 O2- 2 i 0.0903(3) 0.7981(2) 0.4451(3) 1. 0 
O7 O2- 2 i 0.3153(3) 0.9547(2) 0.5979(3) 1. 0 
O8 O2- 2 i 0.7037(3) 0.4774(2) 0.0703(3) 1. 0 
O9 O2- 2 i 0.4816(3) 0.3000(2) 0.0241(3) 1. 0 
O10 O2- 2 i 0.7066(3) 0.3362(2) 0.3113(3) 1. 0 
O11 O2- 2 i 0.4243(3) 0.4395(2) 0.3049(3) 1. 0 
O12 O2- 2 i -.0003(3) 0.5432(2) 0.3079(3) 1. 0 
O13 O2- 2 i 0.7262(3) 0.6520(2) 0.3229(3) 1. 0 
O14 O2- 2 i 0.9388(3) 0.6487(2) 0.0398(3) 1. 0 

#End of data_10371-ICSD


