data_415216-ICSD
#?2014 by Fachinformationszentrum Karlsruhe, and the U.S. Secretary of 
#Commerce on behalf of the United States.  All rights reserved.
_database_code_ICSD                415216
_audit_creation_date               2005/10/01
_chemical_name_systematic
;
Trisodium Dithio Dioxo Orthovanadate(V)
;
_chemical_formula_structural       'Na3 (V S2 O2)'
_chemical_formula_sum              'Na3 O2 S2 V1'
_publ_section_title
;
Gemischte Thio/Oxo-Orthovanadate Na3[VSxO4-x] (x=2, 3): Darstellung - 
Strukturen - Eigenschaften
;
loop_
_citation_id
_citation_journal_abbrev
_citation_year
_citation_journal_volume
_citation_page_first
_citation_page_last
_citation_journal_id_ASTM
primary 'Zeitschrift fuer Naturforschung, B: Chemical Sciences'
 2005 60 479 490 ZNBSEN
_publ_author_name                  'Schnabel, S.;Roehr, C.'
_cell_length_a                     11.627(2)
_cell_length_b                     5.9271(12)
_cell_length_c                     17.667(4)
_cell_angle_alpha                  90.00
_cell_angle_beta                   90.00
_cell_angle_gamma                  90.00
_cell_volume                       1217.51
_cell_formula_units_Z              8
_symmetry_space_group_name_H-M     'P b c a'
_symmetry_Int_Tables_number        61
_refine_ls_R_factor_all            .0466
loop_
_symmetry_equiv_pos_site_id
_symmetry_equiv_pos_as_xyz
  1	'x+.5, y, -z+.5'
  2	'x, -y+.5, z+.5'
  3	'-x+.5, y+.5, z'
  4	'-x, -y, -z'
  5	'-x+.5, -y, z+.5'
  6	'-x, y+.5, -z+.5'
  7	'x+.5, -y+.5, -z'
  8	'x, y, z'
loop_
_atom_type_symbol
_atom_type_oxidation_number
Na1+	1
O2-	-2
S2-	-2
V5+	5
loop_
_atom_site_label
_atom_site_type_symbol
_atom_site_symmetry_multiplicity
_atom_site_Wyckoff_symbol
_atom_site_fract_x
_atom_site_fract_y
_atom_site_fract_z
_atom_site_occupancy
_atom_site_attached_hydrogens
_atom_site_U_iso_or_equiv
V1 V5+ 8 c 0.05812(4) 0.16718(7) 0.38812(2) 1 0 0.01417(13) 
S1 S2- 8 c 0.37610(5) 0.27104(12) 0.10238(4) 1 0 0.01945(17) 
S2 S2- 8 c 0.12876(6) 0.29781(12) 0.28203(4) 1 0 0.02116(17) 
O1 O2- 8 c 0.13743(16) 0.2597(3) 0.46179(11) 1 0 0.0210(4) 
O2 O2- 8 c 0.43785(16) 0.3854(3) 0.38413(10) 1 0 0.0188(4) 
Na1 Na1+ 8 c 0.37741(9) 0.28911(19) 0.26148(6) 1 0 0.0235(3) 
Na2 Na1+ 8 c 0.33032(10) 0.1432(2) 0.45214(6) 1 0 0.0265(3) 
Na3 Na1+ 8 c 0.12869(9) 0.2608(2) 0.10140(7) 1 0 0.0253(3) 

loop_
_atom_site_aniso_label
_atom_site_aniso_type_symbol
_atom_site_aniso_U_11
_atom_site_aniso_U_22
_atom_site_aniso_U_33
_atom_site_aniso_U_12
_atom_site_aniso_U_13
_atom_site_aniso_U_23
V1 V5+ 0.0115(2) 0.0121(2) 0.0189(2) 0.00022(16) -0.00109(16) -0.00042(18)
S1 S2- 0.0141(3) 0.0206(4) 0.0237(3) 0.0038(3) -0.0016(3) 0.0010(3)
S2 S2- 0.0171(3) 0.0201(4) 0.0263(4) -0.0008(3) 0.0043(3) 0.0047(3)
O1 O2- 0.0194(10) 0.0208(10) 0.0229(10) -0.0025(8) -0.0051(8) -0.0023(8)
O2 O2- 0.0184(10) 0.0151(10) 0.0228(10) -0.0023(7) -0.0019(8) -0.0005(8)
Na1 Na1+ 0.0240(6) 0.0251(7) 0.0216(6) -0.0011(5) -0.0009(5) -0.0028(5)
Na2 Na1+ 0.0256(6) 0.0231(6) 0.0308(6) 0.0010(5) 0.0056(5) 0.0047(5)
Na3 Na1+ 0.0171(6) 0.0231(6) 0.0358(7) 0.0026(5) 0.0024(5) -0.0008(5)
#End of data_415216-ICSD


