data_156435-ICSD
#?2014 by Fachinformationszentrum Karlsruhe, and the U.S. Secretary of 
#Commerce on behalf of the United States.  All rights reserved.
_database_code_ICSD                156435
_audit_creation_date               2007/08/01
_audit_update_record               2008/02/01
_chemical_name_systematic
;
Hemimagnesium Oxotitanium Phosphate(V)
;
_chemical_formula_structural       'Mg0.5 (Ti O) (P O4)'
_chemical_formula_sum              'Mg0.5 O5 P1 Ti1'
_publ_section_title
;
Synthesis, structure refinement and characterisation of a new 
oxyphosphate Mg0.5 Ti O (P O4)
;
loop_
_citation_id
_citation_journal_abbrev
_citation_year
_citation_journal_volume
_citation_page_first
_citation_page_last
_citation_journal_id_ASTM
primary 'Materials Research Bulletin' 2007 42 892 903 MRBUAC
_publ_author_name
;
Benmokhtar, S.;El Jazouli, A.;Krimi, S.;Chaminade, J.P.;Gravereau, 
P.;Menetrier, M.;de Waal, D.
;
_cell_length_a                     7.367(9)
_cell_length_b                     7.385(8)
_cell_length_c                     7.373(9)
_cell_angle_alpha                  90.
_cell_angle_beta                   120.23(1)
_cell_angle_gamma                  90.
_cell_volume                       346.58
_cell_formula_units_Z              4
_symmetry_space_group_name_H-M     'P 1 21/c 1'
_symmetry_Int_Tables_number        14
_refine_ls_R_factor_all            .031
loop_
_symmetry_equiv_pos_site_id
_symmetry_equiv_pos_as_xyz
  1	'x, -y+.5, z+.5'
  2	'-x, -y, -z'
  3	'-x, y+.5, -z+.5'
  4	'x, y, z'
loop_
_atom_type_symbol
_atom_type_oxidation_number
Mg2+	2
O2-	-2
P5+	5
Ti4+	4
loop_
_atom_site_label
_atom_site_type_symbol
_atom_site_symmetry_multiplicity
_atom_site_Wyckoff_symbol
_atom_site_fract_x
_atom_site_fract_y
_atom_site_fract_z
_atom_site_occupancy
_atom_site_attached_hydrogens
_atom_site_B_iso_or_equiv
Mg1 Mg2+ 2 a 0 0 0 1. 0 1.35(11) 
Ti1 Ti4+ 4 e 0.7353(7) 0.2214(4) 0.5281(5) 1. 0 0.42(5) 
P1 P5+ 4 e 0.2476(7) 0.1236(7) 0.7506(6) 1. 0 0.20(5) 
O1 O2- 4 e 0.7611(15) 0.1483(11) 0.7645(13) 1. 0 0.52(8) 
O2 O2- 4 e 0.7871(16) 0.9990(11) 0.0962(16) 1. 0 0.52(8) 
O3 O2- 4 e 0.4497(14) 0.2284(18) 0.8639(18) 1. 0 0.52(8) 
O4 O2- 4 e 0.2731(17) 0.0126(13) 0.5921(16) 1. 0 0.52(8) 
O5 O2- 4 e 0.0576(14) 0.2533(13) 0.1543(18) 1. 0 0.52(8) 

#End of data_156435-ICSD


