data_93121-ICSD
#?2014 by Fachinformationszentrum Karlsruhe, and the U.S. Secretary of 
#Commerce on behalf of the United States.  All rights reserved.
_database_code_ICSD                93121
_audit_creation_date               2003/04/01
_audit_update_record               2013/08/01
_chemical_name_systematic          'Aluminium Phosphate(V)'
_chemical_formula_structural       'Al (P O4)'
_chemical_formula_sum              'Al1 O4 P1'
_publ_section_title
;
Chemistry - structure - simulation or chemistry - simulation - 
structure sequences? the case of MIL-34, a new porous 
aluminophosphate
;
loop_
_citation_id
_citation_journal_abbrev
_citation_year
_citation_journal_volume
_citation_page_first
_citation_page_last
_citation_journal_id_ASTM
primary 'Journal of the American Chemical Society' 2001 123 9642 9651 JACSAT
_publ_author_name
;
Loiseau, T.;Mellot-Draznieks, C.;Sassoye, C.;Girard, S.;Guillou, 
N.;Huguenard, C.;Taulelle, F.;Ferey, G.
;
_cell_length_a                     8.784(6)
_cell_length_b                     8.784(6)
_cell_length_c                     12.850(6)
_cell_angle_alpha                  110.43(4)
_cell_angle_beta                   98.50(5)
_cell_angle_gamma                  104.92(4)
_cell_volume                       866.32
_cell_formula_units_Z              8
_symmetry_space_group_name_H-M     'P -1'
_symmetry_Int_Tables_number        2
_refine_ls_R_factor_all            .111
loop_
_symmetry_equiv_pos_site_id
_symmetry_equiv_pos_as_xyz
  1	'-x, -y, -z'
  2	'x, y, z'
loop_
_atom_type_symbol
_atom_type_oxidation_number
Al3+	3
O2-	-2
P5+	5
loop_
_atom_site_label
_atom_site_type_symbol
_atom_site_symmetry_multiplicity
_atom_site_Wyckoff_symbol
_atom_site_fract_x
_atom_site_fract_y
_atom_site_fract_z
_atom_site_occupancy
_atom_site_attached_hydrogens
Al1 Al3+ 2 i 0.695(2) 0.211(2) 0.628(1) 1. 0 
Al2 Al3+ 2 i 0.324(2) 0.203(2) 0.820(1) 1. 0 
Al3 Al3+ 2 i 0.003(2) 0.692(2) -0.055(1) 1. 0 
Al4 Al3+ 2 i 0.508(2) 0.205(2) -0.181(1) 1. 0 
P1 P5+ 2 i 0.6086(9) 0.507(1) -0.178(8) 1. 0 
P2 P5+ 2 i 0.597(1) -0.0984(9) 0.629(8) 1. 0 
P3 P5+ 2 i 0.7546(1) -0.054(1) -0.048(7) 1. 0 
P4 P5+ 2 i -0.018(1) 0.326(1) 0.819(7) 1. 0 
O1 O2- 2 i 0.287(4) 0.784(5) 0.509(1) 1. 0 
O2 O2- 2 i 0.423(5) 0.769(3) 0.676(2) 1. 0 
O3 O2- 2 i 0.898(3) 0.250(6) 0.702(1) 1. 0 
O4 O2- 2 i 0.344(5) 0.052(4) 0.691(2) 1. 0 
O5 O2- 2 i 0.508(4) 0.407(3) 0.214(3) 1. 0 
O6 O2- 2 i 0.506(3) 0.633(4) 0.140(3) 1. 0 
O7 O2- 2 i 0.566(2) 0.019(4) 0.630(3) 1. 0 
O8 O2- 2 i 0.625(5) 0.616(4) 0.295(1) 1. 0 
O9 O2- 2 i -0.042(5) 0.517(2) 0.853(3) 1. 0 
O10 O2- 2 i 0.211(2) 0.395(5) 0.119(4) 1. 0 
O11 O2- 2 i 0.174(4) 0.292(6) 0.797(3) 1. 0 
O12 O2- 2 i 0.342(4) 0.831(4) 0.899(3) 1. 0 
O13 O2- 2 i 0.064(1) 0.852(4) -0.099(3) 1. 0 
O14 O2- 2 i 0.273(5) 0.087(5) -0.094(3) 1. 0 
O15 O2- 2 i 0.328(4) 0.030(5) 0.081(1) 1. 0 
O16 O2- 2 i 0.959(5) 0.254(4) -0.095(2) 1. 0 

#End of data_93121-ICSD


