data_85416-ICSD
#?2014 by Fachinformationszentrum Karlsruhe, and the U.S. Secretary of 
#Commerce on behalf of the United States.  All rights reserved.
_database_code_ICSD                85416
_audit_creation_date               1999/06/02
_chemical_name_systematic          'Silver(II) Bis(tetrafluoroaurate)'
_chemical_formula_structural       'Ag (Au F4)2'
_chemical_formula_sum              'Ag1 Au2 F8'
_publ_section_title
;
Synthese und Struktur von Silber(II)-tetrafluoroaurat(III) Ag (Au 
F4)2
;
loop_
_citation_id
_citation_journal_abbrev
_citation_year
_citation_journal_volume
_citation_page_first
_citation_page_last
_citation_journal_id_ASTM
primary 'Zeitschrift fuer Anorganische und Allgemeine Chemie (1950) (DE)'
 1997 623 1729 1733 ZAACAB
_publ_author_name                  'Fischer, R.;Mueller, B.G.'
_cell_length_a                     5.229(3)
_cell_length_b                     11.008(15)
_cell_length_c                     5.515(3)
_cell_angle_alpha                  90.
_cell_angle_beta                   94.91(5)
_cell_angle_gamma                  90.
_cell_volume                       316.28
_cell_formula_units_Z              2
_symmetry_space_group_name_H-M     'P 1 21/n 1'
_symmetry_Int_Tables_number        14
_refine_ls_R_factor_all            .035
loop_
_symmetry_equiv_pos_site_id
_symmetry_equiv_pos_as_xyz
  1	'-x+.5, y+.5, -z+.5'
  2	'-x, -y, -z'
  3	'x+.5, -y+.5, z+.5'
  4	'x, y, z'
loop_
_atom_type_symbol
_atom_type_oxidation_number
Ag2+	2
Au3+	3
F1-	-1
loop_
_atom_site_label
_atom_site_type_symbol
_atom_site_symmetry_multiplicity
_atom_site_Wyckoff_symbol
_atom_site_fract_x
_atom_site_fract_y
_atom_site_fract_z
_atom_site_occupancy
_atom_site_attached_hydrogens
Ag1 Ag2+ 2 d 0 0.5 0.5 1. 0 
Au1 Au3+ 4 e 0.22550(6) 0.17990(3) 0.48024(5) 1. 0 
F1 F1- 4 e 0.219(1) 0.0862(5) 0.180(1) 1. 0 
F2 F1- 4 e 0.259(1) 0.0310(5) 0.666(1) 1. 0 
F3 F1- 4 e 0.199(2) 0.3265(5) 0.298(1) 1. 0 
F4 F1- 4 e 0.210(1) 0.2759(6) 0.766(1) 1. 0 

loop_
_atom_site_aniso_label
_atom_site_aniso_type_symbol
_atom_site_aniso_U_11
_atom_site_aniso_U_22
_atom_site_aniso_U_33
_atom_site_aniso_U_12
_atom_site_aniso_U_13
_atom_site_aniso_U_23
Ag1 Ag2+ 0.0209(4) 0.0148(4) 0.0094(4) -.0023(3) 0.0031(3) -.0017(3)
Au1 Au3+ 0.0160(2) 0.0140(2) 0.0127(2) 0.0018(1) -.0009(1) 0.0013(1)
F1 F1- 0.0253(26) 0.0246(25) 0.0178(25) 0.0051(21) 0.0037(21) -.0091(19)
F2 F1- 0.0233(26) 0.0225(26) 0.0204(26) -.0026(20) -.0053(21) 0.0063(20)
F3 F1- 0.0334(30) 0.0139(24) 0.0279(29) 0.0028(19) 0.0022(24) 0.0051(19)
F4 F1- 0.0291(29) 0.0333(29) 0.0193(27) -.0011(23) 0.0040(22) -.0131(22)
#End of data_85416-ICSD


