data_69958-ICSD
#?2014 by Fachinformationszentrum Karlsruhe, and the U.S. Secretary of 
#Commerce on behalf of the United States.  All rights reserved.
_database_code_ICSD                69958
_audit_creation_date               1993/01/06
_audit_update_record               2007/08/01
_chemical_name_systematic
;
Octasodium Bis(tecto-alumoberyllotetrasilicate) Dichloride
;
_chemical_formula_structural       'Na8 (Al Be Si4 O12)2 Cl2'
_chemical_formula_sum              'Al2 Be2 Cl2 Na8 O24 Si8'
_chemical_name_mineral             Tugtupite
_publ_section_title
;
The crystal structure and thermal expansion of tugtupite, Na8 (Al2 
Be2 Si8 O24) Cl2
;
loop_
_citation_id
_citation_journal_abbrev
_citation_year
_citation_journal_volume
_citation_page_first
_citation_page_last
_citation_journal_id_ASTM
primary 'Canadian Mineralogist' 1991 29 385 390 CAMIA6
2 'Zeitschrift fuer Kristallographie (1979-2010)' 1995 210 418 420 ZEKRDZ
_publ_author_name                  'Hassan, I.;Grundy, H.D.'
_cell_length_a                     8.640(1)
_cell_length_b                     8.640(1)
_cell_length_c                     8.873(1)
_cell_angle_alpha                  90.
_cell_angle_beta                   90.
_cell_angle_gamma                  90.
_cell_volume                       662.37
_cell_formula_units_Z              1
_symmetry_space_group_name_H-M     'I -4'
_symmetry_Int_Tables_number        82
_refine_ls_R_factor_all            .023
loop_
_symmetry_equiv_pos_site_id
_symmetry_equiv_pos_as_xyz
  1	'-y, x, -z'
  2	'y, -x, -z'
  3	'-x, -y, z'
  4	'x, y, z'
  5	'-y+.5, x+.5, -z+.5'
  6	'y+.5, -x+.5, -z+.5'
  7	'-x+.5, -y+.5, z+.5'
  8	'x+.5, y+.5, z+.5'
loop_
_atom_type_symbol
_atom_type_oxidation_number
Al3+	3
Be2+	2
Cl1-	-1
Na1+	1
O2-	-2
Si4+	4
loop_
_atom_site_label
_atom_site_type_symbol
_atom_site_symmetry_multiplicity
_atom_site_Wyckoff_symbol
_atom_site_fract_x
_atom_site_fract_y
_atom_site_fract_z
_atom_site_occupancy
_atom_site_attached_hydrogens
Al1 Al3+ 2 d 0 0.5 0.75 1. 0 
Be1 Be2+ 2 c 0 0.5 0.25 1. 0 
Si1 Si4+ 8 g 0.0127(1) 0.2533(1) 0.4958(1) 1. 0 
O1 O2- 8 g 0.1504(3) 0.1343(2) 0.4417(2) 1. 0 
O2 O2- 8 g 0.3472(2) 0.0385(3) 0.6488(2) 1. 0 
O3 O2- 8 g 0.4256(2) 0.1486(2) 0.1377(3) 1. 0 
Na1 Na1+ 8 g 0.1563(2) 0.1972(2) 0.1818(2) 1. 0 
Cl1 Cl1- 2 a 0 0 0 1. 0 

loop_
_atom_site_aniso_label
_atom_site_aniso_type_symbol
_atom_site_aniso_U_11
_atom_site_aniso_U_22
_atom_site_aniso_U_33
_atom_site_aniso_U_12
_atom_site_aniso_U_13
_atom_site_aniso_U_23
Al1 Al3+ 0.0078(5) 0.0078(5) 0.0074(8) 0 0 0
Be1 Be2+ 0.0086(18) 0.0086(18) 0.0123(34) 0 0 0
Si1 Si4+ 0.0071(3) 0.0063(3) 0.0086(3) -0.0002(2) -0.0002(3) -0.0003(3)
O1 O2- 0.0126(9) 0.0116(9) 0.0128(9) 0.0046(7) 0.0010(8) 0.0001(7)
O2 O2- 0.0107(8) 0.0119(8) 0.0132(9) -0.0003(6) -0.0035(8) -0.0004(8)
O3 O2- 0.0112(8) 0.0114(8) 0.0135(9) -0.0001(6) 0.0005(7) 0.0038(8)
Na1 Na1+ 0.0206(7) 0.0160(6) 0.0199(8) 0.0007(5) 0.0024(5) 0.0012(5)
Cl1 Cl1- 0.0228(4) 0.0228(4) 0.0244(7) 0 0 0
#End of data_69958-ICSD


