data_300263-ICSD
#?2014 by Fachinformationszentrum Karlsruhe, and the U.S. Secretary of 
#Commerce on behalf of the United States.  All rights reserved.
_database_code_ICSD                300263
_audit_creation_date               1993/01/06
_audit_update_record               2007/08/01
_chemical_name_systematic
;
Tetrasodium Decaselenidotetragermanate
;
_chemical_formula_structural       'Na4 (Ge4 Se10)'
_chemical_formula_sum              'Ge4 Na4 Se10'
_publ_section_title
;
Crystal structure of tetrasodium decaselenidotetragermanate
;
loop_
_citation_id
_citation_journal_abbrev
_citation_year
_citation_journal_volume
_citation_page_first
_citation_page_last
_citation_journal_id_ASTM
primary 'Zeitschrift fuer Kristallographie (1979-2010)' 1993 205 325 326 ZEKRDZ
_publ_author_name                  'Eisenmann, B.;Hansa, J.'
_cell_length_a                     13.507(5)
_cell_length_b                     13.363(5)
_cell_length_c                     11.034(5)
_cell_angle_alpha                  90.
_cell_angle_beta                   90.
_cell_angle_gamma                  90.
_cell_volume                       1991.57
_cell_formula_units_Z              4
_symmetry_space_group_name_H-M     'C m c m'
_symmetry_Int_Tables_number        63
_refine_ls_R_factor_all            .097
loop_
_symmetry_equiv_pos_site_id
_symmetry_equiv_pos_as_xyz
  1	'-x, y, -z+.5'
  2	'-x, -y, z+.5'
  3	'-x, y, z'
  4	'-x, -y, -z'
  5	'x, -y, z+.5'
  6	'x, y, -z+.5'
  7	'x, -y, -z'
  8	'x, y, z'
  9	'-x+.5, y+.5, -z+.5'
 10	'-x+.5, -y+.5, z+.5'
 11	'-x+.5, y+.5, z'
 12	'-x+.5, -y+.5, -z'
 13	'x+.5, -y+.5, z+.5'
 14	'x+.5, y+.5, -z+.5'
 15	'x+.5, -y+.5, -z'
 16	'x+.5, y+.5, z'
loop_
_atom_type_symbol
_atom_type_oxidation_number
Ge4+	4
Na1+	1
Se2-	-2
loop_
_atom_site_label
_atom_site_type_symbol
_atom_site_symmetry_multiplicity
_atom_site_Wyckoff_symbol
_atom_site_fract_x
_atom_site_fract_y
_atom_site_fract_z
_atom_site_occupancy
_atom_site_attached_hydrogens
Se1 Se2- 4 c 0 0.5619(5) 0.25 1. 0 
Se2 Se2- 16 h 0.1451(2) 0.3531(2) 0.0738(3) 1. 0 
Se3 Se2- 4 c 0 0.1484(5) 0.25 1. 0 
Se4 Se2- 8 f 0 0.1549(3) 0.9115(4) 1. 0 
Se5 Se2- 8 g 0.2764(3) 0.5500(4) 0.25 1. 0 
Ge1 Ge4+ 8 f 0 0.2542(3) 0.0802(4) 1. 0 
Ge2 Ge4+ 8 g 0.1369(3) 0.4551(3) 0.25 1. 0 
Na1 Na1+ 8 e 0.1472(13) 0 0 1. 0 
Na2 Na1+ 8 g 0.1695(18) 0.7521(16) 0.25 1. 0 

loop_
_atom_site_aniso_label
_atom_site_aniso_type_symbol
_atom_site_aniso_U_11
_atom_site_aniso_U_22
_atom_site_aniso_U_33
_atom_site_aniso_U_12
_atom_site_aniso_U_13
_atom_site_aniso_U_23
Se1 Se2- 0.027(4) 0.029(4) 0.076(5) 0 0 0
Se2 Se2- 0.034(2) 0.045(2) 0.028(2) -0.010(2) 0.005(2) -0.006(2)
Se3 Se2- 0.031(4) 0.035(4) 0.028(3) 0 0 0
Se4 Se2- 0.038(3) 0.039(3) 0.026(3) 0 0 -0.0001(20)
Se5 Se2- 0.027(3) 0.048(3) 0.030(2) -0.012(2) 0 0
Ge1 Ge4+ 0.035(3) 0.034(3) 0.022(3) 0 0 -0.009(2)
Ge2 Ge4+ 0.026(2) 0.036(3) 0.030(3) -0.005(2) 0 0
Na1 Na1+ 0.031(10) 0.076(13) 0.029(9) 0 0 0.015(10)
Na2 Na1+ 0.066(15) 0.053(13) 0.098(18) -0.004(12) 0 0
#End of data_300263-ICSD


