data_72934-ICSD
#?2014 by Fachinformationszentrum Karlsruhe, and the U.S. Secretary of 
#Commerce on behalf of the United States.  All rights reserved.
_database_code_ICSD                72934
_audit_creation_date               1994/06/30
_audit_update_record               2012/08/01
_chemical_name_systematic
;
Octapotassium Thorium Hexakis(molybdate)
;
_chemical_formula_structural       'K8 Th (Mo O4)6'
_chemical_formula_sum              'K8 Mo6 O24 Th1'
_publ_section_title                'Structure de K8Th(MoO4)6'
loop_
_citation_id
_citation_journal_abbrev
_citation_year
_citation_journal_volume
_citation_page_first
_citation_page_last
_citation_journal_id_ASTM
primary 'Acta Crystallographica, Section C: Crystal Structure Communications'
 1993 49 950 954 ACSCEE
_publ_author_name
;
Huyghe, M.;Lee, M.-R.;Jaulmes, S.;Quarton, M.
;
_cell_length_a                     10.255(1)
_cell_length_b                     10.260(2)
_cell_length_c                     14.466(4)
_cell_angle_alpha                  75.87(3)
_cell_angle_beta                   96.81(2)
_cell_angle_gamma                  118.43
_cell_volume                       1298
_cell_formula_units_Z              2
_symmetry_space_group_name_H-M     'P -1'
_symmetry_Int_Tables_number        2
_refine_ls_R_factor_all            .068
loop_
_symmetry_equiv_pos_site_id
_symmetry_equiv_pos_as_xyz
  1	'-x, -y, -z'
  2	'x, y, z'
loop_
_atom_type_symbol
_atom_type_oxidation_number
K1+	1
Mo6+	6
O2-	-2
Th4+	4
loop_
_atom_site_label
_atom_site_type_symbol
_atom_site_symmetry_multiplicity
_atom_site_Wyckoff_symbol
_atom_site_fract_x
_atom_site_fract_y
_atom_site_fract_z
_atom_site_occupancy
_atom_site_attached_hydrogens
Th1 Th4+ 2 i 0.30845(6) 0.93292(6) 0.75066(3) 1. 0 
Mo1 Mo6+ 2 i 0.6537(1) 0.2733(1) 0.64578(8) 1. 0 
Mo2 Mo6+ 2 i 0.3309(1) 0.6071(1) 0.65582(8) 1. 0 
Mo3 Mo6+ 2 i 0.0048(1) 0.9496(1) 0.64547(8) 1. 0 
Mo4 Mo6+ 2 i 0.0009(1) 0.5523(1) 0.85171(8) 1. 0 
Mo5 Mo6+ 2 i 0.3347(1) 0.2025(1) 0.85589(8) 1. 0 
Mo6 Mo6+ 2 i 0.6728(1) 0.8875(1) 0.84422(8) 1. 0 
K1 K1+ 2 i 0.9865(4) 0.2499(4) 0.7480(2) 1. 0 
K2 K1+ 2 i 0.6681(4) 0.5769(4) 0.7513(2) 1. 0 
K3 K1+ 2 i 0.3295(4) 0.3201(4) 0.5423(2) 1. 0 
K4 K1+ 2 i 0.6720(4) 0.9853(4) 0.5501(2) 1. 0 
K5 K1+ 2 i 0.9939(4) 0.6441(4) 0.5448(2) 1. 0 
K6 K1+ 2 i 0.3344(4) 0.5085(4) 0.9494(2) 1. 0 
K7 K1+ 2 i 0.6838(4) 0.2007(4) 0.9533(2) 1. 0 
K8 K1+ 2 i 0.9919(4) 0.8473(4) 0.9576(2) 1. 0 
O1 O2- 2 i 0.801(1) 0.284(2) 0.5901(8) 1. 0 
O2 O2- 2 i 0.632(1) 0.436(1) 0.6016(8) 1. 0 
O3 O2- 2 i 0.490(1) 0.100(1) 0.6305(7) 1. 0 
O4 O2- 2 i 0.689(1) 0.255(2) 0.7677(8) 1. 0 
O5 O2- 2 i 0.351(2) 0.504(2) 0.7660(9) 1. 0 
O6 O2- 2 i 0.489(1) 0.673(1) 0.5900(9) 1. 0 
O7 O2- 2 i 0.177(1) 0.478(1) 0.6048(7) 1. 0 
O8 O2- 2 i 0.306(1) 0.765(1) 0.6688(8) 1. 0 
O9 O2- 2 i 0.008(1) 0.125(1) 0.6042(8) 1. 0 
O10 O2- 2 i 0.848(1) 0.809(1) 0.6036(7) 1. 0 
O11 O2- 2 i 0.051(1) 0.906(1) 0.7689(7) 1. 0 
O12 O2- 2 i 0.168(1) 0.961(1) 0.6021(7) 1. 0 
O13 O2- 2 i 0.968(1) 0.570(1) 0.7318(7) 1. 0 
O14 O2- 2 i 0.857(1) 0.547(1) 0.9071(7) 1. 0 
O15 O2- 2 i 0.007(1) 0.382(1) 0.8965(8) 1. 0 
O16 O2- 2 i 0.179(1) 0.709(1) 0.8715(7) 1. 0 
O17 O2- 2 i 0.175(1) 0.193(1) 0.8911(7) 1. 0 
O18 O2- 2 i 0.495(1) 0.338(1) 0.9007(7) 1. 0 
O19 O2- 2 i 0.331(1) 0.023(1) 0.8996(7) 1. 0 
O20 O2- 2 i 0.337(1) 0.200(1) 0.7345(6) 1. 0 
O21 O2- 2 i 0.808(1) 0.016(1) 0.9052(8) 1. 0 
O22 O2- 2 i 0.500(1) 0.897(1) 0.8380(8) 1. 0 
O23 O2- 2 i 0.745(2) 0.929(2) 0.7328(8) 1. 0 
O24 O2- 2 i 0.643(1) 0.705(1) 0.9014(8) 1. 0 

loop_
_atom_site_aniso_label
_atom_site_aniso_type_symbol
_atom_site_aniso_U_11
_atom_site_aniso_U_22
_atom_site_aniso_U_33
_atom_site_aniso_U_12
_atom_site_aniso_U_13
_atom_site_aniso_U_23
Th1 Th4+ 0.0088(2) 0.0079(2) 0.0072(2) 0.0032(2) 0.0002(2) -.0011(2)
Mo1 Mo6+ 0.0109(6) 0.0084(6) 0.0081(5) 0.0035(5) 0.0013(4) -.0005(4)
Mo2 Mo6+ 0.0102(6) 0.0111(6) 0.0111(5) 0.0029(5) 0.0001(4) -.0056(4)
Mo3 Mo6+ 0.0095(6) 0.0080(6) 0.0084(5) 0.0034(5) -.0016(4) -.0015(4)
Mo4 Mo6+ 0.0094(6) 0.0082(6) 0.0076(5) 0.0024(5) 0.0014(4) -.0007(4)
Mo5 Mo6+ 0.0096(6) 0.0102(6) 0.0081(5) 0.0045(5) -.0002(4) -.0036(4)
Mo6 Mo6+ 0.0101(6) 0.0104(6) 0.0089(5) 0.0037(5) -.0016(4) -.0009(4)
K1 K1+ 0.0227(18) 0.0223(18) 0.0130(15) 0.0086(15) -.0013(13) -.0041(13)
K2 K1+ 0.0237(19) 0.0186(17) 0.0173(15) 0.0128(15) 0.0026(13) -.0019(13)
K3 K1+ 0.0191(16) 0.0189(18) 0.0150(15) 0.0079(15) -.0003(12) -.0007(13)
K4 K1+ 0.0247(19) 0.0234(19) 0.0183(16) 0.0114(16) -.0008(13) -.0098(13)
K5 K1+ 0.0228(18) 0.0220(18) 0.0152(15) 0.0115(15) 0.0004(12) -.0026(13)
K6 K1+ 0.0195(18) 0.0224(18) 0.0151(15) 0.0093(15) 0.0000(12) -.0027(13)
K7 K1+ 0.0265(19) 0.0228(18) 0.0185(16) 0.0130(16) 0.0001(13) -.0013(13)
K8 K1+ 0.0191(17) 0.0202(18) 0.0150(15) 0.0080(15) 0.0027(12) -.0034(13)
O1 O2- 0.0223(63) 0.0476(83) 0.0251(60) 0.0226(62) 0.0096(48) -.0017(55)
O2 O2- 0.0313(66) 0.0097(53) 0.0280(59) 0.0146(52) -.0036(49) -.0051(44)
O3 O2- 0.0184(54) 0.008(5) 0.0187(51) 0.0038(45) 0.0042(41) -.0010(39)
O4 O2- 0.0331(73) 0.0443(83) 0.0136(55) 0.0133(65) -.0036(49) -.0076(52)
O5 O2- 0.0506(94) 0.075(12) 0.0183(63) 0.0342(89) -.0081(60) -.0067(66)
O6 O2- 0.0153(58) 0.0264(68) 0.0432(73) 0.0086(54) 0.0107(51) -.0064(55)
O7 O2- 0.0199(58) 0.0185(59) 0.0195(53) 0.0040(49) -.0054(44) -.0063(44)
O8 O2- 0.0233(61) 0.0154(57) 0.0436(70) 0.0131(51) 0.0039(51) -.0145(50)
O9 O2- 0.0257(62) 0.0110(54) 0.0269(58) 0.0124(50) 0.0019(46) 0.0021(43)
O10 O2- 0.0179(56) 0.0147(55) 0.0254(56) 0.0077(47) -.0053(44) -.0140(44)
O11 O2- 0.0180(58) 0.0327(70) 0.0086(49) 0.0005(53) 0.0035(41) 0.0001(45)
O12 O2- 0.0145(53) 0.0280(63) 0.0131(48) 0.0109(49) 0.0032(40) -.0033(43)
O13 O2- 0.0287(68) 0.0375(77) 0.0112(52) 0.0082(61) 0.0039(46) 0.0038(49)
O14 O2- 0.0211(61) 0.0417(77) 0.0182(54) 0.0183(58) 0.0049(44) -.0085(50)
O15 O2- 0.0293(68) 0.0182(62) 0.0330(65) 0.0125(56) -.0066(52) -.0018(50)
O16 O2- 0.0116(51) 0.0057(49) 0.0143(48) -.0071(42) -.0024(39) 0.0053(38)
O17 O2- 0.0184(58) 0.0369(72) 0.0195(54) 0.0202(56) 0.0061(44) 0.0001(48)
O18 O2- 0.0201(55) 0.0081(50) 0.0159(48) 0.0069(45) -.0066(41) -.0062(39)
O19 O2- 0.0323(65) 0.0010(46) 0.0220(54) 0.0031(46) 0.0008(46) -.0004(39)
O20 O2- 0.0194(55) 0.0202(57) 0.0077(45) 0.0103(48) 0.0007(38) -.0050(39)
O21 O2- 0.0179(57) 0.0126(54) 0.0356(63) 0.0059(47) -.0085(47) -.0168(47)
O22 O2- 0.0189(59) 0.0225(63) 0.0373(67) 0.0148(53) -.0024(49) -.0003(50)
O23 O2- 0.0402(81) 0.060(10) 0.0107(55) 0.0138(75) 0.0014(52) -.0078(57)
O24 O2- 0.0343(69) 0.0025(49) 0.0286(60) 0.0059(49) -.0021(50) -.0014(43)
#End of data_72934-ICSD


