data_73996-ICSD
#?2014 by Fachinformationszentrum Karlsruhe, and the U.S. Secretary of 
#Commerce on behalf of the United States.  All rights reserved.
_database_code_ICSD                73996
_audit_creation_date               1995/01/10
_chemical_name_systematic
;
Hexapotassium Mue-oxo-hexathiodisilicate
;
_chemical_formula_structural       'K6 (O Si2 S6)'
_chemical_formula_sum              'K6 O1 S6 Si2'
_publ_section_title                'The crystal structure of K6Si2OS6'
loop_
_citation_id
_citation_journal_abbrev
_citation_year
_citation_journal_volume
_citation_journal_issue
_citation_page_first
_citation_page_last
_citation_journal_id_ASTM
primary 'Main Group Met. Chem.' 1993 16 1 13 18 MGMCE8
_publ_author_name                  'Klepp, K.O.'
_cell_length_a                     8.703(3)
_cell_length_b                     11.687(5)
_cell_length_c                     8.330(3)
_cell_angle_alpha                  90.
_cell_angle_beta                   112.11(2)
_cell_angle_gamma                  90.
_cell_volume                       784.96
_cell_formula_units_Z              2
_symmetry_space_group_name_H-M     'P 1 21/c 1'
_symmetry_Int_Tables_number        14
_refine_ls_R_factor_all            .032
loop_
_symmetry_equiv_pos_site_id
_symmetry_equiv_pos_as_xyz
  1	'x, -y+.5, z+.5'
  2	'-x, -y, -z'
  3	'-x, y+.5, -z+.5'
  4	'x, y, z'
loop_
_atom_type_symbol
_atom_type_oxidation_number
K1+	1
O2-	-2
S2-	-2
Si4+	4
loop_
_atom_site_label
_atom_site_type_symbol
_atom_site_symmetry_multiplicity
_atom_site_Wyckoff_symbol
_atom_site_fract_x
_atom_site_fract_y
_atom_site_fract_z
_atom_site_occupancy
_atom_site_attached_hydrogens
_atom_site_B_iso_or_equiv
K1 K1+ 4 e 0.0067(1) 0.82683(8) 0.5111(1) 1. 0 2.18(2) 
K2 K1+ 4 e 0.2267(2) 0.06168(9) 0.2192(1) 1. 0 2.78(2) 
K3 K1+ 4 e 0.4554(1) 0.7801(1) 0.3084(2) 1. 0 3.13(2) 
Si1 Si4+ 4 e 0.3172(1) 0.49027(9) 0.3516(1) 1. 0 1.17(2) 
O1 O2- 2 b 0.5 0.5 0.5 1. 0 5.3(2) 
S1 S2- 4 e 0.2401(2) 0.32189(9) 0.3706(1) 1. 0 2.52(2) 
S2 S2- 4 e 0.3361(1) 0.9774(1) 0.6108(1) 1. 0 2.35(2) 
S3 S2- 4 e 0.1754(1) 0.6165(1) 0.4126(1) 1. 0 2.40(2) 

#End of data_73996-ICSD


