data_31817-ICSD
#?2014 by Fachinformationszentrum Karlsruhe, and the U.S. Secretary of 
#Commerce on behalf of the United States.  All rights reserved.
_database_code_ICSD                31817
_audit_creation_date               1980/01/01
_audit_update_record               1985/06/03
_chemical_name_systematic
;
Potassium Pentaoxoduo-disulfate(IV)
;
_chemical_formula_structural       'K2 S2 O5'
_chemical_formula_sum              'K2 O5 S2'
_publ_section_title
;
The Crystal Lattice of Potassium Pyrosulphite,K2 S2 O5 and the 
Structure of the Pyrosulphite Group
;
loop_
_citation_id
_citation_journal_abbrev
_citation_year
_citation_journal_volume
_citation_page_first
_citation_page_last
_citation_journal_id_ASTM
primary 'Physical Review (1,1893-132,1963/141,1966-188,1969)'
 1932 40 923 935 PHRVAO
_publ_author_name                  'Zachariasen, W.H.'
_cell_length_a                     6.95
_cell_length_b                     6.19
_cell_length_c                     7.55
_cell_angle_alpha                  90.
_cell_angle_beta                   102.68
_cell_angle_gamma                  90.
_cell_volume                       316.88
_cell_formula_units_Z              2
_symmetry_space_group_name_H-M     'P 1 21/m 1'
_symmetry_Int_Tables_number        11
loop_
_symmetry_equiv_pos_site_id
_symmetry_equiv_pos_as_xyz
  1	'x, -y+.5, z'
  2	'-x, -y, -z'
  3	'-x, y+.5, -z'
  4	'x, y, z'
loop_
_atom_type_symbol
_atom_type_oxidation_number
K1+	1
O2-	-2
S4+	4
loop_
_atom_site_label
_atom_site_type_symbol
_atom_site_symmetry_multiplicity
_atom_site_Wyckoff_symbol
_atom_site_fract_x
_atom_site_fract_y
_atom_site_fract_z
_atom_site_occupancy
_atom_site_attached_hydrogens
K1 K1+ 2 e 0.22 0.25 0.95 1. 0 
K2 K1+ 2 e 0.65 0.25 0.67 1. 0 
S1 S4+ 2 e 0.7 0.25 0.22 1. 0 
S2 S4+ 2 e 0.01 0.25 0.32 1. 0 
O1 O2- 4 f 0.07 0.06 0.24 1. 0 
O2 O2- 4 f 0.63 0.06 0.31 1. 0 
O3 O2- 2 e 0.67 0.25 0.03 1. 0 

#End of data_31817-ICSD


