data_86678-ICSD
#?2014 by Fachinformationszentrum Karlsruhe, and the U.S. Secretary of 
#Commerce on behalf of the United States.  All rights reserved.
_database_code_ICSD                86678
_audit_creation_date               2000/07/15
_chemical_name_systematic
;
Dipotassium Silver Tecto-tetratellurodiargentocerate
;
_chemical_formula_structural       'K2 Ag (Ag2 Ce Te4)'
_chemical_formula_sum              'Ag3 Ce1 K2 Te4'
_publ_section_title
;
K2 Ag3 Ce Te4 : a semiconducting tunnel framework made from the 
covalent "link-up" of [Ag2 Ce Te4](3-) layers with Ag
;
loop_
_citation_id
_citation_journal_abbrev
_citation_year
_citation_journal_volume
_citation_page_first
_citation_page_last
_citation_journal_id_ASTM
primary 'Inorganic Chemistry' 1998 37 6562 6563 INOCAJ
_publ_author_name
;
Patschke, R.;Brazis, P.;Kannewurf, C.R.;Kanatzidis, M.
;
_cell_length_a                     17.19849(10)
_cell_length_b                     4.6393(1)
_cell_length_c                     15.4055(1)
_cell_angle_alpha                  90.
_cell_angle_beta                   90.
_cell_angle_gamma                  90.
_cell_volume                       1229.19
_cell_formula_units_Z              4
_symmetry_space_group_name_H-M     'P n m a'
_symmetry_Int_Tables_number        62
_refine_ls_R_factor_all            .041
loop_
_symmetry_equiv_pos_site_id
_symmetry_equiv_pos_as_xyz
  1	'x+.5, y, -z+.5'
  2	'x, -y+.5, z'
  3	'-x+.5, y+.5, z+.5'
  4	'-x, -y, -z'
  5	'-x+.5, -y, z+.5'
  6	'-x, y+.5, -z'
  7	'x+.5, -y+.5, -z+.5'
  8	'x, y, z'
loop_
_atom_type_symbol
_atom_type_oxidation_number
Ag1+	1
Ce3+	3
K1+	1
Te2-	-2
loop_
_atom_site_label
_atom_site_type_symbol
_atom_site_symmetry_multiplicity
_atom_site_Wyckoff_symbol
_atom_site_fract_x
_atom_site_fract_y
_atom_site_fract_z
_atom_site_occupancy
_atom_site_attached_hydrogens
Ce1 Ce3+ 4 c 0.3575(1) 0.25 0.7714(1) 1. 0 
Te1 Te2- 4 c 0.2262(1) 0.75 0.7774(1) 1. 0 
Te2 Te2- 4 c 0.3608(1) 0.25 0.5598(1) 1. 0 
Te3 Te2- 4 c 0.3769(1) 0.25 0.9847(1) 1. 0 
Te4 Te2- 4 c 0.4835(1) 0.75 0.7506(1) 1. 0 
Ag1 Ag1+ 4 c 0.2779(1) 0.75 0.5978(1) 1. 0 
Ag2 Ag1+ 4 c 0.2726(1) 0.75 0.9525(1) 1. 0 
Ag3 Ag1+ 4 c 0.4679(1) 0.75 0.9301(1) 1. 0 
K1 K1+ 4 c 0.1162(2) 0.25 0.6558(2) 1. 0 
K2 K1+ 4 c 0.4188(2) 0.75 0.3991(2) 1. 0 

loop_
_atom_site_aniso_label
_atom_site_aniso_type_symbol
_atom_site_aniso_U_11
_atom_site_aniso_U_22
_atom_site_aniso_U_33
_atom_site_aniso_U_12
_atom_site_aniso_U_13
_atom_site_aniso_U_23
Ce1 Ce3+ 0.018(1) 0.013(1) 0.018(1) 0 0.000(1) 0
Te1 Te2- 0.017(1) 0.015(1) 0.019(1) 0 -.001(1) 0
Te2 Te2- 0.031(1) 0.019(1) 0.016(1) 0 0.001(1) 0
Te3 Te2- 0.027(1) 0.017(1) 0.017(1) 0 -.002(1) 0
Te4 Te2- 0.017(1) 0.014(1) 0.021(1) 0 0.002(1) 0
Ag1 Ag1+ 0.064(1) 0.025(1) 0.060(1) 0 0.027(1) 0
Ag2 Ag1+ 0.040(1) 0.066(1) 0.028(1) 0 -.001(1) 0
Ag3 Ag1+ 0.044(1) 0.043(1) 0.028(1) 0 0.007(1) 0
K1 K1+ 0.031(2) 0.020(2) 0.022(2) 0 -.001(1) 0
K2 K1+ 0.052(2) 0.031(2) 0.026(2) 0 0.010(2) 0
#End of data_86678-ICSD


