data_261756-ICSD
#?2014 by Fachinformationszentrum Karlsruhe, and the U.S. Secretary of 
#Commerce on behalf of the United States.  All rights reserved.
_database_code_ICSD                261756
_audit_creation_date               2012/02/01
_audit_update_record               2013/08/01
_chemical_name_systematic          'Tripotassium Cadmium Pentaborate'
_chemical_formula_structural       'K3 Cd B5 O10'
_chemical_formula_sum              'B5 Cd1 K3 O10'
_publ_section_title
;
Synthesis, structure characterization and optical properties of a new 
tripotassium cadmium pentaborate, K3 Cd B5 O10
;
loop_
_citation_id
_citation_journal_abbrev
_citation_year
_citation_journal_volume
_citation_journal_issue
_citation_page_first
_citation_page_last
_citation_journal_id_ASTM
primary 'Journal of Solid State Chemistry' 2011 184 7 1644 1648 JSSCBI
_publ_author_name
;
Yu Hongwei;Pan Shilie;Wu Hongping;Han Jian;Dong Xiaoyu;Zhou 
Zhongxiang
;
_cell_length_a                     7.6707(7)
_cell_length_b                     19.1765(17)
_cell_length_c                     7.8784(6)
_cell_angle_alpha                  90
_cell_angle_beta                   115.6083(49)
_cell_angle_gamma                  90
_cell_volume                       1045.05
_cell_formula_units_Z              4
_symmetry_space_group_name_H-M     'P 1 21/n 1'
_symmetry_Int_Tables_number        14
_refine_ls_R_factor_all            .0344
loop_
_symmetry_equiv_pos_site_id
_symmetry_equiv_pos_as_xyz
  1	'-x+.5, y+.5, -z+.5'
  2	'-x, -y, -z'
  3	'x+.5, -y+.5, z+.5'
  4	'x, y, z'
loop_
_atom_type_symbol
_atom_type_oxidation_number
B3+	3
Cd2+	2
K1+	1
O2-	-2
loop_
_atom_site_label
_atom_site_type_symbol
_atom_site_symmetry_multiplicity
_atom_site_Wyckoff_symbol
_atom_site_fract_x
_atom_site_fract_y
_atom_site_fract_z
_atom_site_occupancy
_atom_site_attached_hydrogens
_atom_site_U_iso_or_equiv
Cd1 Cd2+ 4 e 0.5247(1) 0.0973(1) 0.1521(1) 1. 0 0.0020(1) 
K1 K1+ 4 e 0.0065(2) 0.0781(1) 0.1411(1) 1. 0 0.0025(1) 
K2 K1+ 4 e 0.5458(2) 0.0655(1) -0.2985(1) 1. 0 0.0026(1) 
K3 K1+ 4 e 0.2197(2) 0.2526(1) -0.0544(1) 1. 0 0.0027(1) 
B1 B3+ 4 e 0.6914(7) 0.2165(3) 0.0004(6) 1. 0 0.0018(1) 
B2 B3+ 4 e 0.1637(7) 0.0694(3) -0.1865(6) 1. 0 0.0018(1) 
B3 B3+ 4 e 0.1319(7) 0.1584(3) -0.4368(6) 1. 0 0.0019(1) 
B4 B3+ 4 e 0.3030(7) 0.1896(3) 0.3656(6) 1. 0 0.0021(1) 
B5 B3+ 4 e 0.8600(7) 0.0742(3) 0.5233(6) 1. 0 0.0018(1) 
O1 O2- 4 e 0.4369(4) 0.3718(2) -0.0375(4) 1. 0 0.0021(1) 
O2 O2- 4 e 0.6764(4) 0.1478(2) 0.0156(4) 1. 0 0.0020(1) 
O3 O2- 4 e 0.6863(4) 0.0475(2) 0.4232(4) 1. 0 0.0023(1) 
O4 O2- 4 e 0.2297(4) 0.1268(2) -0.2457(4) 1. 0 0.0019(1) 
O5 O2- 4 e 0.2454(4) 0.1415(2) -0.5416(4) 1. 0 0.0020(1) 
O6 O2- 4 e 0.2695(4) 0.0353(2) -0.0273(4) 1. 0 0.0026(1) 
O7 O2- 4 e 0.1158(4) 0.2343(2) -0.4218(4) 1. 0 0.0019(1) 
O8 O2- 4 e 0.0274(4) -0.0473(2) 0.2940(4) 1. 0 0.0025(1) 
O9 O2- 4 e 0.3705(5) 0.1717(2) 0.2427(4) 1. 0 0.0032(1) 
O10 O2- 4 e -0.2085(5) 0.2398(2) -0.1005(5) 1. 0 0.0032(1) 

#End of data_261756-ICSD


