data_15280-ICSD
#?2014 by Fachinformationszentrum Karlsruhe, and the U.S. Secretary of 
#Commerce on behalf of the United States.  All rights reserved.
_database_code_ICSD                15280
_audit_creation_date               1981/12/31
_audit_update_record               2007/08/01
_chemical_name_systematic          'Trizinc Oxide Bis(sulfate(VI))'
_chemical_formula_structural       'Zn3 O (S O4)2'
_chemical_formula_sum              'O9 S2 Zn3'
_publ_section_title
;
Die Kristallstruktur von einem Sulfat-reichen Oxidsulfat des Zinks
;
loop_
_citation_id
_citation_journal_abbrev
_citation_year
_citation_journal_volume
_citation_page_first
_citation_page_last
_citation_journal_id_ASTM
primary Naturwissenschaften 1981 68 39 39 NATWAY
_publ_author_name                  'Bald, L.;Gruehn, R.'
_cell_length_a                     7.937(2)
_cell_length_b                     6.690(2)
_cell_length_c                     7.851(2)
_cell_angle_alpha                  90.
_cell_angle_beta                   124.39(1)
_cell_angle_gamma                  90.
_cell_volume                       344.01
_cell_formula_units_Z              2
_symmetry_space_group_name_H-M     'P 1 21/m 1'
_symmetry_Int_Tables_number        11
_refine_ls_R_factor_all            .085
loop_
_symmetry_equiv_pos_site_id
_symmetry_equiv_pos_as_xyz
  1	'x, -y+.5, z'
  2	'-x, -y, -z'
  3	'-x, y+.5, -z'
  4	'x, y, z'
loop_
_atom_type_symbol
_atom_type_oxidation_number
O2-	-2
S6+	6
Zn2+	2
loop_
_atom_site_label
_atom_site_type_symbol
_atom_site_symmetry_multiplicity
_atom_site_Wyckoff_symbol
_atom_site_fract_x
_atom_site_fract_y
_atom_site_fract_z
_atom_site_occupancy
_atom_site_attached_hydrogens
Zn1 Zn2+ 2 a 0 0.5 0 1. 0 
Zn2 Zn2+ 2 e 0.3782 0.25 0.1245 1. 0 
Zn3 Zn2+ 2 e 0.1648 0.25 0.3911 1. 0 
S1 S6+ 2 e 0.5586 0.25 0.8437 1. 0 
S2 S6+ 2 e 0.8501 0.25 0.546 1. 0 
O1 O2- 2 e 0.1295 0.25 0.1227 1. 0 
O2 O2- 4 f 0.3113 0.927 0.0697 1. 0 
O3 O2- 4 f 0.1131 0.9297 0.3248 1. 0 
O4 O2- 2 e 0.5508 0.75 0.379 1. 0 
O5 O2- 2 e 0.5936 0.75 0.1062 1. 0 
O6 O2- 2 e 0.027 0.75 0.5337 1. 0 
O7 O2- 2 e 0.6343 0.25 0.3743 1. 0 

#End of data_15280-ICSD


