data_248118-ICSD
#?2014 by Fachinformationszentrum Karlsruhe, and the U.S. Secretary of 
#Commerce on behalf of the United States.  All rights reserved.
_database_code_ICSD                248118
_audit_creation_date               2010/08/01
_chemical_name_systematic          'Lithium Arsenic Diselenide - Alpha'
_chemical_formula_structural       'Li As Se2'
_chemical_formula_sum              'As1 Li1 Se2'
_publ_section_title
;
Soluble semiconductors A As Se2 (A = Li, Na) with a direct - band - 
gap and strong second harmonic generation: A combined experimental 
and theoretical study
;
loop_
_citation_id
_citation_journal_abbrev
_citation_year
_citation_journal_volume
_citation_journal_issue
_citation_page_first
_citation_page_last
_citation_journal_id_ASTM
primary 'Journal of the American Chemical Society' 2010 132 10 3484 3495 JACSAT
_publ_author_name
;
Bera, T.K.;Jang, J.-I.;Song Jungh Wan;Malliakas, C.D.;Freeman, 
A.J.;Ketterson, J.B.;Kanatzidis, M.G.
;
_cell_length_a                     5.55073
_cell_length_b                     5.58029
_cell_length_c                     5.57706
_cell_angle_alpha                  92.72
_cell_angle_beta                   90.8322
_cell_angle_gamma                  91.516
_cell_volume                       172.47
_cell_formula_units_Z              2
_symmetry_space_group_name_H-M     'P 1'
_symmetry_Int_Tables_number        1
loop_
_symmetry_equiv_pos_site_id
_symmetry_equiv_pos_as_xyz
  1	'x, y, z'
loop_
_atom_type_symbol
_atom_type_oxidation_number
As3+	3
Li1+	1
Se2-	-2
loop_
_atom_site_label
_atom_site_type_symbol
_atom_site_symmetry_multiplicity
_atom_site_Wyckoff_symbol
_atom_site_fract_x
_atom_site_fract_y
_atom_site_fract_z
_atom_site_occupancy
_atom_site_attached_hydrogens
_atom_site_U_iso_or_equiv
Li1 Li1+ 1 a 0.280513 0.718270 0.055088 1.0000 0 0.020043 
Li2 Li1+ 1 a 0.719487 0.281730 0.944912 1.0000 0 0.020043 
As1 As3+ 1 a 0.195317 0.250352 0.462412 1.0000 0 0.030635 
As2 As3+ 1 a 0.804683 0.749648 0.537588 1.0000 0 0.030635 
Se1 Se2- 1 a 0.240501 0.730066 0.505067 1.0000 0 0.019205 
Se2 Se2- 1 a 0.759499 0.269934 0.494933 1.0000 0 0.019205 
Se3 Se2- 1 a 0.255944 0.269574 0.032521 1.0000 0 0.045978 
Se4 Se2- 1 a 0.744056 0.730426 0.967479 1.0000 0 0.045978 

loop_
_atom_site_aniso_label
_atom_site_aniso_type_symbol
_atom_site_aniso_U_11
_atom_site_aniso_U_22
_atom_site_aniso_U_33
_atom_site_aniso_U_12
_atom_site_aniso_U_13
_atom_site_aniso_U_23
As1 As3+ 0.009939 0.053945 0.027779 0.000000 0.000000 0.000000
As2 As3+ 0.009939 0.053945 0.027779 0.000000 0.000000 0.000000
Se1 Se2- 0.012292 0.014735 0.030456 0.000000 0.000000 0.000000
Se2 Se2- 0.012292 0.014735 0.030456 0.000000 0.000000 0.000000
Se3 Se2- 0.018617 0.041669 0.077314 0.000000 0.000000 0.000000
Se4 Se2- 0.018617 0.041669 0.077314 0.000000 0.000000 0.000000
#End of data_248118-ICSD


