data_79616-ICSD
#?2014 by Fachinformationszentrum Karlsruhe, and the U.S. Secretary of 
#Commerce on behalf of the United States.  All rights reserved.
_database_code_ICSD                79616
_audit_creation_date               1996/10/14
_audit_update_record               2011/02/01
_chemical_name_systematic
;
Lithium Strontium Hexathiotriborate
;
_chemical_formula_structural       'Li Sr (B3 S6)'
_chemical_formula_sum              'B3 Li1 S6 Sr1'
_publ_section_title
;
Synthesis, crystal structures and properties of M3 B3 S6 (M= Na, K, 
Rb) and Li Sr B3 S6
;
loop_
_citation_id
_citation_journal_abbrev
_citation_year
_citation_journal_volume
_citation_page_first
_citation_page_last
_citation_journal_id_ASTM
primary 'Phosphorus, Sulfur, Silicon and Related Elements'
 1992 65 1 4 PSSLEC
_publ_author_name
;
Puettmann, C.;Diercks, H.;Krebs, B.
;
_cell_length_a                     14.933(6)
_cell_length_b                     8.703(4)
_cell_length_c                     7.866(3)
_cell_angle_alpha                  90.
_cell_angle_beta                   116.76(3)
_cell_angle_gamma                  90.
_cell_volume                       912.79
_cell_formula_units_Z              4
_symmetry_space_group_name_H-M     'C 1 c 1'
_symmetry_Int_Tables_number        9
_refine_ls_R_factor_all            .053
loop_
_symmetry_equiv_pos_site_id
_symmetry_equiv_pos_as_xyz
  1	'x, -y, z+.5'
  2	'x, y, z'
  3	'x+.5, -y+.5, z+.5'
  4	'x+.5, y+.5, z'
loop_
_atom_type_symbol
_atom_type_oxidation_number
B3+	3
Li1+	1
S2-	-2
Sr2+	2
loop_
_atom_site_label
_atom_site_type_symbol
_atom_site_symmetry_multiplicity
_atom_site_Wyckoff_symbol
_atom_site_fract_x
_atom_site_fract_y
_atom_site_fract_z
_atom_site_occupancy
_atom_site_attached_hydrogens
_atom_site_U_iso_or_equiv
Li1 Li1+ 4 a 0.5967(15) 0.1091(23) 0.5585(30) 1. 0 0.030(4) 
Sr1 Sr2+ 4 a 0.2594 0.12067(10) 0.5246 1. 0 0.0135(3) 
S1 S2- 4 a 0.12784(18) 0.10642(28) 0.10197(37) 1. 0 0.0141(9) 
S2 S2- 4 a 0.80252(19) 0.24762(27) 0.43095(40) 1. 0 0.0144(8) 
S3 S2- 4 a 0.04147(19) 0.21392(27) 0.56856(43) 1. 0 0.0201(10) 
S4 S2- 4 a 0.42134(18) 0.01765(25) 0.40736(39) 1. 0 0.0129(8) 
S5 S2- 4 a 0.68562(19) 0.04912(27) 0.9231(4) 1. 0 0.0153(9) 
S6 S2- 4 a 0.90428(21) 0.08878(28) 0.01137(55) 1. 0 0.0276(13) 
B1 B3+ 4 a 0.4256(8) 0.1785(11) 0.9732(15) 1. 0 0.008(2) 
B2 B3+ 4 a 0.0206(9) 0.0081(13) 0.5583(18) 1. 0 0.017(2) 
B3 B3+ 4 a 0.7997(8) 0.0405(12) 0.4606(16) 1. 0 0.011(2) 

#End of data_79616-ICSD


