data_168374-ICSD
#?2014 by Fachinformationszentrum Karlsruhe, and the U.S. Secretary of 
#Commerce on behalf of the United States.  All rights reserved.
_database_code_ICSD                168374
_audit_creation_date               2011/02/01
_chemical_name_systematic          'Cadmium Zinc Sulfide (0.75/0.25/1)'
_chemical_formula_structural       '(Cd0.75 Zn0.25) S'
_chemical_formula_sum              'Cd0.75 S1 Zn0.25'
_publ_section_title
;
The effects of concentration on the electronic and optical properties 
in Cdx Zn1-x S ternary alloys
;
loop_
_citation_id
_citation_journal_abbrev
_citation_year
_citation_journal_volume
_citation_journal_issue
_citation_page_first
_citation_page_last
_citation_journal_id_ASTM
primary 'Physica Status Solidi B - Basic Solid State Physics'
 2010 247 5 1214 1219 PSSBBD
_publ_author_name
;
Korozlu, N.;Colakoglu, K.;Deligoz, E.
;
_cell_length_a                     5.73
_cell_length_b                     5.73
_cell_length_c                     5.73
_cell_angle_alpha                  90.
_cell_angle_beta                   90.
_cell_angle_gamma                  90.
_cell_volume                       188.13
_cell_formula_units_Z              4
_symmetry_space_group_name_H-M     'P -4 3 m'
_symmetry_Int_Tables_number        215
loop_
_symmetry_equiv_pos_site_id
_symmetry_equiv_pos_as_xyz
  1	'-z, -y, x'
  2	'-y, -x, z'
  3	'-x, -z, y'
  4	'-z, -x, y'
  5	'-y, -z, x'
  6	'-x, -y, z'
  7	'-z, y, -x'
  8	'-y, x, -z'
  9	'-x, z, -y'
 10	'-z, x, -y'
 11	'-y, z, -x'
 12	'-x, y, -z'
 13	'z, -y, -x'
 14	'y, -x, -z'
 15	'x, -z, -y'
 16	'z, -x, -y'
 17	'y, -z, -x'
 18	'x, -y, -z'
 19	'z, y, x'
 20	'y, x, z'
 21	'x, z, y'
 22	'z, x, y'
 23	'y, z, x'
 24	'x, y, z'
loop_
_atom_type_symbol
_atom_type_oxidation_number
Cd2+	2
S2-	-2
Zn2+	2
loop_
_atom_site_label
_atom_site_type_symbol
_atom_site_symmetry_multiplicity
_atom_site_Wyckoff_symbol
_atom_site_fract_x
_atom_site_fract_y
_atom_site_fract_z
_atom_site_occupancy
_atom_site_attached_hydrogens
Zn1 Zn2+ 1 a 0 0 0 1. 0 
Cd1 Cd2+ 3 c 0.5 0.5 0 1. 0 
S1 S2- 4 e 0.237 0.237 0.237 1. 0 

#End of data_168374-ICSD


