data_60535-ICSD
#?2014 by Fachinformationszentrum Karlsruhe, and the U.S. Secretary of 
#Commerce on behalf of the United States.  All rights reserved.
_database_code_ICSD                60535
_audit_creation_date               1986/12/03
_audit_update_record               2007/08/01
_chemical_name_systematic          'Tripotassium Hexacyanoferrate(III)'
_chemical_formula_structural       'K3 (Fe (C N)6)'
_chemical_formula_sum              'C6 Fe1 K3 N6'
_publ_section_title
;
Crystal structure of the room- and low-temperature phases of 
monoclinic potassium ferricyanide
;
loop_
_citation_id
_citation_journal_abbrev
_citation_year
_citation_journal_volume
_citation_journal_issue
_citation_page_first
_citation_page_last
_citation_journal_id_ASTM
primary 'Journal of the Physical Society of Japan' 1985 54 6 2184 2189 JUPSAU
_publ_author_name
;
Morioka, Y.;Toriumi, K.;Ito, T.;Saito, A.;Nakagawa, I.
;
_cell_length_a                     7.058(1)
_cell_length_b                     10.426(1)
_cell_length_c                     8.401(1)
_cell_angle_alpha                  90.
_cell_angle_beta                   107.31(1)
_cell_angle_gamma                  90.
_cell_volume                       590.2
_cell_formula_units_Z              2
_symmetry_space_group_name_H-M     'P 1 21/c 1'
_symmetry_Int_Tables_number        14
_refine_ls_R_factor_all            .029
loop_
_symmetry_equiv_pos_site_id
_symmetry_equiv_pos_as_xyz
  1	'x, -y+.5, z+.5'
  2	'-x, -y, -z'
  3	'-x, y+.5, -z+.5'
  4	'x, y, z'
loop_
_atom_type_symbol
_atom_type_oxidation_number
C2+	2
Fe3+	3
K1+	1
N3-	-3
loop_
_atom_site_label
_atom_site_type_symbol
_atom_site_symmetry_multiplicity
_atom_site_Wyckoff_symbol
_atom_site_fract_x
_atom_site_fract_y
_atom_site_fract_z
_atom_site_occupancy
_atom_site_attached_hydrogens
Fe1 Fe3+ 2 a 0 0 0 1. 0 
K1 K1+ 2 c 0 0 0.5 1. 0 
K2 K1+ 4 e 0.5024(1) -.2701 0.1253(1) 1. 0 
N1 N3- 4 e 0.1994(3) 0.2665(1) 0.0481(2) 1. 0 
N2 N3- 4 e 0.2968(3) -.0822(2) 0.3362(2) 1. 0 
N3 N3- 4 e 0.2972(3) -.0881(2) -.1848(2) 1. 0 
C1 C2+ 4 e 0.1213(2) 0.1688(2) 0.0291(2) 1. 0 
C2 C2+ 4 e 0.1876(2) -.0528(2) 0.2103(2) 1. 0 
C3 C2+ 4 e 0.1878(2) -.0553(2) -.1150(2) 1. 0 

loop_
_atom_site_aniso_label
_atom_site_aniso_type_symbol
_atom_site_aniso_U_11
_atom_site_aniso_U_22
_atom_site_aniso_U_33
_atom_site_aniso_U_12
_atom_site_aniso_U_13
_atom_site_aniso_U_23
Fe1 Fe3+ 0.0203(1) 0.0229(1) 0.0161(1) 0.0010(1) 0.0064(1) 0.0004(1)
K1 K1+ 0.0370(3) 0.0356(3) 0.0267(2) -.0037(2) 0.0123(2) -.0010(2)
K2 K1+ 0.0324(2) 0.0631(3) 0.0243(2) -.0065(2) 0.0098(1) -.0008(2)
N1 N3- 0.0358(8) 0.0296(8) 0.0440(9) -.0024(6) 0.0119(7) 0.0010(7)
N2 N3- 0.0375(8) 0.0555(10) 0.0273(7) 0.0082(8) 0.0056(6) 0.0056(7)
N3 N3- 0.0399(8) 0.0584(11) 0.0346(8) 0.0120(8) 0.0178(7) 0.0017(8)
C1 C2+ 0.0232(7) 0.0312(8) 0.0241(7) 0.0019(6) 0.0073(6) 0.0006(6)
C2 C2+ 0.0255(7) 0.0315(9) 0.0217(7) 0.0028(6) 0.0090(5) 0.0010(6)
C3 C2+ 0.0263(7) 0.0336(9) 0.0205(6) 0.0041(6) 0.0068(6) 0.0017(6)
#End of data_60535-ICSD


