data_29547-ICSD
#?2014 by Fachinformationszentrum Karlsruhe, and the U.S. Secretary of 
#Commerce on behalf of the United States.  All rights reserved.
_database_code_ICSD                29547
_audit_creation_date               1988/05/17
_audit_update_record               1998/06/26
_chemical_name_systematic          'Calcium Borosilicate *'
_chemical_formula_structural       'Ca B2 Si2 O8'
_chemical_formula_sum              'B2 Ca1 O8 Si2'
_chemical_name_mineral             Danburite
_publ_section_title
;
Unusual thermal expansion of a B-O-bond in the structure of danburite 
Ca B2 Si2 O8
;
loop_
_citation_id
_citation_journal_abbrev
_citation_year
_citation_journal_volume
_citation_page_first
_citation_page_last
_citation_journal_id_ASTM
primary 'Zeitschrift fuer Kristallographie (1979-2010)' 1985 173 293 304 ZEKRDZ
_publ_author_name                  'Sugiyama, K.;Takeuchi, Y.'
_cell_length_a                     8.061(4)
_cell_length_b                     8.777(4)
_cell_length_c                     7.745(2)
_cell_angle_alpha                  90.
_cell_angle_beta                   90.
_cell_angle_gamma                  90.
_cell_volume                       547.97
_cell_formula_units_Z              4
_symmetry_space_group_name_H-M     'P n a m'
_symmetry_Int_Tables_number        62
_refine_ls_R_factor_all            .032
loop_
_symmetry_equiv_pos_site_id
_symmetry_equiv_pos_as_xyz
  1	'x+.5, -y+.5, z'
  2	'x, y, -z+.5'
  3	'-x+.5, y+.5, z+.5'
  4	'-x, -y, -z'
  5	'-x+.5, y+.5, -z'
  6	'-x, -y, z+.5'
  7	'x+.5, -y+.5, -z+.5'
  8	'x, y, z'
loop_
_atom_type_symbol
_atom_type_oxidation_number
B3+	3
Ca2+	2
O2-	-2
Si4+	4
loop_
_atom_site_label
_atom_site_type_symbol
_atom_site_symmetry_multiplicity
_atom_site_Wyckoff_symbol
_atom_site_fract_x
_atom_site_fract_y
_atom_site_fract_z
_atom_site_occupancy
_atom_site_attached_hydrogens
Ca1 Ca2+ 4 c 0.38733(8) 0.07669(7) 0.25 1. 0 
B1 B3+ 8 d 0.2599(3) 0.4190(2) 0.4206(3) 1. 0 
Si1 Si4+ 8 d 0.05432(6) 0.19252(6) -.05619(7) 1. 0 
O1 O2- 8 d 0.1935(2) 0.0683(2) -.0045(2) 1. 0 
O2 O2- 8 d 0.1270(2) 0.3646(1) -.0413(2) 1. 0 
O3 O2- 8 d 0.4016(2) 0.3143(2) 0.0776(2) 1. 0 
O4 O2- 4 c 0.5117(3) 0.6658(3) 0.25 1. 0 
O5 O2- 4 c 0.1857(3) 0.4270(3) 0.25 1. 0 

#End of data_29547-ICSD


