data_42395-ICSD
#?2014 by Fachinformationszentrum Karlsruhe, and the U.S. Secretary of 
#Commerce on behalf of the United States.  All rights reserved.
_database_code_ICSD                42395
_audit_creation_date               2000/07/15
_audit_update_record               2002/04/01
_chemical_name_systematic          'Silver Dithiochromate(III)'
_chemical_formula_structural       'Ag (Cr S2)'
_chemical_formula_sum              'Ag1 Cr1 S2'
_publ_section_title
;
Crystal structures and magnetic structures of some metal(I) 
chromium(III) sulfides and selenides
;
loop_
_citation_id
_citation_journal_abbrev
_citation_year
_citation_journal_volume
_citation_page_first
_citation_page_last
_citation_journal_id_ASTM
primary 'Journal of Solid State Chemistry' 1973 6 574 582 JSSCBI
_publ_author_name
;
Engelsman, F.M.R.;Wiegers, G.A.;Jellinek, F.;van Laar, B.
;
_cell_length_a                     3.4884(9)
_cell_length_b                     3.4884(9)
_cell_length_c                     20.4140(40)
_cell_angle_alpha                  90.
_cell_angle_beta                   90.
_cell_angle_gamma                  120.
_cell_volume                       215.14
_cell_formula_units_Z              3
_symmetry_space_group_name_H-M     'R 3 m H'
_symmetry_Int_Tables_number        160
loop_
_symmetry_equiv_pos_site_id
_symmetry_equiv_pos_as_xyz
  1	'-x+y, y, z'
  2	'x, x-y, z'
  3	'-y, -x, z'
  4	'-x+y, -x, z'
  5	'-y, x-y, z'
  6	'x, y, z'
  7	'-x+y+.6666, y+.3333, z+.3333'
  8	'-x+y+.3333, y+.6666, z+.6666'
  9	'x+.6666, x-y+.3333, z+.3333'
 10	'x+.3333, x-y+.6666, z+.6666'
 11	'-y+.6666, -x+.3333, z+.3333'
 12	'-y+.3333, -x+.6666, z+.6666'
 13	'-x+y+.6666, -x+.3333, z+.3333'
 14	'-x+y+.3333, -x+.6666, z+.6666'
 15	'-y+.6666, x-y+.3333, z+.3333'
 16	'-y+.3333, x-y+.6666, z+.6666'
 17	'x+.6666, y+.3333, z+.3333'
 18	'x+.3333, y+.6666, z+.6666'
loop_
_atom_type_symbol
_atom_type_oxidation_number
Ag1+	1
Cr3+	3
S2-	-2
loop_
_atom_site_label
_atom_site_type_symbol
_atom_site_symmetry_multiplicity
_atom_site_Wyckoff_symbol
_atom_site_fract_x
_atom_site_fract_y
_atom_site_fract_z
_atom_site_occupancy
_atom_site_attached_hydrogens
Cr1 Cr3+ 3 a 0 0 0 1. 0 
Ag1 Ag1+ 3 a 0 0 0.1527(5) 1. 0 
S1 S2- 3 a 0 0 0.2703(8) 1. 0 
S2 S2- 3 a 0 0 0.7324(7) 1. 0 

#End of data_42395-ICSD


