data_87716-ICSD
#?2014 by Fachinformationszentrum Karlsruhe, and the U.S. Secretary of 
#Commerce on behalf of the United States.  All rights reserved.
_database_code_ICSD                87716
_audit_creation_date               2000/12/16
_chemical_name_systematic          'Tricalcium Cyclo-trisilicate - Ht'
_chemical_formula_structural       'Ca3 (Si O3)3'
_chemical_formula_sum              'Ca3 O9 Si3'
_chemical_name_mineral             Pseudowollastonite
_publ_section_title
;
On the crystal structure of pseudowollastonite (Ca Si O3)
;
loop_
_citation_id
_citation_journal_abbrev
_citation_year
_citation_journal_volume
_citation_page_first
_citation_page_last
_citation_journal_id_ASTM
primary 'American Mineralogist' 1999 84 929 932 AMMIAY
_publ_author_name                  'Yang, H.-X.;Prewitt, C.T.'
_cell_length_a                     6.8394(5)
_cell_length_b                     11.8704(9)
_cell_length_c                     19.63129(90)
_cell_angle_alpha                  90.
_cell_angle_beta                   90.667(6)
_cell_angle_gamma                  90.
_cell_volume                       1593.69
_cell_formula_units_Z              8
_symmetry_space_group_name_H-M     'C 1 2/c 1'
_symmetry_Int_Tables_number        15
_refine_ls_R_factor_all            .018
loop_
_symmetry_equiv_pos_site_id
_symmetry_equiv_pos_as_xyz
  1	'x, -y, z+.5'
  2	'-x, -y, -z'
  3	'-x, y, -z+.5'
  4	'x, y, z'
  5	'x+.5, -y+.5, z+.5'
  6	'-x+.5, -y+.5, -z'
  7	'-x+.5, y+.5, -z+.5'
  8	'x+.5, y+.5, z'
loop_
_atom_type_symbol
_atom_type_oxidation_number
Ca2+	2
O2-	-2
Si4+	4
loop_
_atom_site_label
_atom_site_type_symbol
_atom_site_symmetry_multiplicity
_atom_site_Wyckoff_symbol
_atom_site_fract_x
_atom_site_fract_y
_atom_site_fract_z
_atom_site_occupancy
_atom_site_attached_hydrogens
Ca1 Ca2+ 4 a 0 0 0 1. 0 
Ca2 Ca2+ 4 e 0 0.34259(3) 0.25 1. 0 
Ca3 Ca2+ 4 e 0 0.32910(3) 0.75 1. 0 
Ca4 Ca2+ 4 e 0 0.00462(3) 0.75 1. 0 
Ca5 Ca2+ 8 f 0.01127(3) 0.33571(2) 0.00047(1) 1. 0 
Si1 Si4+ 8 f 0.29298(4) 0.03898(2) 0.37507(1) 1. 0 
Si2 Si4+ 8 f 0.09283(4) 0.17035(3) 0.12790(1) 1. 0 
Si3 Si4+ 8 f 0.29798(4) 0.29716(3) 0.37784(2) 1. 0 
O1 O2- 8 f 0.34734(12) 0.34508(7) 0.45190(4) 1. 0 
O2 O2- 8 f 0.15484(12) 0.48810(7) 0.19713(4) 1. 0 
O3 O2- 8 f 0.19052(12) 0.17222(7) 0.20205(4) 1. 0 
O4 O2- 8 f 0.05651(11) 0.28096(7) 0.37492(4) 1. 0 
O5 O2- 8 f 0.20071(12) 0.17028(7) 0.05692(4) 1. 0 
O6 O2- 8 f 0.05217(12) 0.05793(7) 0.37380(4) 1. 0 
O7 O2- 8 f 0.35429(13) 0.35084(7) 0.30682(4) 1. 0 
O8 O2- 8 f 0.15804(12) 0.48546(7) 0.05278(4) 1. 0 
O9 O2- 8 f 0.38933(12) 0.16744(6) 0.37627(4) 1. 0 

#End of data_87716-ICSD


