data_95438-ICSD
#?2014 by Fachinformationszentrum Karlsruhe, and the U.S. Secretary of 
#Commerce on behalf of the United States.  All rights reserved.
_database_code_ICSD                95438
_audit_creation_date               2003/10/01
_chemical_name_systematic
;
Sodium Vanadium(IV) Vanadium Oxide - Alpha', Lt
;
_chemical_formula_structural       'Na (V2 O5)'
_chemical_formula_sum              'Na1 O5 V2'
_publ_section_title
;
Low-temperature structure of the quarter-filled ladder compound 
alpha'-(Na V2 O5)
;
loop_
_citation_id
_citation_journal_abbrev
_citation_year
_citation_journal_volume
_citation_journal_issue
_citation_page_first
_citation_page_last
_citation_journal_id_ASTM
primary 'Journal of the Physical Society of Japan' 2002 71 2 385 388 JUPSAU
_publ_author_name
;
Sawa, H.;Ninomiya, E.;Ohama, T.;Nakao, H.;Ohwada, K.;Murakami, 
Y.;Fujii, Y.;Noda, Y.;Isobe, M.;Ueda, Y.
;
_cell_length_a                     11.879
_cell_length_b                     7.179
_cell_length_c                     19.0304
_cell_angle_alpha                  90
_cell_angle_beta                   90
_cell_angle_gamma                  107.59
_cell_volume                       1547.02
_cell_formula_units_Z              16
_symmetry_space_group_name_H-M     'A 1 1 2'
_symmetry_Int_Tables_number        5
_refine_ls_R_factor_all            .037
loop_
_symmetry_equiv_pos_site_id
_symmetry_equiv_pos_as_xyz
  1	'-x, -y, z'
  2	'x, y, z'
  3	'-x, -y+.5, z+.5'
  4	'x, y+.5, z+.5'
loop_
_atom_type_symbol
_atom_type_oxidation_number
Na1+	1
O2-	-2
V4+	4
V5+	5
loop_
_atom_site_label
_atom_site_type_symbol
_atom_site_symmetry_multiplicity
_atom_site_Wyckoff_symbol
_atom_site_fract_x
_atom_site_fract_y
_atom_site_fract_z
_atom_site_occupancy
_atom_site_attached_hydrogens
_atom_site_B_iso_or_equiv
V1 V5+ 4 c 0.1502(1) 0.3253(3) 0.0993(2) 1. 0 0.17(1) 
V2 V5+ 4 c 0.3498(1) 0.1750(4) 0.1507(2) 1. 0 0.20(1) 
V3 V4+ 4 c 0.1542(1) 0.8271(4) 0.0956(2) 1. 0 0.20(1) 
V4 V4+ 4 c 0.3457(1) 0.6732(4) 0.1540(2) 1. 0 0.19(1) 
V5 V4+ 4 c 0.1543(1) 0.3273(4) 0.3463(2) 1. 0 0.20(1) 
V6 V5+ 4 c 0.3505(1) 0.1751(4) 0.4004(2) 1. 0 0.21(1) 
V7 V5+ 4 c 0.1502(1) 0.8252(4) 0.3488(2) 1. 0 0.18(1) 
V8 V4+ 4 c 0.3449(1) 0.6726(4) 0.4043(2) 1. 0 0.21(1) 
Na1 Na1+ 2 a 0 0 0.2149(4) 1. 0 0.39(5) 
Na2 Na1+ 2 b 0.5 0 0.0368 1. 0 0.46(6) 
Na3 Na1+ 2 a 0 0.5 0.2144(2) 1. 0 0.43(5) 
Na4 Na1+ 2 b 0.5 0.5 0.0361(4) 1. 0 0.55(6) 
Na5 Na1+ 2 a 0 0 0.4650(3) 1. 0 0.42(5) 
Na6 Na1+ 2 b 0.5 0 0.2860(3) 1. 0 0.47(6) 
Na7 Na1+ 2 a 0 0.5 0.4647(3) 1. 0 0.38(5) 
Na8 Na1+ 2 b 0.5 0.5 0.2864(3) 1. 0 0.50(6) 
O1 O2- 4 c 0.0014(4) 0.2484(8) 0.1314(3) 1. 0 0.38(3) 
O2 O2- 4 c 0.4993(3) 0.2514(9) 0.1228(2) 1. 0 0.26(3) 
O3 O2- 4 c 0.9980(4) 0.2463(9) 0.3814(3) 1. 0 0.34(3) 
O4 O2- 4 c 0.4979(3) 0.2477(9) 0.3727(2) 1. 0 0.21(2) 
O5 O2- 4 c 0.1780(3) 0.091(2) 0.1272(3) 1. 0 0.24(4) 
O6 O2- 4 c 0.3227(5) 0.410(2) 0.1227(4) 1. 0 0.47(6) 
O7 O2- 4 c 0.1764(4) 0.588(2) 0.1285(3) 1. 0 0.24(4) 
O8 O2- 4 c 0.3253(4) 0.914(2) 0.1208(3) 1. 0 0.42(5) 
O9 O2- 4 c 0.1783(3) 0.089(1) 0.3772(3) 1. 0 0.30(4) 
O10 O2- 4 c 0.3256(4) 0.411(2) 0.3711(3) 1. 0 0.47(5) 
O11 O2- 4 c 0.1762(4) 0.591(2) 0.3782(3) 1. 0 0.27(5) 
O12 O2- 4 c 0.3228(6) 0.915(2) 0.3728(4) 1. 0 0.51(6) 
O13 O2- 4 c 0.1345(4) 0.317(1) 0.0152(3) 1. 0 0.51(5) 
O14 O2- 4 c 0.3627(3) 0.182(2) 0.2357(3) 1. 0 0.28(3) 
O15 O2- 4 c 0.1335(4) 0.814(1) 0.0109(3) 1. 0 0.44(5) 
O16 O2- 4 c 0.3633(3) 0.688(1) 0.2382(3) 1. 0 0.31(4) 
O17 O2- 4 c 0.1337(4) 0.315(1) 0.2617(3) 1. 0 0.48(5) 
O18 O2- 4 c 0.3628(3) 0.185(1) 0.4855(3) 1. 0 0.33(4) 
O19 O2- 4 c 0.1342(4) 0.813(2) 0.2646(3) 1. 0 0.50(5) 
O20 O2- 4 c 0.3631(4) 0.683(2) 0.4884(3) 1. 0 0.34(4) 

#End of data_95438-ICSD


