data_182608-ICSD
#?2014 by Fachinformationszentrum Karlsruhe, and the U.S. Secretary of 
#Commerce on behalf of the United States.  All rights reserved.
_database_code_ICSD                182608
_audit_creation_date               2012/02/01
_chemical_name_systematic          'Barium Zinc Tetrafluoride - Hp'
_chemical_formula_structural       'Ba Zn F4'
_chemical_formula_sum              'Ba1 F4 Zn1'
_publ_section_title
;
Structural stability of Ba M F4 (M = Mg, Zn and Mn) at high pressures
;
loop_
_citation_id
_citation_journal_abbrev
_citation_year
_citation_journal_volume
_citation_page_first
_citation_page_last
_citation_journal_id_ASTM
primary 'Journal of Physics: Condensed Matter' 2011 23 215401-1 215401-13 JCOMEL
_publ_author_name
;
Posse, J.M.;Friese, K.;Grzechnik, A.
;
_cell_length_a                     3.998(3)
_cell_length_b                     13.454(6)
_cell_length_c                     5.804(3)
_cell_angle_alpha                  90.
_cell_angle_beta                   90.
_cell_angle_gamma                  90.717(18)
_cell_volume                       312.17
_cell_formula_units_Z              4
_symmetry_space_group_name_H-M     'P 1 1 n'
_symmetry_Int_Tables_number        7
_refine_ls_R_factor_all            .163
loop_
_symmetry_equiv_pos_site_id
_symmetry_equiv_pos_as_xyz
  1	'x+.5, y+.5, -z'
  2	'x, y, z'
loop_
_atom_type_symbol
_atom_type_oxidation_number
Ba2+	2
F1-	-1
Zn2+	2
loop_
_atom_site_label
_atom_site_type_symbol
_atom_site_symmetry_multiplicity
_atom_site_Wyckoff_symbol
_atom_site_fract_x
_atom_site_fract_y
_atom_site_fract_z
_atom_site_occupancy
_atom_site_attached_hydrogens
_atom_site_U_iso_or_equiv
Ba1 Ba2+ 2 a -0.5082 -0.3690 -0.1301(6) 1. 0 0.0328(10) 
Ba2 Ba2+ 2 a -0.025(2) 0.3682(9) -0.3764(8) 1. 0 0.0329(10) 
Zn1 Zn2+ 2 a -0.007(3) -0.3626(9) -0.6490(13) 1. 0 0.029(2) 
Zn2 Zn2+ 2 a 0.491(3) 0.3626(9) 0.1290(13) 1. 0 0.029(2) 
F1 F1- 2 a -0.056(7) 0.552(3) -0.364(5) 1. 0 0.002(2) 
F2 F1- 2 a 0.463(11) -0.552(3) -0.163(4) 1. 0 0.002(2) 
F3 F1- 2 a -0.041(9) 0.556(3) -0.911(4) 1. 0 0.002(2) 
F4 F1- 2 a 0.436(8) -0.556(3) 0.379(6) 1. 0 0.002(2) 
F5 F1- 2 a -0.047(11) 0.731(3) -0.403(4) 1. 0 0.002(2) 
F6 F1- 2 a 0.452(9) -0.731(3) -0.146(5) 1. 0 0.002(2) 
F7 F1- 2 a -0.052(8) 0.324(3) 0.124(5) 1. 0 0.002(2) 
F8 F1- 2 a -0.470(8) -0.324(3) -0.583(4) 1. 0 0.002(2) 

#End of data_182608-ICSD


