data_200633-ICSD
#?2014 by Fachinformationszentrum Karlsruhe, and the U.S. Secretary of 
#Commerce on behalf of the United States.  All rights reserved.
_database_code_ICSD                200633
_audit_creation_date               1980/01/01
_audit_update_record               2006/04/01
_chemical_name_systematic          'Trisodium Neodymium Bis(vanadate)'
_chemical_formula_structural       'Na3 Nd (V O4)2'
_chemical_formula_sum              'Na3 Nd1 O8 V2'
_publ_section_title
;
Les vanadates Na3 Ln (V O4)2 (Ln = Pr, Nd, Sm, Eu, Gd, Tb)
;
loop_
_citation_id
_citation_journal_abbrev
_citation_year
_citation_journal_volume
_citation_page_first
_citation_page_last
_citation_journal_id_ASTM
primary 'Nouveau Journal de Chimie' 1979 3 523 527 NJCHD4
2 'Golden Book of Phase Transitions, Wroclaw' 2002 1 1 123 GBOPT5
_publ_author_name
;
Parent, C.;Fava, J.;Salmon, R.;Vlasse, M.;le Flem, G.;Hagenmuller, 
P.;Antic-Fidancev, E.;Lemaitre-Blaise, M.;Caro, P.
;
_cell_length_a                     29.14(2)
_cell_length_b                     5.574(5)
_cell_length_c                     14.22(1)
_cell_angle_alpha                  90.
_cell_angle_beta                   91.4(1)
_cell_angle_gamma                  90.
_cell_volume                       2309.01
_cell_formula_units_Z              12
_symmetry_space_group_name_H-M     'C 1 c 1'
_symmetry_Int_Tables_number        9
_refine_ls_R_factor_all            .06
loop_
_symmetry_equiv_pos_site_id
_symmetry_equiv_pos_as_xyz
  1	'x, -y, z+.5'
  2	'x, y, z'
  3	'x+.5, -y+.5, z+.5'
  4	'x+.5, y+.5, z'
loop_
_atom_type_symbol
_atom_type_oxidation_number
Na1+	1
Nd3+	3
O2-	-2
V5+	5
loop_
_atom_site_label
_atom_site_type_symbol
_atom_site_symmetry_multiplicity
_atom_site_Wyckoff_symbol
_atom_site_fract_x
_atom_site_fract_y
_atom_site_fract_z
_atom_site_occupancy
_atom_site_attached_hydrogens
_atom_site_B_iso_or_equiv
Nd1 Nd3+ 4 a 0 0.0176 0.25 1. 0 0.91 
Nd2 Nd3+ 4 a 0.1778(2) 0.6010(2) 0.5165(3) 1. 0 0.92 
Nd3 Nd3+ 4 a 0.35363(5) 0.0492(3) 0.7819(1) 1. 0 0.73 
V1 V5+ 4 a 0.0659(3) 0.530(2) 0.3722(7) 1. 0 0.6 
V2 V5+ 4 a 0.1201(4) -.045(2) 0.1136(8) 1. 0 0.7 
V3 V5+ 4 a 0.2356(4) 0.048(2) 0.4189(7) 1. 0 0.6 
V4 V5+ 4 a 0.2884(3) 0.532(2) 0.6616(7) 1. 0 0.7 
V5 V5+ 4 a 0.4067(3) 0.489(2) 0.3690(7) 1. 0 0.6 
V6 V5+ 4 a 0.4484(4) -.009(2) 0.6613(7) 1. 0 0.7 
Na1 Na1+ 4 a 0.0215(6) 0.006(3) 0.003(2) 1. 0 0.8 
Na2 Na1+ 4 a 0.1789(8) 0.486(4) 0.269(2) 1. 0 1.4 
Na3 Na1+ 4 a 0.3291(9) -.007(5) 0.030(2) 1. 0 2.5 
Na4 Na1+ 4 a 0.0599(5) 0.484(3) 0.122(2) 1. 0 1.6 
Na5 Na1+ 4 a 0.124(1) 0.052(4) 0.347(2) 1. 0 1.9 
Na6 Na1+ 4 a 0.2318(9) -.052(4) 0.189(2) 1. 0 1.3 
Na7 Na1+ 4 a 0.2998(9) 0.481(4) 0.409(2) 1. 0 1.8 
Na8 Na1+ 4 a 0.3982(7) 0.516(4) 0.089(2) 1. 0 1.2 
Na9 Na1+ 4 a 0.4574(8) 0.027(4) 0.444(2) 1. 0 2.5 
O1 O2- 4 a 0.124(2) 0.496(6) 0.388(3) 1. 0 0.8 
O2 O2- 4 a 0.052(1) 0.833(5) 0.355(2) 1. 0 0.9 
O3 O2- 4 a 0.048(2) 0.360(6) 0.282(3) 1. 0 1.5 
O4 O2- 4 a 0.037(2) 0.423(6) 0.462(3) 1. 0 1.6 
O5 O2- 4 a 0.064(1) -.039(5) 0.150(2) 1. 0 1. 
O6 O2- 4 a 0.122(2) 0.073(7) 0.009(3) 1. 0 2.8 
O7 O2- 4 a 0.154(1) 0.122(6) 0.189(2) 1. 0 1.5 
O8 O2- 4 a 0.136(2) -.343(8) 0.114(4) 1. 0 1.7 
O9 O2- 4 a 0.220(2) 0.349(6) 0.414(3) 1. 0 0.8 
O10 O2- 4 a 0.230(1) -.071(5) 0.531(2) 1. 0 0.6 
O11 O2- 4 a 0.200(1) -.136(5) 0.357(2) 1. 0 1.1 
O12 O2- 4 a 0.291(1) 0.015(5) 0.394(2) 1. 0 1.3 
O13 O2- 4 a 0.298(1) 0.174(5) 0.193(2) 1. 0 1.3 
O14 O2- 4 a 0.302(2) 0.642(6) 0.260(3) 1. 0 1.4 
O15 O2- 4 a 0.318(1) 0.546(5) 0.064(2) 1. 0 1.2 
O16 O2- 4 a 0.231(2) 0.529(6) 0.139(3) 1. 0 1.1 
O17 O2- 4 a 0.381(1) 0.235(5) 0.395(2) 1. 0 1.5 
O18 O2- 4 a 0.401(1) 0.485(7) 0.253(3) 1. 0 2.7 
O19 O2- 4 a 0.464(1) 0.514(6) 0.399(2) 1. 0 0.9 
O20 O2- 4 a 0.375(2) 0.715(6) 0.416(3) 1. 0 1. 
O21 O2- 4 a 0.471(1) 0.281(6) 0.118(2) 1. 0 1.6 
O22 O2- 4 a 0.474(1) -.225(7) 0.109(3) 1. 0 1.5 
O23 O2- 4 a 0.392(2) 0.018(6) 0.129(3) 1. 0 1.6 
O24 O2- 4 a 0.448(1) -.050(5) 0.281(2) 1. 0 1.2 

#End of data_200633-ICSD


