data_98362-ICSD
#?2014 by Fachinformationszentrum Karlsruhe, and the U.S. Secretary of 
#Commerce on behalf of the United States.  All rights reserved.
_database_code_ICSD                98362
_audit_creation_date               2005/04/01
_chemical_name_systematic
;
Trilithium Divanadium(III) Tris(phosphate(V)) - A
;
_chemical_formula_structural       'Li3 V2 (P O4)3'
_chemical_formula_sum              'Li3 O12 P3 V2'
_publ_section_title
;
A comparative structural and electrochemical study of monoclinic Li3 
Fe2 (P O4)3 and Li3 V2 (P O4)3
;
loop_
_citation_id
_citation_journal_abbrev
_citation_year
_citation_journal_volume
_citation_page_first
_citation_page_last
_citation_journal_id_ASTM
primary 'Journal of Power Sources' 2003 119 278 284 JPSODZ
_publ_author_name
;
Patoux, S.;Wurm, C.;Morcrette, M.;Rousse, G.;Masquelier, C.
;
_cell_length_a                     8.605(1)
_cell_length_b                     12.038(1)
_cell_length_c                     8.591(1)
_cell_angle_alpha                  90
_cell_angle_beta                   90
_cell_angle_gamma                  90.60(1)
_cell_volume                       889.87
_cell_formula_units_Z              4
_symmetry_space_group_name_H-M     'P 1 1 21/n'
_symmetry_Int_Tables_number        14
_refine_ls_R_factor_all            .0708
loop_
_symmetry_equiv_pos_site_id
_symmetry_equiv_pos_as_xyz
  1	'x+.5, y+.5, -z+.5'
  2	'-x, -y, -z'
  3	'-x+.5, -y+.5, z+.5'
  4	'x, y, z'
loop_
_atom_type_symbol
_atom_type_oxidation_number
Li1+	1
O2-	-2
P5+	5
V3+	3
loop_
_atom_site_label
_atom_site_type_symbol
_atom_site_symmetry_multiplicity
_atom_site_Wyckoff_symbol
_atom_site_fract_x
_atom_site_fract_y
_atom_site_fract_z
_atom_site_occupancy
_atom_site_attached_hydrogens
_atom_site_B_iso_or_equiv
V1 V3+ 4 e 0.2461 0.1072 0.4606 1. 0 0.61 
V2 V3+ 4 e 0.7534 0.3943 0.4703 1. 0 0.59 
P1 P5+ 4 e 0.1068(9) 0.1489(8) 0.1014(11) 1. 0 1.4(2) 
P2 P5+ 4 e 0.6004(9) 0.3493(7) 0.1164(11) 1. 0 1.5(2) 
P3 P5+ 4 e 0.0349(9) 0.4924(7) 0.2474(12) 1. 0 1.1(2) 
O1 O2- 4 e 0.4257(9) 0.3305(6) 0.0915(9) 1. 0 1.5(2) 
O2 O2- 4 e 0.9262(9) 0.1471(6) 0.1108(10) 1. 0 1.3(2) 
O3 O2- 4 e 0.3547(8) 0.2607(6) 0.4799(8) 1. 0 1.2(2) 
O4 O2- 4 e 0.8041(9) 0.2185(7) 0.4952(9) 1. 0 1.5(2) 
O5 O2- 4 e 0.1727(10) 0.0394(7) 0.0518(8) 1. 0 1.6(2) 
O6 O2- 4 e 0.6435(9) 0.4747(6) 0.0883(9) 1. 0 1.2(2) 
O7 O2- 4 e 0.4500(8) 0.0667(5) 0.3688(9) 1. 0 0.9(2) 
O8 O2- 4 e 0.9277(9) 0.4033(6) 0.3196(9) 1. 0 1.0(2) 
O9 O2- 4 e 0.1697(9) 0.4291(6) 0.1697(9) 1. 0 1.4(2) 
O10 O2- 4 e 0.6098(9) 0.0750(6) 0.1346(10) 1. 0 1.6(2) 
O11 O2- 4 e 0.1660(9) 0.1862(7) 0.2670(9) 1. 0 1.5(2) 
O12 O2- 4 e 0.6399(9) 0.3176(6) 0.2868(9) 1. 0 1.1(2) 
Li1 Li1+ 4 e 0.292(3) 0.328(2) 0.298(2) 1. 0 0.5(4) 
Li2 Li1+ 4 e 0.571(3) 0.195(2) 0.421(3) 1. 0 2.9(6) 
Li3 Li1+ 4 e 0.911(4) 0.233(3) 0.305(4) 1. 0 4.7(8) 

#End of data_98362-ICSD


