data_414039-ICSD
#?2014 by Fachinformationszentrum Karlsruhe, and the U.S. Secretary of 
#Commerce on behalf of the United States.  All rights reserved.
_database_code_ICSD                414039
_audit_creation_date               2005/10/01
_chemical_name_systematic
;
Tetrapotassium Diplatinum(III) Penta(sulfate)
;
_chemical_formula_structural       'K4 (Pt2 (S O4)5)'
_chemical_formula_sum              'K4 O20 Pt2 S5'
_publ_section_title
;
Monomers, chains and layers of [Pt2 (S O4)4] units in the crystal 
structures of the platinum(III) sulfates (N H4)2 [Pt2 (S O4)4 (H2 
O)2], K4 [Pt2 (S O4)5] and Cs [Pt2 (S O4)3 (H S O4)]
;
loop_
_citation_id
_citation_journal_abbrev
_citation_year
_citation_journal_volume
_citation_page_first
_citation_page_last
_citation_journal_id_ASTM
primary 'European Journal of Inorganic Chemistry  (online)'
 2005 2005 529 535 EJICFO
_publ_author_name                  'Pley, M.;Wickleder, M.S.'
_cell_length_a                     9.7559(10)
_cell_length_b                     13.3177(14)
_cell_length_c                     14.9097(14)
_cell_angle_alpha                  101.156(8)
_cell_angle_beta                   96.278(8)
_cell_angle_gamma                  102.849(8)
_cell_volume                       1829.3
_cell_formula_units_Z              4
_symmetry_space_group_name_H-M     'P -1'
_symmetry_Int_Tables_number        2
_refine_ls_R_factor_all            .0459
loop_
_symmetry_equiv_pos_site_id
_symmetry_equiv_pos_as_xyz
  1	'-x, -y, -z'
  2	'x, y, z'
loop_
_atom_type_symbol
_atom_type_oxidation_number
K1+	1
O2-	-2
Pt3+	3
S6+	6
loop_
_atom_site_label
_atom_site_type_symbol
_atom_site_symmetry_multiplicity
_atom_site_Wyckoff_symbol
_atom_site_fract_x
_atom_site_fract_y
_atom_site_fract_z
_atom_site_occupancy
_atom_site_attached_hydrogens
_atom_site_U_iso_or_equiv
Pt1 Pt3+ 2 i 0.98916(3) 0.586278(19) 0.484774(18) 1 0 0.01910(7) 
Pt2 Pt3+ 2 i 0.48542(3) 0.413990(19) 0.022874(17) 1 0 0.01856(7) 
Pt3 Pt3+ 2 i 1.38104(3) 0.94060(2) 0.495763(18) 1 0 0.01934(7) 
Pt4 Pt3+ 2 i 0.10577(3) 0.070269(19) 0.043407(17) 1 0 0.01820(7) 
K1 K1+ 2 i 0.4213(2) 0.89063(15) 0.05831(12) 1 0 0.0345(4) 
K2 K1+ 2 i 0.6316(3) 0.57957(19) 0.34303(16) 1 0 0.0476(5) 
K3 K1+ 2 i 0.6695(2) 0.20266(13) 0.31482(13) 1 0 0.0326(4) 
K4 K1+ 2 i 1.1349(2) 0.68802(17) 0.27446(14) 1 0 0.0433(5) 
K5 K1+ 2 i 0.9556(3) 0.37602(17) 0.06117(15) 1 0 0.0494(5) 
K6 K1+ 2 i 0.7612(2) 0.84809(19) 0.27175(17) 1 0 0.0493(5) 
K7 K1+ 2 i 0.3116(3) 0.34869(17) 0.30806(15) 1 0 0.0478(5) 
K8 K1+ 2 i 0.8827(2) 0.95419(15) 0.68736(12) 1 0 0.0376(4) 
S1 S6+ 2 i 0.9301(2) 0.14351(14) 0.89688(12) 1 0 0.0235(4) 
O1 O2- 2 i 0.0361(6) 0.1799(4) 0.9874(4) 1 0 0.0261(11) 
O2 O2- 2 i 0.0038(7) 0.1302(5) 0.8187(4) 1 0 0.0370(14) 
O3 O2- 2 i 0.8285(6) 0.0392(4) 0.8986(3) 1 0 0.0244(11) 
O4 O2- 2 i 0.8453(6) 0.2193(4) 0.8970(4) 1 0 0.0311(12) 
S2 S6+ 2 i 0.2322(2) 0.42082(14) 0.88501(12) 1 0 0.0252(4) 
O5 O2- 2 i 0.2822(6) 0.3679(5) 0.9596(4) 1 0 0.0350(13) 
O6 O2- 2 i 0.3118(6) 0.5372(4) 0.9113(4) 1 0 0.0327(13) 
O7 O2- 2 i 0.0845(7) 0.4184(5) 0.8883(5) 1 0 0.0415(15) 
O8 O2- 2 i 0.2568(8) 0.3691(5) 0.7974(4) 1 0 0.0446(16) 
S3 S6+ 2 i 0.70487(19) 0.44549(13) 0.50900(12) 1 0 0.0222(3) 
O9 O2- 2 i 0.8106(5) 0.3877(4) 0.5446(4) 1 0 0.0258(11) 
O10 O2- 2 i 0.6056(6) 0.4524(4) 0.5722(4) 1 0 0.0325(12) 
O11 O2- 2 i 0.6426(6) 0.3963(4) 0.4149(4) 1 0 0.0317(13) 
O12 O2- 2 i 0.7888(5) 0.5597(4) 0.5139(3) 1 0 0.0236(10) 
S4 S6+ 2 i 0.8376(2) 0.06938(14) 0.13189(12) 1 0 0.0235(4) 
O13 O2- 2 i 0.7896(6) 0.9615(4) 0.0641(3) 1 0 0.0255(11) 
O14 O2- 2 i 0.0006(5) 0.0993(4) 0.1508(3) 1 0 0.0229(10) 
O15 O2- 2 i 0.7926(7) 0.0545(5) 0.2178(4) 1 0 0.0364(14) 
O16 O2- 2 i 0.7888(6) 0.1467(5) 0.0922(4) 1 0 0.0324(13) 
S5 S6+ 2 i 0.6222(2) 0.82767(14) 0.50713(13) 1 0 0.0247(4) 
O17 O2- 2 i 0.4711(6) 0.8256(4) 0.5239(4) 1 0 0.0261(11) 
O18 O2- 2 i 0.7074(6) 0.9437(4) 0.5320(4) 1 0 0.0258(11) 
O19 O2- 2 i 0.6236(6) 0.7818(5) 0.4125(4) 1 0 0.0358(14) 
O20 O2- 2 i 0.6810(6) 0.7774(4) 0.5733(4) 1 0 0.0336(13) 
S6 S6+ 2 i 0.9478(2) 0.41373(15) 0.30700(12) 1 0 0.0265(4) 
O21 O2- 2 i 0.9397(6) 0.3469(4) 0.3792(3) 1 0 0.0262(11) 
O22 O2- 2 i 0.9144(6) 0.5187(4) 0.3507(3) 1 0 0.0268(11) 
O23 O2- 2 i 0.8340(7) 0.3592(5) 0.2321(4) 1 0 0.0385(15) 
O24 O2- 2 i 1.0866(7) 0.4349(5) 0.2815(4) 1 0 0.0383(14) 
S7 S6+ 2 i 1.4642(2) 0.94833(15) 0.30607(12) 1 0 0.0265(4) 
O25 O2- 2 i 0.6088(6) 1.0001(4) 0.3682(3) 1 0 0.0245(11) 
O26 O2- 2 i 1.3717(6) 0.8824(4) 0.3598(3) 1 0 0.0272(12) 
O27 O2- 2 i 1.4916(7) 0.8769(5) 0.2292(4) 1 0 0.0370(14) 
O28 O2- 2 i 1.3975(7) 1.0285(5) 0.2834(4) 1 0 0.0364(14) 
S8 S6+ 2 i 1.03970(19) 0.83455(13) 0.47148(12) 1 0 0.0226(3) 
O29 O2- 2 i 1.0058(10) 0.8884(8) 0.5527(6) 1 0 0.077(3) 
O30 O2- 2 i 1.1899(6) 0.8255(5) 0.4880(5) 1 0 0.0434(17) 
O31 O2- 2 i 0.9526(6) 0.7219(4) 0.4430(4) 1 0 0.0345(14) 
O32 O2- 2 i 1.0182(9) 0.8790(6) 0.3921(5) 1 0 0.060(2) 
S9 S6+ 2 i 0.3593(2) 0.57237(15) 0.14507(12) 1 0 0.0263(4) 
O33 O2- 2 i 0.4498(7) 0.6461(4) 0.0951(4) 1 0 0.0331(13) 
O34 O2- 2 i 0.4182(7) 0.4742(4) 0.1405(4) 1 0 0.0344(13) 
O35 O2- 2 i 0.3870(8) 0.6250(5) 0.2410(4) 1 0 0.0437(16) 
O36 O2- 2 i 0.2138(7) 0.5443(5) 0.1034(5) 1 0 0.0434(15) 
S10 S6+ 2 i 0.42848(19) 0.21044(14) 0.12394(12) 1 0 0.0218(3) 
O37 O2- 2 i 0.2711(5) 0.1969(4) 0.1266(4) 1 0 0.0272(12) 
O38 O2- 2 i 0.4640(6) 0.2573(4) 0.0427(4) 1 0 0.0274(12) 
O39 O2- 2 i 0.4629(6) 0.1095(4) 0.1070(4) 1 0 0.0321(12) 
O40 O2- 2 i 0.5004(6) 0.2824(5) 0.2103(4) 1 0 0.0362(14) 

loop_
_atom_site_aniso_label
_atom_site_aniso_type_symbol
_atom_site_aniso_U_11
_atom_site_aniso_U_22
_atom_site_aniso_U_33
_atom_site_aniso_U_12
_atom_site_aniso_U_13
_atom_site_aniso_U_23
Pt1 Pt3+ 0.01797(13) 0.01616(12) 0.02300(12) 0.00305(9) 0.00357(10) 
0.00520(9)
Pt2 Pt3+ 0.01804(13) 0.01669(12) 0.02072(12) 0.00331(9) 0.00353(9) 
0.00462(8)
Pt3 Pt3+ 0.01634(13) 0.01888(12) 0.02143(12) 0.00149(9) 0.00201(9) 
0.00517(9)
Pt4 Pt3+ 0.01635(13) 0.01703(12) 0.01921(12) 0.00199(9) 0.00271(9) 
0.00188(8)
K1 K1+ 0.0348(10) 0.0404(10) 0.0313(8) 0.0133(8) 0.0082(7) 0.0089(7)
K2 K1+ 0.0479(13) 0.0600(13) 0.0510(11) 0.0238(10) 0.0210(10) 0.0316(10)
K3 K1+ 0.0340(9) 0.0249(8) 0.0388(9) 0.0059(7) 0.0075(7) 0.0076(6)
K4 K1+ 0.0436(12) 0.0430(11) 0.0404(10) 0.0065(9) 0.0105(9) 0.0051(8)
K5 K1+ 0.0646(15) 0.0366(10) 0.0432(11) 0.0105(10) 0.0150(10) -0.0009(8)
K6 K1+ 0.0401(12) 0.0560(13) 0.0668(14) 0.0216(10) 0.0238(10) 0.0299(11)
K7 K1+ 0.0637(15) 0.0429(11) 0.0439(11) 0.0265(10) 0.0146(10) 0.0080(8)
K8 K1+ 0.0388(11) 0.0370(10) 0.0321(8) 0.0072(8) -0.0016(8) 0.0026(7)
S1 S6+ 0.0249(9) 0.0215(8) 0.0232(8) 0.0037(7) 0.0034(7) 0.0055(6)
O1 O2- 0.023(3) 0.022(2) 0.029(3) 0.006(2) -0.002(2) 0.001(2)
O2 O2- 0.037(3) 0.042(3) 0.031(3) 0.004(3) 0.011(3) 0.009(2)
O3 O2- 0.023(3) 0.026(3) 0.024(2) 0.004(2) 0.004(2) 0.0074(19)
O4 O2- 0.033(3) 0.024(3) 0.038(3) 0.009(2) 0.001(2) 0.009(2)
S2 S6+ 0.0197(9) 0.0254(9) 0.0281(8) 0.0027(7) -0.0014(7) 0.0063(7)
O5 O2- 0.025(3) 0.034(3) 0.042(3) 0.000(2) -0.002(2) 0.012(2)
O6 O2- 0.022(3) 0.031(3) 0.044(3) 0.005(2) -0.002(2) 0.013(2)
O7 O2- 0.025(3) 0.041(3) 0.058(4) 0.006(3) 0.006(3) 0.012(3)
O8 O2- 0.057(4) 0.040(4) 0.034(3) 0.011(3) 0.008(3) 0.002(3)
S3 S6+ 0.0173(8) 0.0198(8) 0.0292(8) 0.0033(6) 0.0057(7) 0.0054(6)
O9 O2- 0.016(2) 0.029(3) 0.035(3) 0.005(2) 0.010(2) 0.012(2)
O10 O2- 0.029(3) 0.033(3) 0.039(3) 0.008(2) 0.014(2) 0.011(2)
O11 O2- 0.030(3) 0.030(3) 0.031(3) 0.009(2) -0.003(2) 0.000(2)
O12 O2- 0.020(3) 0.022(2) 0.029(2) 0.0060(19) 0.011(2) 0.0026(19)
S4 S6+ 0.0208(9) 0.0264(9) 0.0223(8) 0.0050(7) 0.0065(7) 0.0021(6)
O13 O2- 0.023(3) 0.024(3) 0.025(2) 0.001(2) 0.011(2) -0.0003(19)
O14 O2- 0.020(3) 0.028(3) 0.019(2) 0.004(2) 0.0062(19) 0.0016(18)
O15 O2- 0.037(3) 0.041(3) 0.028(3) 0.002(3) 0.017(2) 0.002(2)
O16 O2- 0.029(3) 0.033(3) 0.035(3) 0.016(2) 0.001(2) -0.002(2)
S5 S6+ 0.0216(9) 0.0228(8) 0.0301(9) 0.0058(7) 0.0042(7) 0.0065(7)
O17 O2- 0.021(3) 0.029(3) 0.031(3) 0.011(2) 0.004(2) 0.008(2)
O18 O2- 0.023(3) 0.021(2) 0.034(3) 0.006(2) 0.000(2) 0.008(2)
O19 O2- 0.032(3) 0.033(3) 0.037(3) 0.007(2) 0.007(3) -0.003(2)
O20 O2- 0.031(3) 0.027(3) 0.045(3) 0.011(2) 0.003(3) 0.012(2)
S6 S6+ 0.0283(10) 0.0259(9) 0.0237(8) 0.0055(7) 0.0050(7) 0.0030(6)
O21 O2- 0.030(3) 0.023(3) 0.022(2) 0.006(2) 0.000(2) 0.0012(19)
O22 O2- 0.032(3) 0.029(3) 0.019(2) 0.009(2) 0.002(2) 0.0026(19)
O23 O2- 0.042(4) 0.038(3) 0.026(3) 0.003(3) -0.008(3) 0.000(2)
O24 O2- 0.034(3) 0.044(4) 0.042(3) 0.010(3) 0.020(3) 0.012(3)
S7 S6+ 0.0258(9) 0.0306(9) 0.0213(8) 0.0051(7) 0.0029(7) 0.0040(7)
O25 O2- 0.024(3) 0.030(3) 0.018(2) 0.003(2) 0.006(2) 0.0045(19)
O26 O2- 0.028(3) 0.026(3) 0.021(2) 0.001(2) 0.001(2) 0.0001(19)
O27 O2- 0.042(4) 0.042(3) 0.022(3) 0.007(3) 0.006(2) -0.001(2)
O28 O2- 0.035(3) 0.046(3) 0.032(3) 0.009(3) 0.004(3) 0.020(3)
S8 S6+ 0.0202(8) 0.0186(8) 0.0285(8) 0.0039(6) 0.0032(7) 0.0054(6)
O29 O2- 0.069(6) 0.080(6) 0.071(5) 0.020(5) 0.030(5) -0.018(5)
O30 O2- 0.016(3) 0.023(3) 0.089(5) -0.004(2) 0.002(3) 0.022(3)
O31 O2- 0.027(3) 0.015(2) 0.061(4) 0.002(2) -0.005(3) 0.020(2)
O32 O2- 0.058(5) 0.050(4) 0.063(4) -0.013(4) -0.020(4) 0.041(4)
S9 S6+ 0.0285(10) 0.0271(9) 0.0257(8) 0.0093(7) 0.0113(7) 0.0049(7)
O33 O2- 0.042(3) 0.030(3) 0.033(3) 0.010(2) 0.020(3) 0.010(2)
O34 O2- 0.050(4) 0.031(3) 0.029(3) 0.015(3) 0.018(3) 0.011(2)
O35 O2- 0.059(4) 0.040(3) 0.033(3) 0.012(3) 0.012(3) 0.006(3)
O36 O2- 0.033(3) 0.042(4) 0.057(4) 0.009(3) 0.008(3) 0.016(3)
S10 S6+ 0.0173(8) 0.0235(8) 0.0241(8) 0.0032(6) 0.0023(6) 0.0072(6)
O37 O2- 0.012(2) 0.022(2) 0.038(3) -0.0028(19) 0.000(2) -0.006(2)
O38 O2- 0.042(3) 0.013(2) 0.031(3) 0.007(2) 0.013(2) 0.0107(19)
O39 O2- 0.032(3) 0.029(3) 0.046(3) 0.016(2) 0.012(3) 0.021(2)
O40 O2- 0.025(3) 0.049(4) 0.025(3) -0.001(3) -0.005(2) 0.001(2)
#End of data_414039-ICSD


