data_97229-ICSD
#?2014 by Fachinformationszentrum Karlsruhe, and the U.S. Secretary of 
#Commerce on behalf of the United States.  All rights reserved.
_database_code_ICSD                97229
_audit_creation_date               2004/10/01
_chemical_name_systematic
;
Dipotassium Trichloronitrosyldinitrato(III)ruthenate(II) - Facial 
Isomer
;
_chemical_formula_structural       'K2 (Ru (N O) (N O2)2 Cl3)'
_chemical_formula_sum              'Cl3 K2 N3 O5 Ru1'
_publ_section_title
;
Synthesis, formation mechanism and crystal structure of the 
nitrosoruthenium(II) nitrochloride complex fac-(K2 (Ru N O (N O2)2 
Cl3))
;
loop_
_citation_id
_citation_journal_abbrev
_citation_year
_citation_journal_volume
_citation_journal_issue
_citation_page_first
_citation_page_last
_citation_journal_id_ASTM
primary 'Zhurnal Strukturnoi Khimii (Issue-No. from 1981)'
 2002 43 2 327 335 ZSTKAI
2 'Journal of Structural Chemistry (USSR) (= Zhurnal Strukturnoi Khimii)'
 2002 43 2 304 311 JSTCAM
_publ_author_name
;
Emel'yanov, V.A.;Baidina, I.A.;Gromilov, S.A.;Virovets, A.V.;Belyaev, 
A.V.
;
_cell_length_a                     7.050(1)
_cell_length_b                     7.524(2)
_cell_length_c                     10.125(2)
_cell_angle_alpha                  90.44(3)
_cell_angle_beta                   103.17(3)
_cell_angle_gamma                  90.51(3)
_cell_volume                       522.9
_cell_formula_units_Z              2
_symmetry_space_group_name_H-M     'P -1'
_symmetry_Int_Tables_number        2
_refine_ls_R_factor_all            .048
loop_
_symmetry_equiv_pos_site_id
_symmetry_equiv_pos_as_xyz
  1	'-x, -y, -z'
  2	'x, y, z'
loop_
_atom_type_symbol
_atom_type_oxidation_number
Cl1-	-1
K1+	1
N3+	3
O2-	-2
Ru2+	2
loop_
_atom_site_label
_atom_site_type_symbol
_atom_site_symmetry_multiplicity
_atom_site_Wyckoff_symbol
_atom_site_fract_x
_atom_site_fract_y
_atom_site_fract_z
_atom_site_occupancy
_atom_site_attached_hydrogens
_atom_site_U_iso_or_equiv
Ru1 Ru2+ 2 i 0.1281(1) 0.7534(1) 0.7399(1) 1. 0 0.020(1) 
K1 K1+ 2 i 0.3836(2) 0.7462(2) 0.3635(2) 1. 0 0.032(1) 
K2 K1+ 2 i 0.2401(4) 0.2519(3) 0.9839(2) 1. 0 0.055(1) 
Cl1 Cl1- 2 i -0.0729(3) 0.5214(3) 0.7963(2) 1. 0 0.040(1) 
Cl2 Cl1- 2 i -0.0874(3) 0.9726(3) 0.7904(2) 1. 0 0.043(1) 
Cl3 Cl1- 2 i 0.2910(3) 0.7676(3) 0.9647(2) 1. 0 0.048(1) 
N1 N3+ 2 i 0.3139(10) 0.9535(8) 0.6988(6) 1. 0 0.032(1) 
O1 O2- 2 i 0.3761(13) 0.0694(10) 0.7801(7) 1. 0 0.068(2) 
O2 O2- 2 i 0.3445(10) 0.9587(8) 0.5844(6) 1. 0 0.049(2) 
N2 N3+ 2 i 0.3285(10) 0.5657(8) 0.7064(6) 1. 0 0.030(1) 
O3 O2- 2 i 0.3547(10) 0.5499(8) 0.5904(6) 1. 0 0.049(2) 
O4 O2- 2 i 0.4070(13) 0.4671(10) 0.7935(8) 1. 0 0.070(2) 
N3 N3+ 2 i 0.0111(9) 0.7447(8) 0.5691(6) 1. 0 0.027(1) 
O5 O2- 2 i -0.0574(11) 0.7395(10) 0.4567(6) 1. 0 0.059(2) 

#End of data_97229-ICSD


