data_187939-ICSD
#?2014 by Fachinformationszentrum Karlsruhe, and the U.S. Secretary of 
#Commerce on behalf of the United States.  All rights reserved.
_database_code_ICSD                187939
_audit_creation_date               2013/08/01
_chemical_name_systematic          'Lithium Chromium Disilicate'
_chemical_formula_structural       'Li Cr (Si2 O6)'
_chemical_formula_sum              'Cr1 Li1 O6 Si2'
_publ_section_title
;
High-pressure X-ray study of Li Cr Si2 O6 clinopyroxene and the 
general compressibility trends for Li - clinopyroxenes
;
loop_
_citation_id
_citation_journal_abbrev
_citation_year
_citation_journal_volume
_citation_journal_issue
_citation_page_first
_citation_page_last
_citation_journal_id_ASTM
primary 'Physics and Chemistry of Minerals' 2013 40 5 387 399 PCMIDU
_publ_author_name
;
Periotto, Benedetta;Angel, Ross J.;Nestola, Fabrizio;Balic-Zunic, 
Tonci;Fontana, Cinzia;Pasqual, Daria;Alvaro, Matteo;Redhammer, 
Guenther J.
;
_cell_length_a                     9.5461(6)
_cell_length_b                     8.5881(5)
_cell_length_c                     5.2573(3)
_cell_angle_alpha                  90.
_cell_angle_beta                   109.967(5)
_cell_angle_gamma                  90.
_cell_volume                       405.1
_cell_formula_units_Z              4
_symmetry_space_group_name_H-M     'P 1 21/c 1'
_symmetry_Int_Tables_number        14
_refine_ls_R_factor_all            .0636
loop_
_symmetry_equiv_pos_site_id
_symmetry_equiv_pos_as_xyz
  1	'x, -y+.5, z+.5'
  2	'-x, -y, -z'
  3	'-x, y+.5, -z+.5'
  4	'x, y, z'
loop_
_atom_type_symbol
_atom_type_oxidation_number
Cr3+	3
Li1+	1
O2-	-2
Si4+	4
loop_
_atom_site_label
_atom_site_type_symbol
_atom_site_symmetry_multiplicity
_atom_site_Wyckoff_symbol
_atom_site_fract_x
_atom_site_fract_y
_atom_site_fract_z
_atom_site_occupancy
_atom_site_attached_hydrogens
_atom_site_U_iso_or_equiv
Li1 Li1+ 4 e 0.251(2) 0.0155(17) 0.244(3) 1 0 0.010(3) 
Cr1 Cr3+ 4 e 0.2501(2) 0.65807(14) 0.2385(3) 1 0 0.0060(4) 
Si1 Si4+ 4 e 0.0491(3) 0.3412(3) 0.2692(4) 1 0 0.0054(6) 
Si2 Si4+ 4 e 0.5490(3) 0.8413(3) 0.2523(4) 1 0 0.0053(6) 
O1 O2- 4 e 0.8666(7) 0.3331(7) 0.1571(10) 1 0 0.0076(14) 
O2 O2- 4 e 0.1160(8) 0.5123(7) 0.3133(11) 1 0 0.0127(16) 
O3 O2- 4 e 0.1086(8) 0.2635(6) 0.5736(10) 1 0 0.0080(14) 
O4 O2- 4 e 0.3673(7) 0.8329(7) 0.1359(10) 1 0 0.0069(14) 
O5 O2- 4 e 0.6226(7) 0.0073(7) 0.3453(11) 1 0 0.0090(15) 
O6 O2- 4 e 0.6050(8) 0.7309(7) 0.5186(11) 1 0 0.0120(16) 

#End of data_187939-ICSD


