data_61155-ICSD
#?2014 by Fachinformationszentrum Karlsruhe, and the U.S. Secretary of 
#Commerce on behalf of the United States.  All rights reserved.
_database_code_ICSD                61155
_audit_creation_date               1986/12/03
_audit_update_record               2012/02/01
_chemical_name_systematic
;
Zirconium Potassium Hydrogen Bis(phosphate(V))
;
_chemical_formula_structural       'Zr K H (P O4)2'
_chemical_formula_sum              'H1 K1 O8 P2 Zr1'
_publ_section_title
;
Time of flight neutron powder Rietveld refinement of the Zr K H (P 
O4)2 structure
;
loop_
_citation_id
_citation_journal_abbrev
_citation_year
_citation_journal_volume
_citation_page_first
_citation_page_last
_citation_journal_id_ASTM
primary 'Inorganic Chemistry' 1985 24 3714 3715 INOCAJ
_publ_author_name                  'Rudolf, P.R.;Clearfield, A.'
_cell_length_a                     9.2208(7)
_cell_length_b                     5.3280(4)
_cell_length_c                     16.6336(17)
_cell_angle_alpha                  90.
_cell_angle_beta                   114.351(11)
_cell_angle_gamma                  90.
_cell_volume                       744.48
_cell_formula_units_Z              4
_symmetry_space_group_name_H-M     'P 1 2/c 1'
_symmetry_Int_Tables_number        13
_refine_ls_R_factor_all            .0702
loop_
_symmetry_equiv_pos_site_id
_symmetry_equiv_pos_as_xyz
  1	'x, -y, z+.5'
  2	'-x, -y, -z'
  3	'-x, y, -z+.5'
  4	'x, y, z'
loop_
_atom_type_symbol
_atom_type_oxidation_number
H1+	1
K1+	1
O2-	-2
P5+	5
Zr4+	4
loop_
_atom_site_label
_atom_site_type_symbol
_atom_site_symmetry_multiplicity
_atom_site_Wyckoff_symbol
_atom_site_fract_x
_atom_site_fract_y
_atom_site_fract_z
_atom_site_occupancy
_atom_site_attached_hydrogens
Zr1 Zr4+ 4 g 0.7504(15) 0.7729(15) 0.9945(9) 1. 0 
K1 K1+ 2 f 0.5 0.0559(57) 0.25 1. 0 
K2 K1+ 2 e 0 -.0740(63) 0.25 1. 0 
P1 P5+ 4 g 0.1715(17) 0.7063(19) 0.1176(10) 1. 0 
P2 P5+ 4 g 0.6632(15) 0.2742(33) 0.1115(9) 1. 0 
O1 O2- 4 g -.0015(16) 0.7709(30) 0.0959(11) 1. 0 
O2 O2- 4 g 0.2158(15) 0.4938(26) 0.0728(9) 1. 0 
O3 O2- 4 g 0.2438(17) 0.9480(31) 0.0952(12) 1. 0 
O4 O2- 4 g 0.6754(13) 0.5260(27) 0.0667(8) 1. 0 
O5 O2- 4 g 0.5171(15) 0.7634(29) 0.9139(8) 1. 0 
O6 O2- 4 g 0.7293(15) 0.0559(33) 0.0807(10) 1. 0 
O7 O2- 4 g 0.2602(14) 0.6969(27) 0.2221(8) 1. 0 
O8 O2- 4 g 0.2730(14) 0.2907(29) 0.2952(8) 1. 0 
H1 H1+ 4 g 0.2485(35) 0.5108(50) 0.2285(19) 1. 0 

#End of data_61155-ICSD


