data_95120-ICSD
#?2014 by Fachinformationszentrum Karlsruhe, and the U.S. Secretary of 
#Commerce on behalf of the United States.  All rights reserved.
_database_code_ICSD                95120
_audit_creation_date               2003/10/01
_audit_update_record               2012/08/01
_chemical_name_systematic
;
Tetrasilver Mercury Heptathiodigermanate
;
_chemical_formula_structural       'Ag4 Hg (Ge2 S7)'
_chemical_formula_sum              'Ag4 Ge2 Hg1 S7'
_publ_section_title
;
Crystal structures of the Ag4 Hg Ge2 S7 and Ag4 Cd Ge2 S7 compounds
;
loop_
_citation_id
_citation_journal_abbrev
_citation_year
_citation_journal_volume
_citation_page_first
_citation_page_last
_citation_journal_id_ASTM
primary 'Journal of Alloys and Compounds' 2002 340 157 166 JALCEU
_publ_author_name
;
Gulay, L.D.;Olekseyuk, I.D.;Parasyuk, O.V.
;
_cell_length_a                     17.4546(8)
_cell_length_b                     6.8093(2)
_cell_length_c                     10.5342(3)
_cell_angle_alpha                  90
_cell_angle_beta                   93.398(3)
_cell_angle_gamma                  90
_cell_volume                       1249.83
_cell_formula_units_Z              4
_symmetry_space_group_name_H-M     'C 1 c 1'
_symmetry_Int_Tables_number        9
_refine_ls_R_factor_all            .0761
loop_
_symmetry_equiv_pos_site_id
_symmetry_equiv_pos_as_xyz
  1	'x, -y, z+.5'
  2	'x, y, z'
  3	'x+.5, -y+.5, z+.5'
  4	'x+.5, y+.5, z'
loop_
_atom_type_symbol
_atom_type_oxidation_number
Ag1+	1
Ge4+	4
Hg2+	2
S2-	-2
loop_
_atom_site_label
_atom_site_type_symbol
_atom_site_symmetry_multiplicity
_atom_site_Wyckoff_symbol
_atom_site_fract_x
_atom_site_fract_y
_atom_site_fract_z
_atom_site_occupancy
_atom_site_attached_hydrogens
_atom_site_B_iso_or_equiv
Ag1 Ag1+ 4 a 0.0007(6) 0.1815(8) 0.0024(5) 1. 0 1.8(2) 
Ag2 Ag1+ 4 a 0.0658(4) 0.3029(8) 0.3918(4) 1. 0 2.0(2) 
Ag3 Ag1+ 4 a 0.2098(4) 0.3257(6) 0.1239(4) 1. 0 1.5(2) 
Ag4 Ag1+ 4 a 0.2660(4) 0.1265(5) 0.4457(6) 1. 0 1.5(2) 
Hg1 Hg2+ 4 a 0.3410(3) 0.7079(4) 0.2827(3) 1. 0 1.28(9) 
Ge1 Ge4+ 4 a 0.4312(6) 0.159(1) 0.1683(7) 1. 0 0.4(2) 
Ge2 Ge4+ 4 a 0.6416(7) 0.317(1) 0.2316(8) 1. 0 2.0(3) 
S1 S2- 4 a 0.031(1) 0.166(2) 0.584(1) 1. 0 2.5(6) 
S2 S2- 4 a 0.165(1) 0.181(2) 0.273(1) 1. 0 0.6(6) 
S3 S2- 4 a 0.242(1) 0.690(2) 0.130(1) 1. 0 0.6(6) 
S4 S2- 4 a 0.344(1) 0.166(2) 0.022(1) 1. 0 1.1(6) 
S5 S2- 4 a 0.378(1) 0.320(2) 0.345(1) 1. 0 1.1(6) 
S6 S2- 4 a 0.475(1) 0.169(3) 0.701(1) 1. 0 2.0(6) 
S7 S2- 4 a 0.589(1) 0.166(2) 0.434(1) 1. 0 2.5(6) 

#End of data_95120-ICSD


