data_90880-ICSD
#?2014 by Fachinformationszentrum Karlsruhe, and the U.S. Secretary of 
#Commerce on behalf of the United States.  All rights reserved.
_database_code_ICSD                90880
_audit_creation_date               2002/04/01
_chemical_name_systematic
;
Trilithium Diiron(III) Tris(arsenate(V))
;
_chemical_formula_structural       'Li3 Fe2 (As O4)3'
_chemical_formula_sum              'As3 Fe2 Li3 O12'
_publ_section_title
;
Structure and magnetic properties of Li3 Fe2 (As O4)3-x (P O4)x (x=0, 
1, 1.5, 2): two sublattice weak ferromagnets
;
loop_
_citation_id
_citation_journal_abbrev
_citation_year
_citation_journal_volume
_citation_page_first
_citation_page_last
_citation_journal_id_ASTM
primary 'Journal of Materials Chemistry' 2000 10 2779 2785 JMACEP
_publ_author_name
;
Mesa, J.L.;Goni, A.;Brandl, A.L.;Moreno, N.O.;Barberis, G.E.;Rojo, T.
;
_cell_length_a                     8.608(1)
_cell_length_b                     12.215(1)
_cell_length_c                     8.929(1)
_cell_angle_alpha                  90.
_cell_angle_beta                   90.
_cell_angle_gamma                  90.76(1)
_cell_volume                       938.77
_cell_formula_units_Z              4
_symmetry_space_group_name_H-M     'P 1 1 21/n'
_symmetry_Int_Tables_number        14
_refine_ls_R_factor_all            .061
loop_
_symmetry_equiv_pos_site_id
_symmetry_equiv_pos_as_xyz
  1	'x+.5, y+.5, -z+.5'
  2	'-x, -y, -z'
  3	'-x+.5, -y+.5, z+.5'
  4	'x, y, z'
loop_
_atom_type_symbol
_atom_type_oxidation_number
As5+	5
Fe3+	3
Li1+	1
O2-	-2
loop_
_atom_site_label
_atom_site_type_symbol
_atom_site_symmetry_multiplicity
_atom_site_Wyckoff_symbol
_atom_site_fract_x
_atom_site_fract_y
_atom_site_fract_z
_atom_site_occupancy
_atom_site_attached_hydrogens
_atom_site_B_iso_or_equiv
Fe1 Fe3+ 4 e 0.2481(6) 0.1095(4) 0.4700(5) 1. 0 0.3(1) 
Fe2 Fe3+ 4 e 0.7449(6) 0.3947(4) 0.4765(5) 1. 0 0.3(1) 
As1 As5+ 4 e 0.1118(4) 0.1446(2) 0.1175(4) 1. 0 0.3(1) 
As2 As5+ 4 e 0.6149(4) 0.3503(3) 0.1226(4) 1. 0 0.3(1) 
As3 As5+ 4 e 0.0378(3) 0.4914(3) 0.2483(4) 1. 0 0.3(1) 
O1 O2- 4 e 0.426(2) 0.304(1) 0.080(2) 1. 0 0.7(1) 
O2 O2- 4 e 0.931(2) 0.093(1) 0.114(2) 1. 0 0.7(1) 
O3 O2- 4 e 0.370(2) 0.255(1) 0.483(2) 1. 0 0.7(1) 
O4 O2- 4 e 0.753(2) 0.226(1) 0.523(2) 1. 0 0.7(1) 
O5 O2- 4 e 0.246(2) 0.057(1) 0.051(2) 1. 0 0.7(1) 
O6 O2- 4 e 0.637(2) 0.484(1) 0.084(2) 1. 0 0.7(1) 
O7 O2- 4 e 0.446(2) 0.064(1) 0.388(2) 1. 0 0.7(1) 
O8 O2- 4 e 0.935(2) 0.388(1) 0.340(2) 1. 0 0.7(1) 
O9 O2- 4 e 0.196(2) 0.432(1) 0.180(2) 1. 0 0.7(1) 
O10 O2- 4 e 0.597(2) 0.091(1) 0.134(2) 1. 0 0.7(1) 
O11 O2- 4 e 0.174(2) 0.193(1) 0.287(2) 1. 0 0.7(1) 
O12 O2- 4 e 0.620(2) 0.333(1) 0.309(2) 1. 0 0.7(1) 
Li1 Li1+ 4 e 0.321(6) 0.325(4) 0.270(6) 1. 0 1.8(1) 
Li2 Li1+ 4 e 0.566(6) 0.205(4) 0.400(5) 1. 0 1.8(1) 
Li3 Li1+ 4 e 0.061(6) 0.341(4) 0.504(5) 1. 0 1.8(1) 

#End of data_90880-ICSD


