data_84301-ICSD
#?2014 by Fachinformationszentrum Karlsruhe, and the U.S. Secretary of 
#Commerce on behalf of the United States.  All rights reserved.
_database_code_ICSD                84301
_audit_creation_date               1999/01/19
_chemical_name_systematic
;
Sodium Phyllo-tetrathiodicuproniobate
;
_chemical_formula_structural       'Na (Cu2 Nb S4)'
_chemical_formula_sum              'Cu2 Na1 Nb1 S4'
_publ_section_title
;
Synthesis, crystal structure and optical absorption of the two-
dimensional sulfide Na Cu2 Nb S4
;
loop_
_citation_id
_citation_journal_abbrev
_citation_year
_citation_journal_volume
_citation_page_first
_citation_page_last
_citation_journal_id_ASTM
primary 'European Journal of Solid State Inorganic Chemistry'
 1997 34 1165 1177 EJSCE5
_publ_author_name
;
Rumpf, C.;Naether, C.;Jeb, I.;Bensch, W.
;
_cell_length_a                     7.406(2)
_cell_length_b                     18.3130(40)
_cell_length_c                     5.522(2)
_cell_angle_alpha                  90.
_cell_angle_beta                   90.
_cell_angle_gamma                  90.
_cell_volume                       748.93
_cell_formula_units_Z              4
_symmetry_space_group_name_H-M     'A m a 2'
_symmetry_Int_Tables_number        40
_refine_ls_R_factor_all            .035
loop_
_symmetry_equiv_pos_site_id
_symmetry_equiv_pos_as_xyz
  1	'x+.5, -y, z'
  2	'-x+.5, y, z'
  3	'-x, -y, z'
  4	'x, y, z'
  5	'x+.5, -y+.5, z+.5'
  6	'-x+.5, y+.5, z+.5'
  7	'-x, -y+.5, z+.5'
  8	'x, y+.5, z+.5'
loop_
_atom_type_symbol
_atom_type_oxidation_number
Cu1+	1
Na1+	1
Nb5+	5
S2-	-2
loop_
_atom_site_label
_atom_site_type_symbol
_atom_site_symmetry_multiplicity
_atom_site_Wyckoff_symbol
_atom_site_fract_x
_atom_site_fract_y
_atom_site_fract_z
_atom_site_occupancy
_atom_site_attached_hydrogens
_atom_site_U_iso_or_equiv
Nb1 Nb5+ 4 b 0.25 0.3878(1) 0.2516(1) 1. 0 0.011(1) 
Cu1 Cu1+ 4 b 0.25 0.3942(1) 0.7520(2) 1. 0 0.015(1) 
Cu2 Cu1+ 4 a 0.5 0.5 0.2280(2) 1. 0 0.015(1) 
S1 S2- 4 b 0.25 0.4930(1) 0.4866(3) 1. 0 0.011(1) 
S2 S2- 8 c 0.5005(1) 0.3921(1) 0.0081(3) 1. 0 0.015(1) 
S3 S2- 4 b 0.25 0.2901(1) 0.5051(3) 1. 0 0.020(1) 
Na1 Na1+ 4 b 0.25 0.6807(3) 0.5066(13) 1. 0 0.082(2) 

#End of data_84301-ICSD


