data_150293-ICSD
#?2014 by Fachinformationszentrum Karlsruhe, and the U.S. Secretary of 
#Commerce on behalf of the United States.  All rights reserved.
_database_code_ICSD                150293
_audit_creation_date               2006/04/01
_chemical_name_systematic          'Dipotassium Copper(I) Bromide'
_chemical_formula_structural       'K2 Cu Br3'
_chemical_formula_sum              'Br3 Cu1 K2'
_publ_section_title
;
Crystal structures and ionic conductivities of ternary derivatives of 
the silver and copper monohalides - II: ordered phases within the (Ag 
X)x - (MX)1-x and (CuX)x - (MX)1-x (M = K, Rb and Cs; X = Cl, Br and 
I) systems
;
loop_
_citation_id
_citation_journal_abbrev
_citation_year
_citation_journal_volume
_citation_page_first
_citation_page_last
_citation_journal_id_ASTM
primary 'Journal of Solid State Chemistry' 2004 177 3156 3173 JSSCBI
_publ_author_name                  'Hull, S.;Berastegui, P.'
_cell_length_a                     12.6066(4)
_cell_length_b                     4.3361(1)
_cell_length_c                     13.2470(5)
_cell_angle_alpha                  90.
_cell_angle_beta                   90.
_cell_angle_gamma                  90.
_cell_volume                       724.13
_cell_formula_units_Z              4
_symmetry_space_group_name_H-M     'P n m a'
_symmetry_Int_Tables_number        62
_refine_ls_R_factor_all            .0377
loop_
_symmetry_equiv_pos_site_id
_symmetry_equiv_pos_as_xyz
  1	'x+.5, y, -z+.5'
  2	'x, -y+.5, z'
  3	'-x+.5, y+.5, z+.5'
  4	'-x, -y, -z'
  5	'-x+.5, -y, z+.5'
  6	'-x, y+.5, -z'
  7	'x+.5, -y+.5, -z+.5'
  8	'x, y, z'
loop_
_atom_type_symbol
_atom_type_oxidation_number
Br1-	-1
Cu1+	1
K1+	1
loop_
_atom_site_label
_atom_site_type_symbol
_atom_site_symmetry_multiplicity
_atom_site_Wyckoff_symbol
_atom_site_fract_x
_atom_site_fract_y
_atom_site_fract_z
_atom_site_occupancy
_atom_site_attached_hydrogens
_atom_site_B_iso_or_equiv
K1 K1+ 4 c 0.1746(5) 0.250 0.4824(6) 1. 0 3.8(2) 
K2 K1+ 4 c 0.5132(5) 0.250 0.6794(8) 1. 0 4.9(2) 
Cu1 Cu1+ 4 c 0.2531(4) 0.250 0.1972(4) 1. 0 4.6(1) 
Br1 Br1- 4 c 0.1331(3) 0.250 0.0524(3) 1. 0 2.8(1) 
Br2 Br1- 4 c 0.4416(3) 0.250 0.1377(3) 1. 0 3.2(1) 
Br3 Br1- 4 c 0.2757(3) 0.250 0.7946(3) 1. 0 2.7(1) 

#End of data_150293-ICSD


