data_300171-ICSD
#?2014 by Fachinformationszentrum Karlsruhe, and the U.S. Secretary of 
#Commerce on behalf of the United States.  All rights reserved.
_database_code_ICSD                300171
_audit_creation_date               1991/07/10
_audit_update_record               2008/02/01
_chemical_name_systematic
;
Hexapotassium Di-mue-tellurido-bis(ditelluridogallate)
;
_chemical_formula_structural       'K6 (Te2 (Ga Te2)2)'
_chemical_formula_sum              'Ga2 K6 Te6'
_publ_section_title
;
Crystal structure of hexapotassium di-mue-
telluridobis(ditelluridogallate)
;
loop_
_citation_id
_citation_journal_abbrev
_citation_year
_citation_journal_volume
_citation_page_first
_citation_page_last
_citation_journal_id_ASTM
primary 'Zeitschrift fuer Kristallographie (1979-2010)' 1991 197 145 146 ZEKRDZ
_publ_author_name                  'Eisenmann, B.;Hofmann, A.'
_cell_length_a                     8.616(3)
_cell_length_b                     13.685(6)
_cell_length_c                     11.290(4)
_cell_angle_alpha                  90.
_cell_angle_beta                   127.612(60)
_cell_angle_gamma                  90.
_cell_volume                       1054.53
_cell_formula_units_Z              2
_symmetry_space_group_name_H-M     'P 1 21/c 1'
_symmetry_Int_Tables_number        14
_refine_ls_R_factor_all            .097
loop_
_symmetry_equiv_pos_site_id
_symmetry_equiv_pos_as_xyz
  1	'x, -y+.5, z+.5'
  2	'-x, -y, -z'
  3	'-x, y+.5, -z+.5'
  4	'x, y, z'
loop_
_atom_type_symbol
_atom_type_oxidation_number
Ga3+	3
K1+	1
Te2-	-2
loop_
_atom_site_label
_atom_site_type_symbol
_atom_site_symmetry_multiplicity
_atom_site_Wyckoff_symbol
_atom_site_fract_x
_atom_site_fract_y
_atom_site_fract_z
_atom_site_occupancy
_atom_site_attached_hydrogens
K1 K1+ 4 e 0.3367(12) 0.0934(7) 0.6005(8) 1. 0 
K2 K1+ 4 e 0.1248(11) 0.8108(6) 0.4105(10) 1. 0 
K3 K1+ 4 e 0.3651(10) 0.3830(5) 0.5248(8) 1. 0 
Ga1 Ga3+ 4 e 0.0655(4) 0.0640(2) 0.1654(3) 1. 0 
Te1 Te2- 4 e 0.1649(3) 0.6108(1) 0.6277(2) 1. 0 
Te2 Te2- 4 e 0.3589(3) 0.3155(2) 0.8164(2) 1. 0 
Te3 Te2- 4 e 0.8675(3) 0.4451(2) 0.7678(2) 1. 0 

#End of data_300171-ICSD


