data_65434-ICSD
#?2014 by Fachinformationszentrum Karlsruhe, and the U.S. Secretary of 
#Commerce on behalf of the United States.  All rights reserved.
_database_code_ICSD                65434
_audit_creation_date               1989/12/04
_chemical_name_systematic          'Potassium Tetrathionate'
_chemical_formula_structural       'K2 (S4 O6)'
_chemical_formula_sum              'K2 O6 S4'
_publ_section_title
;
Experimental charge density in polythionate anions: Part II X-ray 
study of the electron density distribution in potassium 
tetrathionate, K2 S4 O6
;
loop_
_citation_id
_citation_journal_abbrev
_citation_year
_citation_journal_volume
_citation_page_first
_citation_page_last
_citation_journal_id_ASTM
primary 'Zeitschrift fuer Kristallographie (1979-2010)' 1989 188 31 42 ZEKRDZ
_publ_author_name
;
Christidis, P.C.;Rentzeperis, P.J.;Kirfel, A.;Will, G.
;
_cell_length_a                     22.093(5)
_cell_length_b                     8.000(3)
_cell_length_c                     10.109(2)
_cell_angle_alpha                  90.
_cell_angle_beta                   102.25(2)
_cell_angle_gamma                  90.
_cell_volume                       1746.02
_cell_formula_units_Z              8
_symmetry_space_group_name_H-M     'C 1 c 1'
_symmetry_Int_Tables_number        9
_refine_ls_R_factor_all            .059
loop_
_symmetry_equiv_pos_site_id
_symmetry_equiv_pos_as_xyz
  1	'x, -y, z+.5'
  2	'x, y, z'
  3	'x+.5, -y+.5, z+.5'
  4	'x+.5, y+.5, z'
loop_
_atom_type_symbol
_atom_type_oxidation_number
K1+	1
O2-	-2
S2+	2
S4+	4
loop_
_atom_site_label
_atom_site_type_symbol
_atom_site_symmetry_multiplicity
_atom_site_Wyckoff_symbol
_atom_site_fract_x
_atom_site_fract_y
_atom_site_fract_z
_atom_site_occupancy
_atom_site_attached_hydrogens
K1 K1+ 4 a 0.0626(2) -.0087(4) 0.3832(5) 1. 0 
K2 K1+ 4 a 0.0145(3) 0.3859(2) 0.2641(3) 1. 0 
K3 K1+ 4 a 0.2188(1) 0.5690(3) 0.4400(3) 1. 0 
K4 K1+ 4 a 0.4260(1) 0.3430(3) 0.0512(2) 1. 0 
S1 S2+ 4 a 0.1 0.6972(2) 0.1 1. 0 
S2 S2+ 4 a 0.1855(1) 0.8122(3) 0.0954(2) 1. 0 
S3 S2+ 4 a 0.2081(1) 0.9500(3) 0.2656(3) 1. 0 
S4 S4+ 4 a 0.1637(1) 0.1820(2) 0.2066(2) 1. 0 
S5 S2+ 4 a 0.4425(1) 0.1678(2) 0.4325(2) 1. 0 
S6 S2+ 4 a 0.3475(1) 0.2091(4) 0.4182(3) 1. 0 
S7 S2+ 4 a 0.3392(1) 0.1393(3) 0.6060(3) 1. 0 
S8 S4+ 4 a 0.3537(1) 0.3645(3) 0.7216(2) 1. 0 
O1 O2- 4 a 0.0509(3) 0.8174(13) 0.0508(13) 1. 0 
O2 O2- 4 a 0.1019(3) 0.5598(10) 0.0085(8) 1. 0 
O3 O2- 4 a 0.1016(4) 0.6481(12) 0.2396(8) 1. 0 
O4 O2- 4 a 0.1028(4) 0.1677(15) 0.2348(16) 1. 0 
O5 O2- 4 a 0.2035(6) 0.2956(15) 0.2990(18) 1. 0 
O6 O2- 4 a 0.1626(14) 0.1998(17) 0.0637(12) 1. 0 
O7 O2- 4 a 0.4504(4) 0.1897(13) 0.2938(7) 1. 0 
O8 O2- 4 a 0.4559(4) 0.0011(12) 0.4848(10) 1. 0 
O9 O2- 4 a 0.4749(4) 0.2970(13) 0.5223(7) 1. 0 
O10 O2- 4 a 0.3220(4) 0.3230(13) 0.8297(7) 1. 0 
O11 O2- 4 a 0.4198(3) 0.3830(15) 0.7687(8) 1. 0 
O12 O2- 4 a 0.3264(5) 0.4977(13) 0.6327(9) 1. 0 

loop_
_atom_site_aniso_label
_atom_site_aniso_type_symbol
_atom_site_aniso_U_11
_atom_site_aniso_U_22
_atom_site_aniso_U_33
_atom_site_aniso_U_12
_atom_site_aniso_U_13
_atom_site_aniso_U_23
K1 K1+ 0.0571(15) 0.0365(10) 0.0623(16) -.0192(11) 0.0384(15) -.0204(11)
K2 K1+ 0.0260(6) 0.0271(7) 0.0267(5) 0.0037(5) 0.0046(4) -.0036(5)
K3 K1+ 0.0334(6) 0.0265(7) 0.0352(7) -.0012(5) 0.0037(5) -.0004(6)
K4 K1+ 0.0292(6) 0.0499(11) 0.0220(5) 0.0111(7) 0.0063(4) 0.0042(6)
S1 S2+ 0.0192(4) 0.0177(5) 0.0219(5) 0.0008(4) 0.0041(4) 0.0013(5)
S2 S2+ 0.0205(5) 0.0235(6) 0.0318(7) -.0011(5) 0.0103(5) -.0058(6)
S3 S2+ 0.0247(5) 0.0212(6) 0.0283(6) 0.0014(5) -.0011(5) -.0010(5)
S4 S4+ 0.0294(7) 0.0193(6) 0.0259(6) 0.0012(6) 0.0098(5) -.0005(5)
S5 S2+ 0.0200(5) 0.0252(6) 0.0182(5) 0.0020(5) 0.0066(4) 0.0004(4)
S6 S2+ 0.0195(5) 0.0428(11) 0.0247(6) 0.0055(6) 0.0002(4) -.0077(7)
S7 S2+ 0.0285(6) 0.0294(8) 0.0370(8) -.0039(6) 0.0171(6) -.0035(7)
S8 S4+ 0.0208(5) 0.0289(7) 0.0193(5) 0.0019(5) 0.0060(4) 0.0002(5)
O1 O2- 0.0193(18) 0.0334(32) 0.0618(53) 0.0074(20) 0.0072(21) 0.0145(34)
O2 O2- 0.0320(24) 0.0291(25) 0.0318(24) -.0051(21) 0.006(2) -.0097(21)
O3 O2- 0.0363(26) 0.0399(32) 0.0241(20) -.0067(24) 0.0110(18) 0.0036(20)
O4 O2- 0.0227(22) 0.0383(40) 0.0707(64) 0.0090(24) 0.0113(29) 0.0058(39)
O5 O2- 0.0427(37) 0.0305(36) 0.0634(69) -.0081(32) 0.0031(39) -.0175(43)
O6 O2- 0.137(20) 0.036(4) 0.0314(36) 0.0182(73) 0.0372(73) 0.0131(32)
O7 O2- 0.0423(28) 0.0402(31) 0.0210(18) 0.0077(27) 0.0158(19) 0.0028(21)
O8 O2- 0.0290(23) 0.0316(27) 0.0398(29) 0.011(2) 0.0123(22) 0.0094(23)
O9 O2- 0.0309(20) 0.0407(34) 0.0271(21) -.0065(26) 0.0060(17) -.0046(22)
O10 O2- 0.0336(21) 0.0430(35) 0.0248(18) -.0014(26) 0.0136(18) -.0037(22)
O11 O2- 0.0200(17) 0.0518(42) 0.0324(23) -.0022(23) 0.0044(16) -.0074(27)
O12 O2- 0.0452(37) 0.0335(32) 0.0272(22) 0.0134(30) 0.0035(22) 0.0007(22)
#End of data_65434-ICSD


