data_201949-ICSD
#?2014 by Fachinformationszentrum Karlsruhe, and the U.S. Secretary of 
#Commerce on behalf of the United States.  All rights reserved.
_database_code_ICSD                201949
_audit_creation_date               1988/12/19
_audit_update_record               2013/02/01
_chemical_name_systematic          'Potassium Tetrafluoroaluminate - I'
_chemical_formula_structural       'K (Al F4)'
_chemical_formula_sum              'Al1 F4 K1'
_publ_section_title
;
A re-investigation of the room-temperature phase of K Al F4: evidence 
of antiphase domains
;
loop_
_citation_id
_citation_journal_abbrev
_citation_year
_citation_journal_volume
_citation_page_first
_citation_page_last
_citation_journal_id_ASTM
primary 'Journal of Physics C' 1986 19 4623 4633 JPSOAW
2 'Golden Book of Phase Transitions, Wroclaw' 2002 1 1 123 GBOPT5
_publ_author_name                  'Gibaud, A.;Le Bail, A.;Bulou, A.'
_cell_length_a                     5.0432(1)
_cell_length_b                     5.0432(1)
_cell_length_c                     6.1573(1)
_cell_angle_alpha                  90.
_cell_angle_beta                   90.
_cell_angle_gamma                  90.
_cell_volume                       156.6
_cell_formula_units_Z              2
_symmetry_space_group_name_H-M     'P 4/m b m'
_symmetry_Int_Tables_number        127
_refine_ls_R_factor_all            .0458
loop_
_symmetry_equiv_pos_site_id
_symmetry_equiv_pos_as_xyz
  1	'y+.5, x+.5, -z'
  2	'-y+.5, -x+.5, -z'
  3	'-y, x, -z'
  4	'y, -x, -z'
  5	'x+.5, -y+.5, -z'
  6	'-x+.5, y+.5, -z'
  7	'x, y, -z'
  8	'-x, -y, -z'
  9	'-y+.5, -x+.5, z'
 10	'y+.5, x+.5, z'
 11	'y, -x, z'
 12	'-y, x, z'
 13	'-x+.5, y+.5, z'
 14	'x+.5, -y+.5, z'
 15	'-x, -y, z'
 16	'x, y, z'
loop_
_atom_type_symbol
_atom_type_oxidation_number
Al3+	3
F1-	-1
K1+	1
loop_
_atom_site_label
_atom_site_type_symbol
_atom_site_symmetry_multiplicity
_atom_site_Wyckoff_symbol
_atom_site_fract_x
_atom_site_fract_y
_atom_site_fract_z
_atom_site_occupancy
_atom_site_attached_hydrogens
K1 K1+ 2 c 0 0.5 0.5 1. 0 
Al1 Al3+ 2 a 0 0 0 1. 0 
F1 F1- 4 e 0 0 0.2859(3) 1. 0 
F2 F1- 4 g 0.2940(3) 0.794 0 1. 0 

loop_
_atom_site_aniso_label
_atom_site_aniso_type_symbol
_atom_site_aniso_U_11
_atom_site_aniso_U_22
_atom_site_aniso_U_33
_atom_site_aniso_U_12
_atom_site_aniso_U_13
_atom_site_aniso_U_23
K1 K1+ 0.0160(5) 0.0160(5) 0.0199(99) 0.0024(7) 0 0
Al1 Al3+ 0.0054(7) 0.0054(7) 0.0044(8) 0 0 0
F1 F1- 0.0345(10) 0.0345(10) 0.0010(6) 0 0 0
F2 F1- 0.0128(9) 0.0128(9) 0.0352(15) -.0105(10) 0 0
#End of data_201949-ICSD


