data_280978-ICSD
#?2014 by Fachinformationszentrum Karlsruhe, and the U.S. Secretary of 
#Commerce on behalf of the United States.  All rights reserved.
_database_code_ICSD                280978
_audit_creation_date               2003/04/01
_chemical_name_systematic
;
Tetrapotassium Chromate(VI) Dinitrate(V)
;
_chemical_formula_structural       'K4 (Cr O4) (N O3)2'
_chemical_formula_sum              'Cr1 K4 N2 O10'
_publ_section_title
;
K4 (Cr O4) (N O3)2, the first chromate(VI)-nitrate
;
loop_
_citation_id
_citation_journal_abbrev
_citation_year
_citation_journal_volume
_citation_page_first
_citation_page_last
_citation_journal_id_ASTM
primary 'Acta Crystallographica, Section E. Structure Reports Online'
 2002 58 88 90 ACSEBH
_publ_author_name                  'Kolitsch, U.'
_cell_length_a                     10.143(2)
_cell_length_b                     11.149(2)
_cell_length_c                     9.837(2)
_cell_angle_alpha                  90.
_cell_angle_beta                   106.31(3)
_cell_angle_gamma                  90.
_cell_volume                       1067.64
_cell_formula_units_Z              4
_symmetry_space_group_name_H-M     'P 1 21/c 1'
_symmetry_Int_Tables_number        14
_refine_ls_R_factor_all            .038
loop_
_symmetry_equiv_pos_site_id
_symmetry_equiv_pos_as_xyz
  1	'x, -y+.5, z+.5'
  2	'-x, -y, -z'
  3	'-x, y+.5, -z+.5'
  4	'x, y, z'
loop_
_atom_type_symbol
_atom_type_oxidation_number
Cr6+	6
K1+	1
N5+	5
O2-	-2
loop_
_atom_site_label
_atom_site_type_symbol
_atom_site_symmetry_multiplicity
_atom_site_Wyckoff_symbol
_atom_site_fract_x
_atom_site_fract_y
_atom_site_fract_z
_atom_site_occupancy
_atom_site_attached_hydrogens
_atom_site_U_iso_or_equiv
K1 K1+ 4 e 0.35921(5) 0.12280(5) 0.03356(5) 1. 0 0.02566(15) 
K2 K1+ 4 e 0.36336(5) 0.87896(5) 0.53445(6) 1. 0 0.02938(15) 
K3 K1+ 4 e 0.09503(6) 0.62574(5) 0.61292(6) 1. 0 0.02560(14) 
K4 K1+ 4 e 0.08402(6) 0.12720(5) 0.60806(5) 1. 0 0.02717(15) 
Cr1 Cr6+ 4 e 0.20415(4) 0.88240(3) 0.80931(4) 1. 0 0.01722(12) 
N1 N5+ 4 e 0.1539(2) 0.37197(17) 0.7980(2) 1. 0 0.0214(4) 
N2 N5+ 4 e 0.5070(2) 0.63781(19) 0.7679(2) 1. 0 0.0261(5) 
O1 O2- 4 e 0.15608(18) 0.46875(16) 0.86197(18) 1. 0 0.0296(4) 
O2 O2- 4 e 0.14715(18) 0.27453(15) 0.85857(18) 1. 0 0.0287(4) 
O3 O2- 4 e 0.15162(19) 0.37247(15) 0.66926(18) 1. 0 0.0291(4) 
O4 O2- 4 e 0.3974(3) 0.5874(3) 0.7275(3) 1. 0 0.0819(10) 
O5 O2- 4 e 0.5486(3) 0.7099(2) 0.6946(3) 1. 0 0.0620(7) 
O6 O2- 4 e 0.4216(3) 0.1246(2) 0.6065(2) 1. 0 0.0508(6) 
O7 O2- 4 e 0.37171(18) 0.8941(2) 0.8475(2) 1. 0 0.0433(5) 
O8 O2- 4 e 0.15907(19) 0.75791(15) 0.87380(18) 1. 0 0.0291(4) 
O9 O2- 4 e 0.14067(17) 0.88209(14) 0.63575(16) 1. 0 0.0242(4) 
O10 O2- 4 e 0.14221(17) 0.99815(15) 0.87589(17) 1. 0 0.0238(4) 

loop_
_atom_site_aniso_label
_atom_site_aniso_type_symbol
_atom_site_aniso_U_11
_atom_site_aniso_U_22
_atom_site_aniso_U_33
_atom_site_aniso_U_12
_atom_site_aniso_U_13
_atom_site_aniso_U_23
K1 K1+ 0.0186(3) 0.0294(3) 0.0277(3) -0.0019(2) 0.0043(2) -0.0008(2)
K2 K1+ 0.0246(3) 0.0332(4) 0.0318(3) -0.0004(2) 0.0104(2) 0.0011(2)
K3 K1+ 0.0340(3) 0.0200(3) 0.0251(3) -0.0029(2) 0.0120(2) -0.0012(2)
K4 K1+ 0.0404(3) 0.0192(3) 0.0209(3) 0.0034(2) 0.0070(2) 0.0002(2)
Cr1 Cr6+ 0.0178(2) 0.0173(2) 0.01624(19) 0.00061(14) 0.00418(13) 
0.00013(14)
N1 N5+ 0.0272(11) 0.0188(10) 0.0193(10) -0.0031(8) 0.0085(8) -0.0013(8)
N2 N5+ 0.0256(12) 0.0279(12) 0.0257(11) 0.0032(8) 0.0087(9) 0.0005(9)
O1 O2- 0.0378(10) 0.0202(9) 0.0297(9) -0.0037(7) 0.0078(8) -0.0067(7)
O2 O2- 0.0345(10) 0.0217(9) 0.0303(10) 0.0034(7) 0.0099(8) 0.0062(7)
O3 O2- 0.0356(10) 0.0304(10) 0.0254(9) -0.0005(7) 0.0153(7) 0.0007(7)
O4 O2- 0.0421(15) 0.102(2) 0.104(2) -0.0279(15) 0.0245(15) -0.0573(19)
O5 O2- 0.0910(19) 0.0566(15) 0.0531(14) 0.0181(13) 0.0442(14) 0.0178(13)
O6 O2- 0.0642(15) 0.0468(14) 0.0357(12) -0.0108(10) 0.0047(11) -0.0043(10)
O7 O2- 0.0157(9) 0.0647(15) 0.0466(12) -0.0019(8) 0.0039(8) -0.0052(10)
O8 O2- 0.0425(11) 0.0197(9) 0.0271(9) -0.0012(7) 0.0130(8) 0.0041(7)
O9 O2- 0.0275(9) 0.0261(9) 0.0181(8) -0.0003(7) 0.0049(7) -0.0016(7)
O10 O2- 0.0291(9) 0.0201(9) 0.0231(8) 0.0022(6) 0.0087(7) -0.0030(7)
#End of data_280978-ICSD


