data_32621-ICSD
#?2014 by Fachinformationszentrum Karlsruhe, and the U.S. Secretary of 
#Commerce on behalf of the United States.  All rights reserved.
_database_code_ICSD                32621
_audit_creation_date               1982/12/31
_audit_update_record               2010/02/01
_chemical_name_systematic
;
Potassium Lead Catena-nonafluorodichromate(III)
;
_chemical_formula_structural       'K Pb (Cr2 F9)'
_chemical_formula_sum              'Cr2 F9 K1 Pb1'
_publ_section_title
;
Structural and magnetic properties of K Pb Cr2 F9
;
loop_
_citation_id
_citation_journal_abbrev
_citation_year
_citation_journal_volume
_citation_page_first
_citation_page_last
_citation_journal_id_ASTM
primary 'Journal of Solid State Chemistry' 1982 41 272 276 JSSCBI
_publ_author_name
;
Vlasse, M.;Chaminade, J.P.;Dance, J.M.;Saux, M.;Hagenmuller, P.
;
_cell_length_a                     9.81(5)
_cell_length_b                     5.412(3)
_cell_length_c                     13.93(1)
_cell_angle_alpha                  90.
_cell_angle_beta                   90.
_cell_angle_gamma                  90.
_cell_volume                       739.57
_cell_formula_units_Z              4
_symmetry_space_group_name_H-M     'P n m a'
_symmetry_Int_Tables_number        62
_refine_ls_R_factor_all            .041
loop_
_symmetry_equiv_pos_site_id
_symmetry_equiv_pos_as_xyz
  1	'x+.5, y, -z+.5'
  2	'x, -y+.5, z'
  3	'-x+.5, y+.5, z+.5'
  4	'-x, -y, -z'
  5	'-x+.5, -y, z+.5'
  6	'-x, y+.5, -z'
  7	'x+.5, -y+.5, -z+.5'
  8	'x, y, z'
loop_
_atom_type_symbol
_atom_type_oxidation_number
Cr3+	3
F1-	-1
K1+	1
Pb2+	2
loop_
_atom_site_label
_atom_site_type_symbol
_atom_site_symmetry_multiplicity
_atom_site_Wyckoff_symbol
_atom_site_fract_x
_atom_site_fract_y
_atom_site_fract_z
_atom_site_occupancy
_atom_site_attached_hydrogens
_atom_site_B_iso_or_equiv
K1 K1+ 4 c 0.2703(4) 0.75 0.2975(2) 1. 0 0 
Pb1 Pb2+ 4 c 0.4449(5) 0.25 0.1105(4) 1. 0 0 
Cr1 Cr3+ 4 c 0.0669(2) 0.25 0.1559(1) 1. 0 0 
Cr2 Cr3+ 4 c 0.2307(2) 0.75 0.0076(1) 1. 0 0 
F1 F1- 4 c 0.2440(7) 0.25 0.2086(7) 1. 0 1.73 
F2 F1- 4 c 0.1513(7) 0.25 0.6122(8) 1. 0 2.17 
F3 F1- 8 d 0.0142(6) 0.4859(13) 0.2469(5) 1. 0 1.33 
F4 F1- 8 d 0.1575(7) 0.4916(2) 0.4492(5) 1. 0 1.4 
F5 F1- 4 c 0.3850(8) 0.25 0.3963(6) 1. 0 1.45 
F6 F1- 8 d 0.1213(7) 0.4992(16) 0.0659(5) 1. 0 2.27 

#End of data_32621-ICSD


