data_99001-ICSD
#?2014 by Fachinformationszentrum Karlsruhe, and the U.S. Secretary of 
#Commerce on behalf of the United States.  All rights reserved.
_database_code_ICSD                99001
_audit_creation_date               2005/04/01
_chemical_name_systematic
;
Calcium Tantalum Oxide Tetraoxoaluminate
;
_chemical_formula_structural       'Ca (Ta O) (Al O4)'
_chemical_formula_sum              'Al1 Ca1 O5 Ta1'
_publ_section_title
;
Structure and phase transition of Ca Ta O Al O4
;
loop_
_citation_id
_citation_journal_abbrev
_citation_year
_citation_journal_volume
_citation_page_first
_citation_page_last
_citation_journal_id_ASTM
primary 'Journal of Applied Crystallography' 2004 37 117 122 JACGAR
_publ_author_name
;
Malcherek, T.;Borowski, M.;Bosenick, A.
;
_cell_length_a                     6.632(2)
_cell_length_b                     8.951(2)
_cell_length_c                     7.350(2)
_cell_angle_alpha                  90
_cell_angle_beta                   113.78(2)
_cell_angle_gamma                  90
_cell_volume                       399.28
_cell_formula_units_Z              4
_symmetry_space_group_name_H-M     'P 1 21/n 1'
_symmetry_Int_Tables_number        14
loop_
_symmetry_equiv_pos_site_id
_symmetry_equiv_pos_as_xyz
  1	'-x+.5, y+.5, -z+.5'
  2	'-x, -y, -z'
  3	'x+.5, -y+.5, z+.5'
  4	'x, y, z'
loop_
_atom_type_symbol
_atom_type_oxidation_number
Al3+	3
Ca2+	2
O2-	-2
Ta5+	5
loop_
_atom_site_label
_atom_site_type_symbol
_atom_site_symmetry_multiplicity
_atom_site_Wyckoff_symbol
_atom_site_fract_x
_atom_site_fract_y
_atom_site_fract_z
_atom_site_occupancy
_atom_site_attached_hydrogens
Ca1 Ca2+ 4 e 0.00635 0.33695 0.70829 1. 0 
Al1 Al3+ 4 e 0.01053 0.31462 0.24930 1. 0 
Ta1 Ta5+ 2 a 0 0 0 1. 0 
Ta2 Ta5+ 2 b 0 0 0.5 1. 0 
O1 O2- 4 e 0.98863 0.07911 0.74620 1. 0 
O2 O2- 4 e 0.19148 0.43423 0.43596 1. 0 
O3 O2- 4 e 0.81411 0.44241 0.09542 1. 0 
O4 O2- 4 e 0.12217 0.19782 0.12117 1. 0 
O5 O2- 4 e 0.89633 0.20260 0.38334 1. 0 

#End of data_99001-ICSD


