data_71509-ICSD
#?2014 by Fachinformationszentrum Karlsruhe, and the U.S. Secretary of 
#Commerce on behalf of the United States.  All rights reserved.
_database_code_ICSD                71509
_audit_creation_date               1993/01/06
_audit_update_record               2003/10/01
_chemical_name_systematic          'Dirubidium Tetrachlorozincate'
_chemical_formula_structural       'Rb2 (Zn Cl4)'
_chemical_formula_sum              'Cl4 Rb2 Zn1'
_publ_section_title
;
Simulations of phase transitions in Rb2ZnCl4
;
loop_
_citation_id
_citation_journal_abbrev
_citation_year
_citation_journal_volume
_citation_journal_issue
_citation_page_first
_citation_page_last
_citation_journal_id_ASTM
primary 'Physical Review, Serie 3. B - Condensed Matter (18,1978-)'
 1992 45 14 7609 7620 PRBMDO
2 'Phase Transition' 1992 38- 127 220 PHTRDP
_publ_author_name                  'Lu, H.M.;Hardy, J.R.'
_cell_length_a                     26.497
_cell_length_b                     12.188
_cell_length_c                     7.225
_cell_angle_alpha                  90.
_cell_angle_beta                   90.
_cell_angle_gamma                  90.
_cell_volume                       2333.28
_cell_formula_units_Z              12
_symmetry_space_group_name_H-M     'P n a 21'
_symmetry_Int_Tables_number        33
loop_
_symmetry_equiv_pos_site_id
_symmetry_equiv_pos_as_xyz
  1	'x+.5, -y+.5, z'
  2	'-x+.5, y+.5, z+.5'
  3	'-x, -y, z+.5'
  4	'x, y, z'
loop_
_atom_type_symbol
_atom_type_oxidation_number
Cl1-	-1
Rb1+	1
Zn2+	2
loop_
_atom_site_label
_atom_site_type_symbol
_atom_site_symmetry_multiplicity
_atom_site_Wyckoff_symbol
_atom_site_fract_x
_atom_site_fract_y
_atom_site_fract_z
_atom_site_occupancy
_atom_site_attached_hydrogens
Zn1 Zn2+ 4 a 0.0724 0.4204 0.2564 1. 0 
Zn2 Zn2+ 4 a 0.7412 0.4152 0.2362 1. 0 
Zn3 Zn2+ 4 a 0.4044 0.4174 0.2841 1. 0 
Rb1 Rb1+ 4 a 0.2113 0.4204 0.228 1. 0 
Rb2 Rb1+ 4 a 0.0443 0.0834 0.2885 1. 0 
Rb3 Rb1+ 4 a 0.3817 0.0818 0.2665 1. 0 
Rb4 Rb1+ 4 a 0.1666 0.8107 0.2419 1. 0 
Rb5 Rb1+ 4 a 0.3326 0.6937 0.222 1. 0 
Rb6 Rb1+ 4 a 0.5001 0.8076 0.2992 1. 0 
Cl1 Cl1- 4 a 0.6594 0.4365 0.3123 1. 0 
Cl2 Cl1- 4 a 0.3218 0.4438 0.3232 1. 0 
Cl3 Cl1- 4 a -.008 0.449 0.1701 1. 0 
Cl4 Cl1- 4 a 0.1144 0.5767 0.3308 1. 0 
Cl5 Cl1- 4 a 0.7816 0.5734 0.1599 1. 0 
Cl6 Cl1- 4 a 0.4468 0.5754 0.3424 1. 0 
Cl7 Cl1- 4 a 0.1125 0.358 -.0025 1. 0 
Cl8 Cl1- 4 a 0.7539 0.2868 0.017 1. 0 
Cl9 Cl1- 4 a 0.4285 0.3591 0.0023 1. 0 
Cl10 Cl1- 4 a 0.4334 0.2901 0.4851 1. 0 
Cl11 Cl1- 4 a 0.7808 0.3614 0.4999 1. 0 
Cl12 Cl1- 4 a 0.0814 0.297 0.4849 1. 0 

#End of data_71509-ICSD


