data_281428-ICSD
#?2014 by Fachinformationszentrum Karlsruhe, and the U.S. Secretary of 
#Commerce on behalf of the United States.  All rights reserved.
_database_code_ICSD                281428
_audit_creation_date               2004/04/01
_chemical_name_systematic
;
Silver Dioxoneptunium(V) Selenate(IV) - Alpha
;
_chemical_formula_structural       'Ag (Np O2) (Se O3)'
_chemical_formula_sum              'Ag1 Np1 O5 Se1'
_publ_section_title
;
Cation-cation interactions in neptunyl(V) compounds: hydrothermal 
preparation and structural characterization of Np O2 (I O3) and alpha-
 and beta-(Ag Np O2 (Se O3))
;
loop_
_citation_id
_citation_journal_abbrev
_citation_year
_citation_journal_volume
_citation_journal_issue
_citation_page_first
_citation_page_last
_citation_journal_id_ASTM
primary 'Inorganic Chemistry' 2003 42 12 3788 3795 INOCAJ
_publ_author_name
;
Albrecht Schmitt, T.E.;Almond, P.M.;Sykora, R.E.
;
_cell_length_a                     4.3007(3)
_cell_length_b                     9.5003(7)
_cell_length_c                     11.5877(9)
_cell_angle_alpha                  90.
_cell_angle_beta                   95.855(1)
_cell_angle_gamma                  90.
_cell_volume                       470.98
_cell_formula_units_Z              4
_symmetry_space_group_name_H-M     'P 1 21/n 1'
_symmetry_Int_Tables_number        14
_refine_ls_R_factor_all            .0222
loop_
_symmetry_equiv_pos_site_id
_symmetry_equiv_pos_as_xyz
  1	'-x+.5, y+.5, -z+.5'
  2	'-x, -y, -z'
  3	'x+.5, -y+.5, z+.5'
  4	'x, y, z'
loop_
_atom_type_symbol
_atom_type_oxidation_number
Ag1+	1
Np5+	5
O2-	-2
Se4+	4
loop_
_atom_site_label
_atom_site_type_symbol
_atom_site_symmetry_multiplicity
_atom_site_Wyckoff_symbol
_atom_site_fract_x
_atom_site_fract_y
_atom_site_fract_z
_atom_site_occupancy
_atom_site_attached_hydrogens
_atom_site_U_iso_or_equiv
Np1 Np5+ 4 e 0.25033(4) 0.15623(2) 0.255574(16) 1. 0 0.00808(10) 
Ag1 Ag1+ 4 e 0.20289(12) 0.10917(5) 0.58541(4) 1. 0 0.02219(14) 
Se1 Se4+ 4 e -.21903(12) -.08848(5) 0.11164(5) 1. 0 0.00819(13) 
O1 O2- 4 e -.2736(9) 0.0420(6) 0.2053(6) 1. 0 0.0502(18) 
O2 O2- 4 e -.2750(9) -.2307(6) 0.1907(6) 1. 0 0.0445(16) 
O3 O2- 4 e 0.1771(8) -.0896(4) 0.1399(3) 1. 0 0.0124(8) 
O4 O2- 4 e 0.2839(14) 0.0661(5) 0.3965(4) 1. 0 0.0370(13) 
O5 O2- 4 e 0.2124(13) 0.2449(4) 0.1155(4) 1. 0 0.0349(12) 

loop_
_atom_site_aniso_label
_atom_site_aniso_type_symbol
_atom_site_aniso_U_11
_atom_site_aniso_U_22
_atom_site_aniso_U_33
_atom_site_aniso_U_12
_atom_site_aniso_U_13
_atom_site_aniso_U_23
Np1 Np5+ 0.00722(14) 0.00691(14) 0.01016(14) -0.00002(7) 0.00115(9) 
-0.00017(7)
Ag1 Ag1+ 0.0230(2) 0.0250(3) 0.0195(3) -0.00069(19) 0.00653(19) 
-0.00184(18)
Se1 Se4+ 0.0078(2) 0.0066(2) 0.0101(3) -0.00006(17) 0.00068(19) 0.00058(18)
O1 O2- 0.0064(19) 0.048(3) 0.097(4) -0.003(2) 0.009(2) -0.062(4)
O2 O2- 0.0085(19) 0.039(3) 0.087(4) 0.0040(19) 0.006(2) 0.050(3)
O3 O2- 0.0065(17) 0.015(2) 0.016(2) -0.0008(13) 0.0027(14) -0.0010(15)
O4 O2- 0.084(4) 0.015(2) 0.013(2) -0.006(2) 0.005(2) 0.0008(18)
O5 O2- 0.079(4) 0.012(2) 0.012(2) -0.002(2) -0.001(2) 0.0015(17)
#End of data_281428-ICSD


