data_245062-ICSD
#?2014 by Fachinformationszentrum Karlsruhe, and the U.S. Secretary of 
#Commerce on behalf of the United States.  All rights reserved.
_database_code_ICSD                245062
_audit_creation_date               2007/04/01
_chemical_name_systematic          'Cesium Calcium Cyclo-triphosphate'
_chemical_formula_structural       'Cs Ca (P3 O9)'
_chemical_formula_sum              'Ca1 Cs1 O9 P3'
_publ_section_title
;
Cesium calcium cyclo-triphosphate, Cs Ca P3 O9
;
loop_
_citation_id
_citation_journal_abbrev
_citation_year
_citation_journal_volume
_citation_page_first
_citation_page_last
_citation_journal_id_ASTM
primary 'Acta Crystallographica, Section E. Structure Reports Online'
 2006 62 i263 i265 ACSEBH
_publ_author_name
;
Zatovsky, I.V.;Strutynska, N.Y.;Baumer, V.M.;Slobodyanik, 
N.S.;Shishkin, O.V.
;
_cell_length_a                     9.8287(2)
_cell_length_b                     7.56420(10)
_cell_length_c                     12.7905(2)
_cell_angle_alpha                  90
_cell_angle_beta                   90
_cell_angle_gamma                  90
_cell_volume                       950.93
_cell_formula_units_Z              4
_symmetry_space_group_name_H-M     'P n m a'
_symmetry_Int_Tables_number        62
_refine_ls_R_factor_all            .0294
loop_
_symmetry_equiv_pos_site_id
_symmetry_equiv_pos_as_xyz
  1	'x+.5, y, -z+.5'
  2	'x, -y+.5, z'
  3	'-x+.5, y+.5, z+.5'
  4	'-x, -y, -z'
  5	'-x+.5, -y, z+.5'
  6	'-x, y+.5, -z'
  7	'x+.5, -y+.5, -z+.5'
  8	'x, y, z'
loop_
_atom_type_symbol
_atom_type_oxidation_number
Ca2+	2
Cs1+	1
O2-	-2
P5+	5
loop_
_atom_site_label
_atom_site_type_symbol
_atom_site_symmetry_multiplicity
_atom_site_Wyckoff_symbol
_atom_site_fract_x
_atom_site_fract_y
_atom_site_fract_z
_atom_site_occupancy
_atom_site_attached_hydrogens
_atom_site_U_iso_or_equiv
Cs1 Cs1+ 4 c 0.88820(2) 0.25 0.584738(15) 1 0 0.02104(6) 
Ca1 Ca2+ 4 c 0.98661(5) 0.75 0.72159(4) 1 0 0.00923(11) 
P1 P5+ 8 d 0.74820(5) 0.55310(7) 0.35240(4) 1 0 0.01042(10) 
P2 P5+ 4 c 0.70743(7) 0.75 0.54177(6) 1 0 0.01197(15) 
O1 O2- 8 d 0.67746(15) 0.5850(2) 0.46443(11) 1 0 0.0162(3) 
O2 O2- 8 d 0.64565(15) 0.4838(2) 0.27912(12) 1 0 0.0229(4) 
O3 O2- 8 d 0.87732(15) 0.4558(2) 0.36703(12) 1 0 0.0196(3) 
O4 O2- 4 c 0.8540(2) 0.75 0.56819(16) 1 0 0.0221(5) 
O5 O2- 4 c 0.7892(2) 0.75 0.31724(16) 1 0 0.0142(4) 
O6 O2- 4 c 0.6039(2) 0.75 0.62422(17) 1 0 0.0236(5) 

loop_
_atom_site_aniso_label
_atom_site_aniso_type_symbol
_atom_site_aniso_U_11
_atom_site_aniso_U_22
_atom_site_aniso_U_33
_atom_site_aniso_U_12
_atom_site_aniso_U_13
_atom_site_aniso_U_23
Cs1 Cs1+ 0.02398(10) 0.02403(11) 0.01511(10) 0 0.00151(8) 0
Ca1 Ca2+ 0.0094(2) 0.0096(3) 0.0086(2) 0 -0.00030(19) 0
P1 P5+ 0.0134(2) 0.0076(2) 0.0103(2) -0.00068(18) -0.00013(17) -0.00092(18)
P2 P5+ 0.0138(3) 0.0150(4) 0.0072(3) 0 0.0012(3) 0
O1 O2- 0.0202(7) 0.0136(7) 0.0148(7) -0.0020(6) 0.0035(6) 0.0004(6)
O2 O2- 0.0256(8) 0.0237(9) 0.0195(8) -0.0097(7) -0.0056(6) -0.0034(7)
O3 O2- 0.0210(8) 0.0174(8) 0.0203(8) 0.0093(6) 0.0019(6) 0.0010(6)
O4 O2- 0.0160(10) 0.0373(14) 0.0130(11) 0 -0.0036(8) 0
O5 O2- 0.0209(10) 0.0096(10) 0.0121(10) 0 0.0059(8) 0
O6 O2- 0.0249(12) 0.0306(13) 0.0153(10) 0 0.0089(9) 0
#End of data_245062-ICSD


