data_20116-ICSD
#?2014 by Fachinformationszentrum Karlsruhe, and the U.S. Secretary of 
#Commerce on behalf of the United States.  All rights reserved.
_database_code_ICSD                20116
_audit_creation_date               1980/01/01
_audit_update_record               2012/02/01
_chemical_name_systematic          'Disodium Zirconium Germanate Oxide'
_chemical_formula_structural       'Na2 Zr Ge O5'
_chemical_formula_sum              'Ge1 Na2 O5 Zr1'
_publ_section_title
;
About the crystal structure of Na, Zr-oxyortho-Germanate Na2 Zr Ge O5
;
loop_
_citation_id
_citation_journal_abbrev
_citation_year
_citation_journal_volume
_citation_page_first
_citation_page_last
_citation_journal_id_ASTM
primary 'Doklady Akademii Nauk SSSR' 1974 216 82 85 DANKAS
_publ_author_name
;
Nosirev, N.A.;Treushnikov, E.N.;Ilyukhin, V.V.;Belov, V.V.
;
_cell_length_a                     14.1
_cell_length_b                     13.88
_cell_length_c                     5.56
_cell_angle_alpha                  90.
_cell_angle_beta                   90.
_cell_angle_gamma                  120.
_cell_volume                       942.35
_cell_formula_units_Z              8
_symmetry_space_group_name_H-M     'P 1 1 21/b'
_symmetry_Int_Tables_number        14
_refine_ls_R_factor_all            .088
loop_
_symmetry_equiv_pos_site_id
_symmetry_equiv_pos_as_xyz
  1	'x, y+.5, -z+.5'
  2	'-x, -y, -z'
  3	'-x, -y+.5, z+.5'
  4	'x, y, z'
loop_
_atom_type_symbol
_atom_type_oxidation_number
Ge4+	4
Na1+	1
O2-	-2
Zr4+	4
loop_
_atom_site_label
_atom_site_type_symbol
_atom_site_symmetry_multiplicity
_atom_site_Wyckoff_symbol
_atom_site_fract_x
_atom_site_fract_y
_atom_site_fract_z
_atom_site_occupancy
_atom_site_attached_hydrogens
_atom_site_B_iso_or_equiv
Zr1 Zr4+ 4 e 0.0632 0.3696 0.7629 1. 0 0.55 
Zr2 Zr4+ 4 e 0.4361 0.3059 0.2604 1. 0 0.55 
Ge1 Ge4+ 4 e 0.1588 0.0674 0.2314 1. 0 0.55 
Ge2 Ge4+ 4 e 0.3402 0.4067 0.7684 1. 0 0.55 
Na1 Na1+ 4 e 0.318 0.148 0.735 1. 0 0.55 
Na2 Na1+ 4 e 0.078 0.148 0.791 1. 0 0.55 
Na3 Na1+ 4 e 0.179 0.328 0.269 1. 0 0.55 
Na4 Na1+ 4 e 0.422 0.069 0.238 1. 0 0.55 
O1 O2- 4 e 0.124 0.456 0.105 1. 0 0.55 
O2 O2- 4 e 0.296 0.153 0.271 1. 0 0.55 
O3 O2- 4 e 0.409 0.044 0.792 1. 0 0.55 
O4 O2- 4 e 0.203 0.359 0.715 1. 0 0.55 
O5 O2- 4 e 0.09 0.13 0.31 1. 0 0.55 
O6 O2- 4 e 0.383 0.336 0.589 1. 0 0.55 
O7 O2- 4 e 0.129 0.022 0.938 1. 0 0.55 
O8 O2- 4 e 0.365 0.395 0.079 1. 0 0.55 
O9 O2- 4 e 0.007 0.272 0.477 1. 0 0.55 
O10 O2- 4 e 0.493 0.266 0.962 1. 0 0.55 

#End of data_20116-ICSD


