data_67280-ICSD
#?2014 by Fachinformationszentrum Karlsruhe, and the U.S. Secretary of 
#Commerce on behalf of the United States.  All rights reserved.
_database_code_ICSD                67280
_audit_creation_date               1990/12/27
_chemical_name_systematic          'Pentasodium Tetratelluridoindate'
_chemical_formula_structural       'Na5 In Te4'
_chemical_formula_sum              'In1 Na5 Te4'
_publ_section_title
;
Na5InTe4 und Na5In2Te6 - Erste Beispiele fuer Neso- sowie Ditelluro-
verbrueckte Inotelluroindate
;
loop_
_citation_id
_citation_journal_abbrev
_citation_year
_citation_journal_volume
_citation_page_first
_citation_page_last
_citation_journal_id_ASTM
primary 'Zeitschrift fuer Naturforschung, B: Chemical Sciences'
 1990 45 8 14 ZNBSEN
_publ_author_name
;
Eisenmann, B.;Hofmann, A.;Zagler, R.
;
_cell_length_a                     7.427(4)
_cell_length_b                     20.154(8)
_cell_length_c                     17.733(6)
_cell_angle_alpha                  90.
_cell_angle_beta                   90.
_cell_angle_gamma                  90.
_cell_volume                       2654.34
_cell_formula_units_Z              8
_symmetry_space_group_name_H-M     'P b c n'
_symmetry_Int_Tables_number        60
_refine_ls_R_factor_all            .071
loop_
_symmetry_equiv_pos_site_id
_symmetry_equiv_pos_as_xyz
  1	'x, -y, z+.5'
  2	'-x+.5, y+.5, z'
  3	'x+.5, y+.5, -z+.5'
  4	'-x, -y, -z'
  5	'-x, y, -z+.5'
  6	'x+.5, -y+.5, -z'
  7	'-x+.5, -y+.5, z+.5'
  8	'x, y, z'
loop_
_atom_type_symbol
_atom_type_oxidation_number
In3+	3
Na1+	1
Te2-	-2
loop_
_atom_site_label
_atom_site_type_symbol
_atom_site_symmetry_multiplicity
_atom_site_Wyckoff_symbol
_atom_site_fract_x
_atom_site_fract_y
_atom_site_fract_z
_atom_site_occupancy
_atom_site_attached_hydrogens
_atom_site_U_iso_or_equiv
Na1 Na1+ 4 a 0 0 0 1. 0 0.055(11) 
Na2 Na1+ 4 c 0 0.1280(9) 0.25 1. 0 0.0512(99) 
Na3 Na1+ 8 d 0.1683(18) 0.3824(6) 0.4153(7) 1. 0 0.0486(68) 
Na4 Na1+ 8 d 0.9749(14) 0.2342(5) 0.4914(7) 1. 0 0.0381(59) 
Na5 Na1+ 8 d 0.3185(20) 0.0030(6) 0.6693(7) 1. 0 0.0547(75) 
Na6 Na1+ 8 d 0.3262(22) 0.2608(7) 0.1807(7) 1. 0 0.0639(87) 
In1 In3+ 8 d 0.3585(2) 0.1211(1) 0.4119(1) 1. 0 0.0222(8) 
Te1 Te2- 8 d 0.2232(2) 0.0113(1) 0.3384(1) 1. 0 0.0240(8) 
Te2 Te2- 8 d 0.2381(2) 0.1242(1) 0.5621(1) 1. 0 0.0262(8) 
Te3 Te2- 8 d 0.2324(2) 0.2395(1) 0.3481(1) 1. 0 0.0268(8) 
Te4 Te2- 8 d 0.2675(2) 0.1291(1) 0.0865(1) 1. 0 0.0281(8) 

#End of data_67280-ICSD


