data_419852-ICSD
#?2014 by Fachinformationszentrum Karlsruhe, and the U.S. Secretary of 
#Commerce on behalf of the United States.  All rights reserved.
_database_code_ICSD                419852
_audit_creation_date               2013/02/01
_chemical_name_systematic          'Pentalithium Oxotrichloride'
_chemical_formula_structural       'Li (Li4 O) Cl3'
_chemical_formula_sum              'Cl3 Li5 O1'
_publ_section_title
;
Li5 O Cl3 and Li3 O Cl: Two remarkably different lithium oxide 
chlorides
;
loop_
_citation_id
_citation_journal_abbrev
_citation_year
_citation_journal_volume
_citation_journal_issue
_citation_page_first
_citation_page_last
_citation_journal_id_ASTM
primary 'Zeitschrift fuer Anorganische und Allgemeine Chemie (1950) (DE)'
 2012 638 12-13 2081 2086 ZAACAB
_publ_author_name
;
Reckeweg, O.;Blaschkowski, B.;Schleid, T.
;
_cell_length_a                     6.8528(3)
_cell_length_b                     6.8528(3)
_cell_length_c                     10.9324(5)
_cell_angle_alpha                  90.00
_cell_angle_beta                   90.00
_cell_angle_gamma                  90.00
_cell_volume                       513.39
_cell_formula_units_Z              4
_symmetry_space_group_name_H-M     'I 4/m c m'
_symmetry_Int_Tables_number        140
_refine_ls_R_factor_all            .0359
loop_
_symmetry_equiv_pos_site_id
_symmetry_equiv_pos_as_xyz
  1	'y, x, -z+.5'
  2	'-y, -x, -z+.5'
  3	'-y, x, -z'
  4	'y, -x, -z'
  5	'x, -y, -z+.5'
  6	'-x, y, -z+.5'
  7	'x, y, -z'
  8	'-x, -y, -z'
  9	'-y, -x, z+.5'
 10	'y, x, z+.5'
 11	'y, -x, z'
 12	'-y, x, z'
 13	'-x, y, z+.5'
 14	'x, -y, z+.5'
 15	'-x, -y, z'
 16	'x, y, z'
 17	'y+.5, x+.5, -z'
 18	'-y+.5, -x+.5, -z'
 19	'-y+.5, x+.5, -z+.5'
 20	'y+.5, -x+.5, -z+.5'
 21	'x+.5, -y+.5, -z'
 22	'-x+.5, y+.5, -z'
 23	'x+.5, y+.5, -z+.5'
 24	'-x+.5, -y+.5, -z+.5'
 25	'-y+.5, -x+.5, z'
 26	'y+.5, x+.5, z'
 27	'y+.5, -x+.5, z+.5'
 28	'-y+.5, x+.5, z+.5'
 29	'-x+.5, y+.5, z'
 30	'x+.5, -y+.5, z'
 31	'-x+.5, -y+.5, z+.5'
 32	'x+.5, y+.5, z+.5'
loop_
_atom_type_symbol
_atom_type_oxidation_number
Cl1-	-1
Li1+	1
O2-	-2
loop_
_atom_site_label
_atom_site_type_symbol
_atom_site_symmetry_multiplicity
_atom_site_Wyckoff_symbol
_atom_site_fract_x
_atom_site_fract_y
_atom_site_fract_z
_atom_site_occupancy
_atom_site_attached_hydrogens
_atom_site_U_iso_or_equiv
Li1 Li1+ 4 c 0.0000 0.0000 0.0000 1 0 0.037(3) 
Li2 Li1+ 16 l 0.1360(6) 0.6360(6) 0.3488(7) 1 0 0.0334(13) 
O1 O2- 4 b 0.0000 0.5000 0.2500 1 0 0.0133(9) 
Cl1 Cl1- 4 a 0.0000 0.0000 0.2500 1 0 0.0195(5) 
Cl2 Cl1- 8 h 0.17934(7) 0.67934(7) 0.0000 1 0 0.0061(5) 

loop_
_atom_site_aniso_label
_atom_site_aniso_type_symbol
_atom_site_aniso_U_11
_atom_site_aniso_U_22
_atom_site_aniso_U_33
_atom_site_aniso_U_12
_atom_site_aniso_U_13
_atom_site_aniso_U_23
Li1 Li1+ 0.035(4) 0.035(4) 0.042(7) 0.000 0.000 0.000
Li2 Li1+ 0.0330(18) 0.0330(18) 0.034(3) -0.010(3) -0.0021(19) -0.0021(19)
O1 O2- 0.0130(12) 0.0130(12) 0.0139(16) 0.000 0.000 0.000
Cl1 Cl1- 0.0201(6) 0.0201(6) 0.0181(7) 0.000 0.000 0.000
Cl2 Cl1- 0.0056(5) 0.0056(5) 0.0071(6) -0.0005(2) 0.000 0.000
#End of data_419852-ICSD


