data_94387-ICSD
#?2014 by Fachinformationszentrum Karlsruhe, and the U.S. Secretary of 
#Commerce on behalf of the United States.  All rights reserved.
_database_code_ICSD                94387
_audit_creation_date               2003/10/01
_chemical_name_systematic          'Tripotassium Pentacopper(I) Oxide'
_chemical_formula_structural       'K3 Cu5 O4'
_chemical_formula_sum              'Cu5 K3 O4'
_publ_section_title
;
Untersuchungen zur Reaktivitt in den Systemen A/Cu/M/O (A = Na-Cs und 
M = Co, Ni, Cu, Ag). Synthese und Kristallstrukturen von K3 Cu5 O4 
und Cs3 Cu5 O4
;
loop_
_citation_id
_citation_journal_abbrev
_citation_year
_citation_journal_volume
_citation_page_first
_citation_page_last
_citation_journal_id_ASTM
primary 'Zeitschrift fuer Anorganische und Allgemeine Chemie (1950) (DE)'
 2001 627 1192 1198 ZAACAB
_publ_author_name                  'Moeller, A.'
_cell_length_a                     9.460(1)
_cell_length_b                     7.3561(6)
_cell_length_c                     14.013(2)
_cell_angle_alpha                  90
_cell_angle_beta                   107.21(1)
_cell_angle_gamma                  90
_cell_volume                       931.49
_cell_formula_units_Z              4
_symmetry_space_group_name_H-M     'P 1 21/c 1'
_symmetry_Int_Tables_number        14
_refine_ls_R_factor_all            .0468
loop_
_symmetry_equiv_pos_site_id
_symmetry_equiv_pos_as_xyz
  1	'x, -y+.5, z+.5'
  2	'-x, -y, -z'
  3	'-x, y+.5, -z+.5'
  4	'x, y, z'
loop_
_atom_type_symbol
_atom_type_oxidation_number
Cu1+	1
K1+	1
O2-	-2
loop_
_atom_site_label
_atom_site_type_symbol
_atom_site_symmetry_multiplicity
_atom_site_Wyckoff_symbol
_atom_site_fract_x
_atom_site_fract_y
_atom_site_fract_z
_atom_site_occupancy
_atom_site_attached_hydrogens
_atom_site_U_iso_or_equiv
K1 K1+ 4 e 0.0945(2) 0.1595(2) 0.0901(1) 1. 0 0.0163(3) 
K2 K1+ 4 e 0.7305(2) 0.2316(2) 0.4195(1) 1. 0 0.0192(4) 
K3 K1+ 4 e 0.6742(2) -0.0785(3) 0.1029(2) 1. 0 0.0350(5) 
Cu1 Cu1+ 4 e 0.06201(9) 0.0877(1) 0.38609(7) 1. 0 0.0154(2) 
Cu2 Cu1+ 4 e 0.43603(9) 0.0535(1) 0.23442(7) 1. 0 0.0154(2) 
Cu3 Cu1+ 4 e 0.06390(9) 0.8349(1) 0.24533(7) 1. 0 0.0155(2) 
Cu4 Cu1+ 4 e 0.55678(9) 0.8083(1) 0.38795(7) 1. 0 0.0167(2) 
Cu5 Cu1+ 4 e 0.30874(9) -0.0476(1) 0.3762(7) 1. 0 0.0158(2) 
O1 O2- 4 e 0.4877(5) 0.0443(7) 0.3716(4) 1. 0 0.0165(11) 
O2 O2- 4 e 0.1327(5) 0.8530(7) 0.3838(4) 1. 0 0.0156(11) 
O3 O2- 4 e 0.0013(5) 0.3187(7) 0.3904(4) 1. 0 0.0189(11) 
O4 O2- 4 e 0.3847(5) 0.0702(7) 0.0981(4) 1. 0 0.0188(11) 

loop_
_atom_site_aniso_label
_atom_site_aniso_type_symbol
_atom_site_aniso_U_11
_atom_site_aniso_U_22
_atom_site_aniso_U_33
_atom_site_aniso_U_12
_atom_site_aniso_U_13
_atom_site_aniso_U_23
K1 K1+ 0.0162(7) 0.0149(8) 0.0178(9) 0.0029(6) 0.0050(6) 0.0014(7)
K2 K1+ 0.0158(7) 0.0187(8) 0.0210(9) -0.0019(6) 0.0018(6) 0.0040(7)
K3 K1+ 0.0391(10) 0.0460(12) 0.0195(10) 0.0215(9) 0.0078(8) 0.0028(9)
Cu1 Cu1+ 0.0155(4) 0.0144(5) 0.0162(5) 0.0018(3) 0.0046(4) -0.0005(4)
Cu2 Cu1+ 0.0158(4) 0.0165(5) 0.0126(5) -0.0017(3) 0.0021(4) -0.0004(4)
Cu3 Cu1+ 0.0181(4) 0.0157(4) 0.0126(5) -0.0020(3) 0.0042(4) 0.0003(4)
Cu4 Cu1+ 0.0146(4) 0.0159(5) 0.0193(5) 0.0010(3) 0.0044(4) 0.0012(4)
Cu5 Cu1+ 0.0143(4) 0.0143(4) 0.0196(5) -0.0002(3) 0.0063(4) 0.0023(4)
O1 O2- 0.0184(23) 0.0126(24) 0.0181(29) -0.0019(20) 0.0050(21) 0.0032(22)
O2 O2- 0.0158(22) 0.0178(26) 0.0140(27) -0.0040(19) 0.0056(20) 0.0003(22)
O3 O2- 0.0219(24) 0.0201(28) 0.0118(26) 0.0074(21) 0.0004(21) -0.0022(23)
O4 O2- 0.0190(23) 0.0222(28) 0.0142(28) -0.0041(21) 0.0034(21) -0.0033(23)
#End of data_94387-ICSD


