data_2479-ICSD
#?2014 by Fachinformationszentrum Karlsruhe, and the U.S. Secretary of 
#Commerce on behalf of the United States.  All rights reserved.
_database_code_ICSD                2479
_audit_creation_date               1980/01/01
_audit_update_record               1999/05/18
_chemical_name_systematic          'Tetrasodium Diiron(III) Oxide'
_chemical_formula_structural       'Na4 Fe2 O5'
_chemical_formula_sum              'Fe2 Na4 O5'
_publ_section_title                'Zur Kenntnis von Na4 Fe2 O5'
loop_
_citation_id
_citation_journal_abbrev
_citation_year
_citation_journal_volume
_citation_page_first
_citation_page_last
_citation_journal_id_ASTM
primary 'Zeitschrift fuer Anorganische und Allgemeine Chemie (1950) (DE)'
 1978 446 97 104 ZAACAB
_publ_author_name                  'Brachtel, G.;Hoppe, R.'
_cell_length_a                     11.872
_cell_length_b                     5.679
_cell_length_c                     9.178
_cell_angle_alpha                  90.
_cell_angle_beta                   104.5
_cell_angle_gamma                  90.
_cell_volume                       599.08
_cell_formula_units_Z              4
_symmetry_space_group_name_H-M     'P 1 21/n 1'
_symmetry_Int_Tables_number        14
_refine_ls_R_factor_all            .092
loop_
_symmetry_equiv_pos_site_id
_symmetry_equiv_pos_as_xyz
  1	'-x+.5, y+.5, -z+.5'
  2	'-x, -y, -z'
  3	'x+.5, -y+.5, z+.5'
  4	'x, y, z'
loop_
_atom_type_symbol
_atom_type_oxidation_number
Fe3+	3
Na1+	1
O2-	-2
loop_
_atom_site_label
_atom_site_type_symbol
_atom_site_symmetry_multiplicity
_atom_site_Wyckoff_symbol
_atom_site_fract_x
_atom_site_fract_y
_atom_site_fract_z
_atom_site_occupancy
_atom_site_attached_hydrogens
Na1 Na1+ 4 e 0.1205(2) -.1156(5) 0.5159(3) 1. 0 
Na2 Na1+ 4 e 0.3679(2) 0.1201 0.4911(3) 1. 0 
Na3 Na1+ 4 e 0.4624(2) 0.9115(5) 0.1628(3) 1. 0 
Na4 Na1+ 4 e 0.5364(3) 0.4264(6) 0.3378(3) 1. 0 
Fe1 Fe3+ 4 e 0.6993(1) 0.1192(1) 0.1563(1) 1. 0 
Fe2 Fe3+ 4 e 0.2018(1) 0.1507(1) 0.1571(1) 1. 0 
O1 O2- 4 e 0.5565(3) 0.2600(7) 0.1032(5) 1. 0 
O2 O2- 4 e 0.4454(3) 0.7605(7) 0.4417(5) 1. 0 
O3 O2- 4 e 0.8187(4) 0.3420(8) 0.2357(5) 1. 0 
O4 O2- 4 e 0.7450(4) 0.0094(8) 0.9895(5) 1. 0 
O5 O2- 4 e 0.3021(4) 0.4150(8) 0.1987(5) 1. 0 

loop_
_atom_site_aniso_label
_atom_site_aniso_type_symbol
_atom_site_aniso_U_11
_atom_site_aniso_U_22
_atom_site_aniso_U_33
_atom_site_aniso_U_12
_atom_site_aniso_U_13
_atom_site_aniso_U_23
Na1 Na1+ 0.0143(13) 0.0141(12) 0.0114(11) -.0012(9) 0.0041(9) -.0016(9)
Na2 Na1+ 0.0143(12) 0.0159(12) 0.0194(13) -.0029(10) 0.004(1) -.0047(10)
Na3 Na1+ 0.0200(14) 0.0184(13) 0.0182(14) -.0033(10) 0.0068(11) 0.0037(10)
Na4 Na1+ 0.0269(15) 0.0160(13) 0.0139(13) 0.0058(11) 0.0085(11) -.0022(10)
Fe1 Fe3+ 0.0102(4) 0.0056(3) 0.0053(4) 0.0005(3) 0.0031(3) -.0004(2)
Fe2 Fe3+ 0.0110(4) 0.0045(3) 0.0056(4) 0.0007(3) 0.0040(3) 0.0001(2)
O1 O2- 0.0221(19) 0.0168(18) 0.0226(20) 0.0021(15) 0.0073(16) -.0006(16)
O2 O2- 0.0175(18) 0.0203(20) 0.0261(21) -.0026(15) 0.0049(16) -.0062(17)
O3 O2- 0.0321(22) 0.0251(22) 0.0145(18) -.0048(17) 0.0066(16) -.0081(16)
O4 O2- 0.0457(27) 0.0278(24) 0.0205(21) -.0051(21) 0.0205(20) -.0134(18)
O5 O2- 0.0306(22) 0.0246(21) 0.0227(20) -.0081(18) 0.0167(17) -.0062(17)
#End of data_2479-ICSD


