data_34652-ICSD
#?2014 by Fachinformationszentrum Karlsruhe, and the U.S. Secretary of 
#Commerce on behalf of the United States.  All rights reserved.
_database_code_ICSD                34652
_audit_creation_date               1980/01/01
_audit_update_record               1987/11/11
_chemical_name_systematic          'Sodium Borate *'
_chemical_formula_structural       'Na B (O H)4 (H2 O)2'
_chemical_formula_sum              'H8 B1 Na1 O6'
_publ_section_title
;
The direct determination of the crystal structure of Na B (O H)4 (H2 
O)2
;
loop_
_citation_id
_citation_journal_abbrev
_citation_year
_citation_journal_volume
_citation_page_first
_citation_page_last
_citation_journal_id_ASTM
primary 'Acta Crystallographica (1,1948-23,1967)' 1963 16 1233 1238 ACCRA9
_publ_author_name                  'Block, S.;Perloff, A.'
_cell_length_a                     6.126(8)
_cell_length_b                     8.180(8)
_cell_length_c                     6.068(8)
_cell_angle_alpha                  67.92(10)
_cell_angle_beta                   110.58(10)
_cell_angle_gamma                  101.85(10)
_cell_volume                       262.85
_cell_formula_units_Z              2
_symmetry_space_group_name_H-M     'P -1'
_symmetry_Int_Tables_number        2
_refine_ls_R_factor_all            .133
loop_
_symmetry_equiv_pos_site_id
_symmetry_equiv_pos_as_xyz
  1	'-x, -y, -z'
  2	'x, y, z'
loop_
_atom_type_symbol
_atom_type_oxidation_number
B3+	3
H1+	1
Na1+	1
O2-	-2
loop_
_atom_site_label
_atom_site_type_symbol
_atom_site_symmetry_multiplicity
_atom_site_Wyckoff_symbol
_atom_site_fract_x
_atom_site_fract_y
_atom_site_fract_z
_atom_site_occupancy
_atom_site_attached_hydrogens
_atom_site_B_iso_or_equiv
Na1 Na1+ 2 i 0.2412 0.1149 0.3692 1. 0 1.61(10) 
O1 O2- 2 i 0.212 0.219 0.9214 1. 0 1.32(10) 
O2 O2- 2 i 0.764 0.4608 0.2661 1. 0 1.1(1) 
O3 O2- 2 i 0.561 0.3644 0.8375 1. 0 1.12(10) 
O4 O2- 2 i 0.221 0.3663 0.4879 1. 0 1.09(10) 
O5 O2- 2 i 0.8158 0.07 0.2213 1. 0 1.77(10) 
O6 O2- 2 i 0.6691 0.1604 0.6088 1. 0 2.04(10) 
B1 B3+ 2 i 0.3047 0.3728 0.7439 1. 0 0.92(10) 
H1 H1+ 2 i 0.69 0.12 0.09 1. 0 3.7(1) 
H2 H1+ 2 i 0.72 0.26 0.49 1. 0 1.6(1) 
H3 H1+ 2 i 0.71 0.41 0.15 1. 0 2.9(1) 
H4 H1+ 2 i 0.93 0.78 0.15 1. 0 0 
H5 H1+ 2 i 0.74 0.98 0.16 1. 0 0 
H6 H1+ 2 i 0.45 0.57 0.2 1. 0 2.1 
H7 H1+ 2 i 0.06 0.39 0.42 1. 0 0 
H8 H1+ 2 i 0.39 0.82 0.28 1. 0 3. 

#End of data_34652-ICSD


