data_619292-ICSD
#?2014 by Fachinformationszentrum Karlsruhe, and the U.S. Secretary of 
#Commerce on behalf of the United States.  All rights reserved.
_database_code_ICSD                619292
_audit_creation_date               2012/02/01
_chemical_name_systematic          'Calcium Gallium Sulfide (1/2/4)'
_chemical_formula_structural       'Ca Ga2 S4'
_chemical_formula_sum              'Ca1 Ga2 S4'
_publ_section_title                'Alkaline earth metal thiogallates'
loop_
_citation_id
_citation_journal_abbrev
_citation_year
_citation_journal_volume
_citation_journal_issue
_citation_page_first
_citation_page_last
_citation_journal_id_ASTM
primary 'Russian Journal of Inorganic Chemistry' 1980 25 4 515 518 RJICAQ
_publ_author_name
;
Ivanov-Emin, B.N.;Ivlieva, V.I.;Filatenko, L.A.;Sarabiya, 
M.G.;Kaziev, G.Z.;Zaitsev, B.E.
;
_cell_length_a                     6.066(5)
_cell_length_b                     10.021(5)
_cell_length_c                     10.060(5)
_cell_angle_alpha                  90.0
_cell_angle_beta                   90.0
_cell_angle_gamma                  90.0
_cell_volume                       611.52
_cell_formula_units_Z              4
_symmetry_space_group_name_H-M     'C c c m'
_symmetry_Int_Tables_number        66
loop_
_symmetry_equiv_pos_site_id
_symmetry_equiv_pos_as_xyz
  1	'-x, y, z+.5'
  2	'x, -y, z+.5'
  3	'x, y, -z'
  4	'-x, -y, -z'
  5	'x, -y, -z+.5'
  6	'-x, y, -z+.5'
  7	'-x, -y, z'
  8	'x, y, z'
  9	'-x+.5, y+.5, z+.5'
 10	'x+.5, -y+.5, z+.5'
 11	'x+.5, y+.5, -z'
 12	'-x+.5, -y+.5, -z'
 13	'x+.5, -y+.5, -z+.5'
 14	'-x+.5, y+.5, -z+.5'
 15	'-x+.5, -y+.5, z'
 16	'x+.5, y+.5, z'
loop_
_atom_type_symbol
_atom_type_oxidation_number
Ca2+	2
Ga3+	3
S2-	-2
loop_
_atom_site_label
_atom_site_type_symbol
_atom_site_symmetry_multiplicity
_atom_site_Wyckoff_symbol
_atom_site_fract_x
_atom_site_fract_y
_atom_site_fract_z
_atom_site_occupancy
_atom_site_attached_hydrogens
Ca1 Ca2+ 4 b 0 0.5 0.25 1. 0 
Ga1 Ga3+ 8 l 0.009 0.243 0 1. 0 
S1 S2- 8 l 0.230 0.414 0 1. 0 
S2 S2- 8 k 0.25 0.25 0.338 1. 0 

#End of data_619292-ICSD


