data_249937-ICSD
#?2014 by Fachinformationszentrum Karlsruhe, and the U.S. Secretary of 
#Commerce on behalf of the United States.  All rights reserved.
_database_code_ICSD                249937
_audit_creation_date               2010/08/01
_chemical_name_systematic
;
Potassium Phosphor Telluride (4/8/4)
;
_chemical_formula_structural       'K4 P8 Te4'
_chemical_formula_sum              'K4 P8 Te4'
_publ_section_title
;
The tellurophosphate K4 P8 Te4: Phase-change properties, exfoliation, 
photoluminescence in solution and nanospheres
;
loop_
_citation_id
_citation_journal_abbrev
_citation_year
_citation_journal_volume
_citation_journal_issue
_citation_page_first
_citation_page_last
_citation_journal_id_ASTM
primary 'Journal of the American Chemical Society' 2009 131 44 16303 16312 JACSAT
_publ_author_name
;
Chung In;Song Jungh Wan;Kim Myung Gil;Malliakas, C.D.;Karst, 
A.L.;Freeman, A.J.;Weliky, D.P.;Kanatzidis, M.G.
;
_cell_length_a                     6.9458(14)
_cell_length_b                     6.5551(13)
_cell_length_c                     9.955(2)
_cell_angle_alpha                  90.00
_cell_angle_beta                   90.420(3)
_cell_angle_gamma                  90.00
_cell_volume                       453.24
_cell_formula_units_Z              1
_symmetry_space_group_name_H-M     'P 1 21/m 1'
_symmetry_Int_Tables_number        11
_refine_ls_R_factor_all            .0397
loop_
_symmetry_equiv_pos_site_id
_symmetry_equiv_pos_as_xyz
  1	'x, -y+.5, z'
  2	'-x, -y, -z'
  3	'-x, y+.5, -z'
  4	'x, y, z'
loop_
_atom_type_symbol
_atom_type_oxidation_number
K1+	1
P.5+	.5
Te2-	-2
loop_
_atom_site_label
_atom_site_type_symbol
_atom_site_symmetry_multiplicity
_atom_site_Wyckoff_symbol
_atom_site_fract_x
_atom_site_fract_y
_atom_site_fract_z
_atom_site_occupancy
_atom_site_attached_hydrogens
_atom_site_U_iso_or_equiv
Te1 Te2- 2 e 0.70539(9) 0.2500 0.10140(6) 1 0 0.01253(19) 
Te2 Te2- 2 e 0.84806(9) 0.2500 0.73346(7) 1 0 0.0147(2) 
K1 K1+ 2 e 0.0261(3) 0.2500 0.3890(2) 1 0 0.0175(5) 
K2 K1+ 2 e 0.2211(3) 0.2500 0.0068(2) 1 0 0.0189(5) 
P1 P.5+ 4 f 0.3906(2) 0.0052(3) 0.58023(18) 1 0 0.0101(4) 
P2 P.5+ 2 e 0.4918(4) 0.2500 0.2978(3) 1 0 0.0095(5) 
P3 P.5+ 2 e 0.4927(4) 0.2500 0.7169(3) 1 0 0.0108(5) 

loop_
_atom_site_aniso_label
_atom_site_aniso_type_symbol
_atom_site_aniso_U_11
_atom_site_aniso_U_22
_atom_site_aniso_U_33
_atom_site_aniso_U_12
_atom_site_aniso_U_13
_atom_site_aniso_U_23
Te1 Te2- 0.0134(4) 0.0099(3) 0.0143(4) 0.000 0.0043(2) 0.000
Te2 Te2- 0.0127(3) 0.0144(4) 0.0171(4) 0.000 -0.0009(2) 0.000
K1 K1+ 0.0121(11) 0.0169(12) 0.0236(12) 0.000 0.0023(9) 0.000
K2 K1+ 0.0186(12) 0.0142(11) 0.0240(13) 0.000 0.0018(9) 0.000
P1 P.5+ 0.0104(8) 0.0047(8) 0.0153(9) -0.0009(6) 0.0026(6) 0.0003(7)
P2 P.5+ 0.0098(12) 0.0044(11) 0.0142(13) 0.000 0.0012(9) 0.000
P3 P.5+ 0.0131(12) 0.0055(12) 0.0137(13) 0.000 0.0021(10) 0.000
#End of data_249937-ICSD


