data_152065-ICSD
#?2014 by Fachinformationszentrum Karlsruhe, and the U.S. Secretary of 
#Commerce on behalf of the United States.  All rights reserved.
_database_code_ICSD                152065
_audit_creation_date               2006/10/01
_chemical_name_systematic
;
Lithium Gallium Catena-disilicate - Lt
;
_chemical_formula_structural       'Li Ga (Si2 O6)'
_chemical_formula_sum              'Ga1 Li1 O6 Si2'
_chemical_name_mineral             Clinopyroxene
_publ_section_title
;
Structural changes upon the temperature dependent C2/c - P21/c phase 
transition in Li Me(3+) Si2 O6 clinopyroxenes, Me = Cr, Ga, Fe, V, Sc 
and In
;
loop_
_citation_id
_citation_journal_abbrev
_citation_year
_citation_journal_volume
_citation_page_first
_citation_page_last
_citation_journal_id_ASTM
primary 'Zeitschrift fuer Kristallographie (1979-2010)' 2004 219 585 605 ZEKRDZ
_publ_author_name                  'Redhammer, G.J.;Roth, G.'
_cell_length_a                     9.537(3)
_cell_length_b                     8.593(2)
_cell_length_c                     5.228(2)
_cell_angle_alpha                  90.
_cell_angle_beta                   109.80(3)
_cell_angle_gamma                  90.
_cell_volume                       403.11
_cell_formula_units_Z              4
_symmetry_space_group_name_H-M     'P 1 21/c 1'
_symmetry_Int_Tables_number        14
_refine_ls_R_factor_all            .0257
loop_
_symmetry_equiv_pos_site_id
_symmetry_equiv_pos_as_xyz
  1	'x, -y+.5, z+.5'
  2	'-x, -y, -z'
  3	'-x, y+.5, -z+.5'
  4	'x, y, z'
loop_
_atom_type_symbol
_atom_type_oxidation_number
Ga3+	3
Li1+	1
O2-	-2
Si4+	4
loop_
_atom_site_label
_atom_site_type_symbol
_atom_site_symmetry_multiplicity
_atom_site_Wyckoff_symbol
_atom_site_fract_x
_atom_site_fract_y
_atom_site_fract_z
_atom_site_occupancy
_atom_site_attached_hydrogens
_atom_site_U_iso_or_equiv
Li1 Li1+ 4 e 0.2491(13) 0.0106(8) 0.2354(16) 1. 0 0.006(1) 
Ga1 Ga3+ 4 e 0.2503(1) 0.6508(1) 0.2332(1) 1. 0 0.0013(1) 
Si1 Si4+ 4 e 0.0476(1) 0.3409(2) 0.2733(2) 1. 0 0.0009(3) 
Si2 Si4+ 4 e 0.5495(1) 0.8398(2) 0.2469(2) 1. 0 0.0015(3) 
O1 O2- 4 e 0.6060(3) 0.7193(4) 0.5039(5) 1. 0 0.0026(6) 
O2 O2- 4 e 0.1101(4) 0.2672(4) 0.5809(6) 1. 0 0.0035(6) 
O3 O2- 4 e 0.6222(4) 0.0053(4) 0.3551(6) 1. 0 0.0035(7) 
O4 O2- 4 e 0.1149(4) 0.5123(4) 0.3100(6) 1. 0 0.0035(7) 
O5 O2- 4 e 0.3655(4) 0.8327(5) 0.1292(5) 1. 0 0.0024(6) 
O6 O2- 4 e 0.8641(4) 0.3331(5) 0.1596(5) 1. 0 0.0026(6) 

#End of data_152065-ICSD


