data_200524-ICSD
#?2014 by Fachinformationszentrum Karlsruhe, and the U.S. Secretary of 
#Commerce on behalf of the United States.  All rights reserved.
_database_code_ICSD                200524
_audit_creation_date               1980/01/01
_audit_update_record               2008/02/01
_chemical_name_systematic          'Lithium Rubidium Sulfate(VI)'
_chemical_formula_structural       'Li Rb (S O4)'
_chemical_formula_sum              'Li1 O4 Rb1 S1'
_publ_section_title
;
Crystal structure of double lithium-rubidium sulfate
;
loop_
_citation_id
_citation_journal_abbrev
_citation_year
_citation_journal_volume
_citation_journal_issue
_citation_page_first
_citation_page_last
_citation_journal_id_ASTM
primary Kristallografiya 1979 24- 582 585 KRISAJ
2 'Soviet Physics, Crystallography (= Kristallografiya)'
 1979 24- 333 336 SPHCA6
3 'Golden Book of Phase Transitions, Wroclaw' 2002 1 10 1 123 GBOPT5
_publ_author_name
;
Kruglik, A.I.;Misjul', S.V.;Simonov, M.A.
;
_cell_length_a                     9.118(1)
_cell_length_b                     5.294(3)
_cell_length_c                     8.738(2)
_cell_angle_alpha                  90.
_cell_angle_beta                   90.
_cell_angle_gamma                  89.53(1)
_cell_volume                       421.78
_cell_formula_units_Z              4
_symmetry_space_group_name_H-M     'P 1 1 21/n'
_symmetry_Int_Tables_number        14
_refine_ls_R_factor_all            .064
loop_
_symmetry_equiv_pos_site_id
_symmetry_equiv_pos_as_xyz
  1	'x+.5, y+.5, -z+.5'
  2	'-x, -y, -z'
  3	'-x+.5, -y+.5, z+.5'
  4	'x, y, z'
loop_
_atom_type_symbol
_atom_type_oxidation_number
Li1+	1
O2-	-2
Rb1+	1
S6+	6
loop_
_atom_site_label
_atom_site_type_symbol
_atom_site_symmetry_multiplicity
_atom_site_Wyckoff_symbol
_atom_site_fract_x
_atom_site_fract_y
_atom_site_fract_z
_atom_site_occupancy
_atom_site_attached_hydrogens
Rb1 Rb1+ 4 e 0.2772(1) 0.7356(2) 0.0040(1) 1. 0 
Li1 Li1+ 4 e 0.411(2) 0.257(3) 0.324(2) 1. 0 
S1 S6+ 4 e 0.0778(3) 0.2535(6) 0.2063(3) 1. 0 
O1 O2- 4 e 0.0915(16) 0.245(2) 0.0406(12) 1. 0 
O2 O2- 4 e 0.0478(11) -.002(2) 0.2667(11) 1. 0 
O3 O2- 4 e 0.2135(10) 0.350(2) 0.2739(13) 1. 0 
O4 O2- 4 e -.0449(11) 0.420(2) 0.2469(11) 1. 0 

#End of data_200524-ICSD


