data_65620-ICSD
#?2014 by Fachinformationszentrum Karlsruhe, and the U.S. Secretary of 
#Commerce on behalf of the United States.  All rights reserved.
_database_code_ICSD                65620
_audit_creation_date               1990/06/08
_audit_update_record               2012/02/01
_chemical_name_systematic
;
Potassium Neodymium Bis(sulfate(VI))
;
_chemical_formula_structural       'K Nd (S O4)2'
_chemical_formula_sum              'K1 Nd1 O8 S2'
_publ_section_title
;
Crystal structure of the monoclinic modification of K Nd (S O4)2
;
loop_
_citation_id
_citation_journal_abbrev
_citation_year
_citation_journal_volume
_citation_page_first
_citation_page_last
_citation_journal_id_ASTM
primary 'Zhurnal Strukturnoi Khimii (Issue-No. from 1981)'
 1988 29 95 99 ZSTKAI
_publ_author_name
;
Iskhakova, L.D.;Gasanov, Yu.M.;Trunov, V.K.
;
_cell_length_a                     8.551(1)
_cell_length_b                     7.159(1)
_cell_length_c                     10.679(1)
_cell_angle_alpha                  90.
_cell_angle_beta                   92.42(1)
_cell_angle_gamma                  90.
_cell_volume                       653.15
_cell_formula_units_Z              4
_symmetry_space_group_name_H-M     'P 1 21/c 1'
_symmetry_Int_Tables_number        14
_refine_ls_R_factor_all            .037
loop_
_symmetry_equiv_pos_site_id
_symmetry_equiv_pos_as_xyz
  1	'x, -y+.5, z+.5'
  2	'-x, -y, -z'
  3	'-x, y+.5, -z+.5'
  4	'x, y, z'
loop_
_atom_type_symbol
_atom_type_oxidation_number
K1+	1
Nd3+	3
O2-	-2
S6+	6
loop_
_atom_site_label
_atom_site_type_symbol
_atom_site_symmetry_multiplicity
_atom_site_Wyckoff_symbol
_atom_site_fract_x
_atom_site_fract_y
_atom_site_fract_z
_atom_site_occupancy
_atom_site_attached_hydrogens
_atom_site_B_iso_or_equiv
Nd1 Nd3+ 4 e -.05820(3) 0.16995(4) 0.15056(3) 1. 0 0.54 
K1 K1+ 4 e 0.4366(2) 0.3537(2) 0.1565(1) 1. 0 1.37 
S1 S6+ 4 e 0.1866(2) 0.1668(2) 0.3905(1) 1. 0 0.63 
S2 S6+ 4 e 0.7229(2) 0.3430(2) 0.4087(1) 1. 0 0.68 
O1 O2- 4 e 0.1271(6) 0.3198(6) 0.0165(4) 1. 0 1.01 
O2 O2- 4 e 0.3531(5) 0.1404(6) 0.3920(4) 1. 0 1.07 
O3 O2- 4 e 0.1402(5) 0.3344(6) 0.3124(4) 1. 0 0.83 
O4 O2- 4 e 0.0999(5) 0.0133(7) 0.3230(4) 1. 0 0.99 
O5 O2- 4 e 0.1250(5) 0.9437(7) 0.0641(4) 1. 0 1.03 
O6 O2- 4 e 0.7472(6) 0.2017(6) 0.3119(4) 1. 0 1.12 
O7 O2- 4 e 0.6955(5) 0.2497(7) 0.0302(4) 1. 0 0.93 
O8 O2- 4 e 0.6027(5) 0.4718(7) 0.3689(4) 1. 0 1.27 

#End of data_65620-ICSD


