data_16085-ICSD
#?2014 by Fachinformationszentrum Karlsruhe, and the U.S. Secretary of 
#Commerce on behalf of the United States.  All rights reserved.
_database_code_ICSD                16085
_audit_creation_date               1980/01/01
_audit_update_record               2010/02/01
_chemical_name_systematic          'Tetraeuropium Dialuminium Oxide'
_chemical_formula_structural       'Eu4 Al2 O9'
_chemical_formula_sum              'Al2 Eu4 O9'
_publ_section_title
;
The crystal structure of Eu4 Al2 O9
;
loop_
_citation_id
_citation_journal_abbrev
_citation_year
_citation_journal_volume
_citation_page_first
_citation_page_last
_citation_journal_id_ASTM
primary 'Inorganic Chemistry' 1969 8 1320 1324 INOCAJ
_publ_author_name                  'Brandle, C.D.;Steinfink, H.'
_cell_length_a                     7.608(4)
_cell_length_b                     10.616(5)
_cell_length_c                     11.101(8)
_cell_angle_alpha                  90.
_cell_angle_beta                   108.50(9)
_cell_angle_gamma                  90.
_cell_volume                       850.26
_cell_formula_units_Z              4
_symmetry_space_group_name_H-M     'P 1 21/c 1'
_symmetry_Int_Tables_number        14
_refine_ls_R_factor_all            .053
loop_
_symmetry_equiv_pos_site_id
_symmetry_equiv_pos_as_xyz
  1	'x, -y+.5, z+.5'
  2	'-x, -y, -z'
  3	'-x, y+.5, -z+.5'
  4	'x, y, z'
loop_
_atom_type_symbol
_atom_type_oxidation_number
Al3+	3
Eu3+	3
O2-	-2
loop_
_atom_site_label
_atom_site_type_symbol
_atom_site_symmetry_multiplicity
_atom_site_Wyckoff_symbol
_atom_site_fract_x
_atom_site_fract_y
_atom_site_fract_z
_atom_site_occupancy
_atom_site_attached_hydrogens
_atom_site_B_iso_or_equiv
Al1 Al3+ 4 e 0.2223(7) 0.1880(4) 0.1299(5) 1. 0 -.01 
Al2 Al3+ 4 e 0.6538(7) 0.1855(4) 0.1174(5) 1. 0 0.03 
Eu1 Eu3+ 4 e 0.5242(1) 0.1035(1) 0.7870(1) 1. 0 0.17 
Eu2 Eu3+ 4 e 0.0252(1) 0.0890(1) 0.8088(1) 1. 0 0.16 
Eu3 Eu3+ 4 e 0.3349(1) 0.1251(1) 0.4310(1) 1. 0 0.23 
Eu4 Eu3+ 4 e 0.8366(1) 0.1226(1) 0.4144(2) 1. 0 0.19 
O1 O2- 4 e 0.7866(16) 0.2276(11) 0.7481(12) 1. 0 0.35 
O2 O2- 4 e 0.2320(18) 0.2291(12) 0.7651(14) 1. 0 0.32 
O3 O2- 4 e 0.2156(19) 0.0280(13) 0.1640(15) 1. 0 0.42 
O4 O2- 4 e 0.0739(16) 0.2345(11) 0.9803(13) 1. 0 0.4 
O5 O2- 4 e 0.4311(19) 0.2403(11) 0.1151(14) 1. 0 0.23 
O6 O2- 4 e 0.6372(18) 0.2292(12) 0.9624(14) 1. 0 0.28 
O7 O2- 4 e 0.6987(20) 0.0297(13) 0.1668(15) 1. 0 0.49 
O8 O2- 4 e 0.0774(22) -.0061(13) 0.3915(16) 1. 0 0.5 
O9 O2- 4 e 0.5655(21) 0.0063(12) 0.3937(15) 1. 0 0.47 

#End of data_16085-ICSD


