data_250187-ICSD
#?2014 by Fachinformationszentrum Karlsruhe, and the U.S. Secretary of 
#Commerce on behalf of the United States.  All rights reserved.
_database_code_ICSD                250187
_audit_creation_date               2005/04/01
_chemical_name_systematic
;
Hexaaquamagnesium Bis(dihydrogenphosphate(I))
;
_chemical_formula_structural       '(Mg (H2 O)6) (H2 P O2)2'
_chemical_formula_sum              'H16 Mg1 O10 P2'
_publ_section_title
;
The synthesis and crystal structure of two polymorphs of 
hexaaquamagnesium(II) hypophosphite
;
loop_
_citation_id
_citation_journal_abbrev
_citation_year
_citation_journal_volume
_citation_page_first
_citation_page_last
_citation_journal_id_ASTM
primary 'Zhurnal Strukturnoi Khimii (Issue-No. from 1981)'
 2004 45 296 301 ZSTKAI
_publ_author_name
;
Kuratieva, N.V.;Naumova, M.I.;Naumov, D.Yu.;Podberezskaya, N.V.
;
_cell_length_a                     7.2187(9)
_cell_length_b                     7.2187(9)
_cell_length_c                     10.4639(13)
_cell_angle_alpha                  90
_cell_angle_beta                   90
_cell_angle_gamma                  90
_cell_volume                       545.27
_cell_formula_units_Z              2
_symmetry_space_group_name_H-M     'P 42/n m c Z'
_symmetry_Int_Tables_number        137
_refine_ls_R_factor_all            .0209
loop_
_symmetry_equiv_pos_site_id
_symmetry_equiv_pos_as_xyz
  1	'y+.5, x+.5, -z+.5'
  2	'-y, x+.5, -z+.5'
  3	'y+.5, -x, -z+.5'
  4	'-y, -x, -z+.5'
  5	'x+.5, y+.5, -z'
  6	'-x, y+.5, -z'
  7	'x+.5, -y, -z'
  8	'-x, -y, -z'
  9	'-y+.5, -x+.5, z+.5'
 10	'y, -x+.5, z+.5'
 11	'-y+.5, x, z+.5'
 12	'y, x, z+.5'
 13	'-x+.5, -y+.5, z'
 14	'x, -y+.5, z'
 15	'-x+.5, y, z'
 16	'x, y, z'
loop_
_atom_type_symbol
_atom_type_oxidation_number
H1+	1
Mg2+	2
O2-	-2
P1+	1
loop_
_atom_site_label
_atom_site_type_symbol
_atom_site_symmetry_multiplicity
_atom_site_Wyckoff_symbol
_atom_site_fract_x
_atom_site_fract_y
_atom_site_fract_z
_atom_site_occupancy
_atom_site_attached_hydrogens
_atom_site_U_iso_or_equiv
Mg1 Mg2+ 2 a 0.25 0.75 0.25 1. 0 0.0319(4) 
P1 P1+ 4 d 0.25 0.25 0.50851(9) 1. 0 0.0335(3) 
O1 O2- 8 g 0.25 0.4273(2) 0.58483(15) 1. 0 0.0368(5) 
H1 H1+ 8 g 0.101(3) 0.25 0.4297(17) 1. 0 0.012(5) 
O2 O2- 4 c 0.25 0.75 0.0549(3) 1. 0 0.0496(8) 
O3 O2- 8 f 0.04819(19) 0.54819(19) 0.25 1. 0 0.0474(5) 
H2 H1+ 8 g 0.342(4) 0.75 0.011(2) 1. 0 0.076(13) 
H3 H1+ 16 h 0.048(3) 0.465(2) 0.2047(14) 1. 0 0.045(6) 

loop_
_atom_site_aniso_label
_atom_site_aniso_type_symbol
_atom_site_aniso_U_11
_atom_site_aniso_U_22
_atom_site_aniso_U_33
_atom_site_aniso_U_12
_atom_site_aniso_U_13
_atom_site_aniso_U_23
Mg1 Mg2+ 0.0335(6) 0.0335(6) 0.0285(8) 0 0 0
P1 P1+ 0.0428(8) 0.0298(7) 0.0280(5) 0 0 0
O1 O2- 0.0442(11) 0.0312(11) 0.0351(9) 0 0 -0.0021(9)
O2 O2- 0.0288(18) 0.090(3) 0.0302(14) 0 0 0
O3 O2- 0.0464(8) 0.0464(8) 0.0496(12) -0.0126(10) 0.0179(9) -0.0179(9)
#End of data_250187-ICSD


