data_16885-ICSD
#?2014 by Fachinformationszentrum Karlsruhe, and the U.S. Secretary of 
#Commerce on behalf of the United States.  All rights reserved.
_database_code_ICSD                16885
_audit_creation_date               1980/01/01
_audit_update_record               1988/03/30
_chemical_name_systematic          'Magnesium Diarsenate'
_chemical_formula_structural       'Mg2 As2 O7'
_chemical_formula_sum              'As2 Mg2 O7'
_publ_section_title
;
The Crystal Structure of Magnesium Pyroarsenate, Mg2 As2 O7
;
loop_
_citation_id
_citation_journal_abbrev
_citation_year
_citation_journal_volume
_citation_page_first
_citation_page_last
_citation_journal_id_ASTM
primary
;
Bulletin de l`Academie Polonaise des Sciences, Serie des Sciences 
Chimiques
;
 1963 11 361 364 BAPCAQ
_publ_author_name                  'Lukaszewicz, K.'
_cell_length_a                     6.584(3)
_cell_length_b                     8.507(4)
_cell_length_c                     4.761(2)
_cell_angle_alpha                  90.
_cell_angle_beta                   103.88(5)
_cell_angle_gamma                  90.
_cell_volume                       258.88
_cell_formula_units_Z              2
_symmetry_space_group_name_H-M     'C 1 2/m 1'
_symmetry_Int_Tables_number        12
_refine_ls_R_factor_all            .142
loop_
_symmetry_equiv_pos_site_id
_symmetry_equiv_pos_as_xyz
  1	'-x, y, -z'
  2	'-x, -y, -z'
  3	'x, -y, z'
  4	'x, y, z'
  5	'-x+.5, y+.5, -z'
  6	'-x+.5, -y+.5, -z'
  7	'x+.5, -y+.5, z'
  8	'x+.5, y+.5, z'
loop_
_atom_type_symbol
_atom_type_oxidation_number
As5+	5
Mg2+	2
O2-	-2
loop_
_atom_site_label
_atom_site_type_symbol
_atom_site_symmetry_multiplicity
_atom_site_Wyckoff_symbol
_atom_site_fract_x
_atom_site_fract_y
_atom_site_fract_z
_atom_site_occupancy
_atom_site_attached_hydrogens
_atom_site_B_iso_or_equiv
Mg1 Mg2+ 4 h 0 0.303 0.5 1. 0 1.5 
As1 As5+ 4 i 0.23 0 0.892 1. 0 1.5 
O1 O2- 2 a 0 0 0 1. 0 1.5 
O2 O2- 4 i 0.406 0 0.239 1. 0 1.5 
O3 O2- 8 j 0.23 0.165 0.708 1. 0 1.5 

#End of data_16885-ICSD


