data_9838-ICSD
#?2014 by Fachinformationszentrum Karlsruhe, and the U.S. Secretary of 
#Commerce on behalf of the United States.  All rights reserved.
_database_code_ICSD                9838
_audit_creation_date               1980/01/01
_audit_update_record               2006/04/01
_chemical_name_systematic          'Calcium Titanium Silicate Oxide'
_chemical_formula_structural       'Ca Ti (Si O4) O'
_chemical_formula_sum              'Ca1 O5 Si1 Ti1'
_chemical_name_mineral             Titanite
_publ_section_title
;
High-temperature structural study of the P21/A - A2/A phase 
transition in synthetic titanite, Ca Ti Si O5
;
loop_
_citation_id
_citation_journal_abbrev
_citation_year
_citation_journal_volume
_citation_page_first
_citation_page_last
_citation_journal_id_ASTM
primary 'American Mineralogist' 1976 61 435 447 AMMIAY
2 'Golden Book of Phase Transitions, Wroclaw' 2002 1 1 123 GBOPT5
_publ_author_name                  'Taylor, M.;Brown, G.E.'
_cell_length_a                     7.067(1)
_cell_length_b                     8.726(2)
_cell_length_c                     6.568(2)
_cell_angle_alpha                  90.
_cell_angle_beta                   113.77
_cell_angle_gamma                  90.
_cell_volume                       370.67
_cell_formula_units_Z              4
_symmetry_space_group_name_H-M     'P 1 21/a 1'
_symmetry_Int_Tables_number        14
_refine_ls_R_factor_all            .047
loop_
_symmetry_equiv_pos_site_id
_symmetry_equiv_pos_as_xyz
  1	'x+.5, -y+.5, z'
  2	'-x, -y, -z'
  3	'-x+.5, y+.5, -z'
  4	'x, y, z'
loop_
_atom_type_symbol
_atom_type_oxidation_number
Ca2+	2
O2-	-2
Si4+	4
Ti4+	4
loop_
_atom_site_label
_atom_site_type_symbol
_atom_site_symmetry_multiplicity
_atom_site_Wyckoff_symbol
_atom_site_fract_x
_atom_site_fract_y
_atom_site_fract_z
_atom_site_occupancy
_atom_site_attached_hydrogens
_atom_site_B_iso_or_equiv
Ca1 Ca2+ 4 e 0.2434(11) 0.4185(2) 0.2521(16) 1. 0 1.56(6) 
Ti1 Ti4+ 4 e 0.5110(4) 0.2528(10) 0.7504(8) 1. 0 0.82(5) 
Si1 Si4+ 4 e 0.7536(11) 0.4328(3) 0.2492(21) 1. 0 0.52(5) 
O1 O2- 4 e 0.7519(16) 0.3206(8) 0.7513(26) 1. 0 0.90(23) 
O2 O2- 4 e 0.9110(16) 0.3186(11) 0.4365(22) 1. 0 0.90(26) 
O3 O2- 4 e 0.0901(18) 0.1861(13) 0.066(2) 1. 0 0.96(24) 
O4 O2- 4 e 0.3813(15) 0.4582(14) 0.6442(23) 1. 0 0.82(28) 
O5 O2- 4 e 0.6179(16) 0.0384(13) 0.8504(23) 1. 0 0.95(29) 

#End of data_9838-ICSD


