data_31824-ICSD
#?2014 by Fachinformationszentrum Karlsruhe, and the U.S. Secretary of 
#Commerce on behalf of the United States.  All rights reserved.
_database_code_ICSD                31824
_audit_creation_date               1980/01/01
_audit_update_record               2010/02/01
_chemical_name_systematic          'Sodium Nitrate(III)'
_chemical_formula_structural       'Na (N O2)'
_chemical_formula_sum              'N1 Na1 O2'
_publ_section_title
;
The crystal structure of sodium nitrite, Na N O2
;
loop_
_citation_id
_citation_journal_abbrev
_citation_year
_citation_journal_volume
_citation_page_first
_citation_page_last
_citation_journal_id_ASTM
primary 'Physical Review (1,1893-132,1963/141,1966-188,1969)'
 1931 38 1040 1047 PHRVAO
2 'Golden Book of Phase Transitions, Wroclaw' 2002 1 1 123 GBOPT5
_publ_author_name                  'Ziegler, G.E.'
_cell_length_a                     3.56
_cell_length_b                     5.57
_cell_length_c                     5.38
_cell_angle_alpha                  90.
_cell_angle_beta                   90.
_cell_angle_gamma                  90.
_cell_volume                       106.68
_cell_formula_units_Z              2
_symmetry_space_group_name_H-M     'I m 2 m'
_symmetry_Int_Tables_number        44
loop_
_symmetry_equiv_pos_site_id
_symmetry_equiv_pos_as_xyz
  1	'x, y, -z'
  2	'-x, y, z'
  3	'-x, y, -z'
  4	'x, y, z'
  5	'x+.5, y+.5, -z+.5'
  6	'-x+.5, y+.5, z+.5'
  7	'-x+.5, y+.5, -z+.5'
  8	'x+.5, y+.5, z+.5'
loop_
_atom_type_symbol
_atom_type_oxidation_number
N3+	3
Na1+	1
O2-	-2
loop_
_atom_site_label
_atom_site_type_symbol
_atom_site_symmetry_multiplicity
_atom_site_Wyckoff_symbol
_atom_site_fract_x
_atom_site_fract_y
_atom_site_fract_z
_atom_site_occupancy
_atom_site_attached_hydrogens
Na1 Na1+ 2 a 0 0.583 0 1. 0 
N1 N3+ 2 a 0 0.083 0 1. 0 
O1 O2- 4 c 0 0 0.194 1. 0 

#End of data_31824-ICSD


