data_71644-ICSD
#?2014 by Fachinformationszentrum Karlsruhe, and the U.S. Secretary of 
#Commerce on behalf of the United States.  All rights reserved.
_database_code_ICSD                71644
_audit_creation_date               1993/08/22
_audit_update_record               2004/04/01
_chemical_name_systematic          'Cesium Heptasilver Sulfide'
_chemical_formula_structural       'Cs Ag7 S4'
_chemical_formula_sum              'Ag7 Cs1 S4'
_publ_section_title
;
Darstellung und Struktur der silberreichen Alkalimetallsilbersulfide, 
Cs Ag7 S4 und Rb Ag7 S4
;
loop_
_citation_id
_citation_journal_abbrev
_citation_year
_citation_journal_volume
_citation_page_first
_citation_page_last
_citation_journal_id_ASTM
primary 'Journal of Alloys and Compounds' 1992 183 377 384 JALCEU
_publ_author_name                  'Huster, J.'
_cell_length_a                     11.091(1)
_cell_length_b                     11.091(1)
_cell_length_c                     8.523(1)
_cell_angle_alpha                  90.
_cell_angle_beta                   90.
_cell_angle_gamma                  90.
_cell_volume                       1048.42
_cell_formula_units_Z              4
_symmetry_space_group_name_H-M     'P 4/n Z'
_symmetry_Int_Tables_number        85
_refine_ls_R_factor_all            .027
loop_
_symmetry_equiv_pos_site_id
_symmetry_equiv_pos_as_xyz
  1	'-y, x+.5, -z'
  2	'y+.5, -x, -z'
  3	'x+.5, y+.5, -z'
  4	'-x, -y, -z'
  5	'y, -x+.5, z'
  6	'-y+.5, x, z'
  7	'-x+.5, -y+.5, z'
  8	'x, y, z'
loop_
_atom_type_symbol
_atom_type_oxidation_number
Ag1+	1
Cs1+	1
S2-	-2
loop_
_atom_site_label
_atom_site_type_symbol
_atom_site_symmetry_multiplicity
_atom_site_Wyckoff_symbol
_atom_site_fract_x
_atom_site_fract_y
_atom_site_fract_z
_atom_site_occupancy
_atom_site_attached_hydrogens
Cs1 Cs1+ 2 c 0.25 0.25 0.3737(2) 1. 0 
Cs2 Cs1+ 2 c 0.25 0.25 0.8777(2) 1. 0 
Ag1 Ag1+ 4 d 0 0 0 1. 0 
Ag2 Ag1+ 8 g 0.47698(9) 0.9570(1) 0.3411(2) 1. 0 
Ag3 Ag1+ 8 g 0.73589(8) 0.38747(9) 0.1244(2) 1. 0 
Ag4 Ag1+ 8 g 0.28685(8) 0.60728(9) 0.3811(2) 1. 0 
S1 S2- 8 g 0.9889(3) 0.1913(2) 0.1311(5) 1. 0 
S2 S2- 8 g 0.0050(2) 0.8072(2) 0.3781(4) 1. 0 

loop_
_atom_site_aniso_label
_atom_site_aniso_type_symbol
_atom_site_aniso_U_11
_atom_site_aniso_U_22
_atom_site_aniso_U_33
_atom_site_aniso_U_12
_atom_site_aniso_U_13
_atom_site_aniso_U_23
Cs1 Cs1+ 0.0206(4) 0.0206(4) 0.0210(7) 0 0 0
Cs2 Cs1+ 0.0207(4) 0.0207(4) 0.0226(7) 0 0 0
Ag1 Ag1+ 0.059(1) 0.0292(8) 0.059(1) -.0116(7) 0.0332(9) -.0220(9)
Ag2 Ag1+ 0.0221(4) 0.0472(6) 0.0480(6) -.0052(5) -.0094(6) -.0121(6)
Ag3 Ag1+ 0.0298(4) 0.0296(4) 0.0229(4) -.0024(4) 0.0020(6) -.0024(6)
Ag4 Ag1+ 0.0242(4) 0.0290(4) 0.0374(6) -.0093(4) 0.0019(6) -.0023(6)
S1 S2- 0.021(1) 0.020(1) 0.018(1) -.001(1) 0.001(2) -.003(2)
S2 S2- 0.017(1) 0.015(1) 0.021(1) -.0006(9) 0.002(2) 0.000(2)
#End of data_71644-ICSD


