data_24782-ICSD
#?2014 by Fachinformationszentrum Karlsruhe, and the U.S. Secretary of 
#Commerce on behalf of the United States.  All rights reserved.
_database_code_ICSD                24782
_audit_creation_date               1982/12/31
_audit_update_record               2014/08/01
_chemical_name_systematic
;
Tetrasilver Hexathio-diphosphate(IV)
;
_chemical_formula_structural       'Ag4 P2 S6'
_chemical_formula_sum              'Ag4 P2 S6'
_publ_section_title
;
Structure de l'Hexathiodiphosphate(IV) d'Argent
;
loop_
_citation_id
_citation_journal_abbrev
_citation_year
_citation_journal_volume
_citation_page_first
_citation_page_last
_citation_journal_id_ASTM
primary 'Acta Crystallographica B (24,1968-38,1982)' 1982 38 706 710 ACBCAR
2
;
Comptes Rendus Hebdomadaires des Seances de l`Academie des Sciences, 
Serie 2 (-1983)
;
 1980 291 275 277 CRSUDO
_publ_author_name
;
Toffoli, P.;Michelet, A.;Khodadad, P.;Rodier, N.
;
_cell_length_a                     6.522(4)
_cell_length_b                     19.616(8)
_cell_length_c                     11.797(6)
_cell_angle_alpha                  90.
_cell_angle_beta                   90.
_cell_angle_gamma                  93.58(2)
_cell_volume                       1506.31
_cell_formula_units_Z              6
_symmetry_space_group_name_H-M     'P 1 1 21/b'
_symmetry_Int_Tables_number        14
_refine_ls_R_factor_all            .047
loop_
_symmetry_equiv_pos_site_id
_symmetry_equiv_pos_as_xyz
  1	'x, y+.5, -z+.5'
  2	'-x, -y, -z'
  3	'-x, -y+.5, z+.5'
  4	'x, y, z'
loop_
_atom_type_symbol
_atom_type_oxidation_number
Ag1+	1
P4+	4
S2-	-2
loop_
_atom_site_label
_atom_site_type_symbol
_atom_site_symmetry_multiplicity
_atom_site_Wyckoff_symbol
_atom_site_fract_x
_atom_site_fract_y
_atom_site_fract_z
_atom_site_occupancy
_atom_site_attached_hydrogens
Ag1 Ag1+ 4 e 0.4738(2) 0.10481(7) 0.6318(1) 1. 0 
Ag2 Ag1+ 4 e 0.4322(3) 0.33314(8) 0.4238(1) 1. 0 
Ag3 Ag1+ 4 e 0.9223(2) 0.4059(7) 0.5540(2) 1. 0 
Ag4 Ag1+ 4 e 0.5228(3) 0.12506(8) 0.3339(1) 1. 0 
Ag5 Ag1+ 4 e 0.0834(3) 0.50943(7) 0.1939(1) 1. 0 
Ag6 Ag1+ 4 e 0.0412(4) 0.2839(1) 0.2772(2) 1. 0 
S1 S2- 4 e 0.3433(5) 0.4417(2) 0.3200(3) 1. 0 
S2 S2- 4 e 0.4623(5) 0.6070(2) 0.3789(3) 1. 0 
S3 S2- 4 e 0.8314(5) 0.4909(2) 0.3842(3) 1. 0 
S4 S2- 4 e 0.0938(5) 0.1092(2) 0.6453(3) 1. 0 
S5 S2- 4 e 0.7044(5) 0.0580(2) 0.4780(3) 1. 0 
S6 S2- 4 e 0.1207(6) 0.1320(2) 0.3531(3) 1. 0 
S7 S2- 4 e 0.0871(6) 0.2948(2) 0.5387(4) 1. 0 
S8 S2- 4 e 0.6858(5) 0.2490(2) 0.3659(3) 1. 0 
S9 S2- 4 e 0.6480(5) 0.2295(2) 0.6519(3) 1. 0 
P1 P4+ 4 e 0.5350(5) 0.5092(2) 0.4069(3) 1. 0 
P2 P4+ 4 e 0.9506(5) 0.1265(2) 0.4964(3) 1. 0 
P3 P4+ 4 e 0.8326(5) 0.2311(2) 0.5150(3) 1. 0 

#End of data_24782-ICSD


