data_165315-ICSD
#?2014 by Fachinformationszentrum Karlsruhe, and the U.S. Secretary of 
#Commerce on behalf of the United States.  All rights reserved.
_database_code_ICSD                165315
_audit_creation_date               2010/02/01
_chemical_name_systematic
;
Potassium Palladium Tetrathiophosphate(V)
;
_chemical_formula_structural       'K Pd (P S4)'
_chemical_formula_sum              'K1 P1 Pd1 S4'
_publ_section_title
;
Palladium chemistry in molten alkali metal polychalcophosphate 
fluxes. Synthesis and characterisation of K4 Pd (P S4)2, Cs4 Pd (P 
Se4)2, Cs10 Pd (P Se4)4, K Pd P S4, K2 Pd P2 S6, and Cs2 Pd P2 Se6
;
loop_
_citation_id
_citation_journal_abbrev
_citation_year
_citation_journal_volume
_citation_journal_issue
_citation_page_first
_citation_page_last
_citation_journal_id_ASTM
primary 'Inorganic Chemistry' 1997 36 25 5859 5968 INOCAJ
_publ_author_name
;
Chondroudis, K.;Kanatzidis, M.G.;Sayettat, J.;Jobic, S.;Brec, R.
;
_cell_length_a                     8.5337(2)
_cell_length_b                     8.5337(2)
_cell_length_c                     10.5595(5)
_cell_angle_alpha                  90.
_cell_angle_beta                   90.
_cell_angle_gamma                  90.
_cell_volume                       768.99
_cell_formula_units_Z              4
_symmetry_space_group_name_H-M     'P 42/m n m'
_symmetry_Int_Tables_number        136
_refine_ls_R_factor_all            .025
loop_
_symmetry_equiv_pos_site_id
_symmetry_equiv_pos_as_xyz
  1	'-y+.5, x+.5, -z+.5'
  2	'y+.5, -x+.5, -z+.5'
  3	'y, x, -z'
  4	'-y, -x, -z'
  5	'y+.5, -x+.5, z+.5'
  6	'-y+.5, x+.5, z+.5'
  7	'-y, -x, z'
  8	'y, x, z'
  9	'x+.5, -y+.5, -z+.5'
 10	'-x+.5, y+.5, -z+.5'
 11	'x, y, -z'
 12	'-x, -y, -z'
 13	'-x+.5, y+.5, z+.5'
 14	'x+.5, -y+.5, z+.5'
 15	'-x, -y, z'
 16	'x, y, z'
loop_
_atom_type_symbol
_atom_type_oxidation_number
K1+	1
P5+	5
Pd2+	2
S2-	-2
loop_
_atom_site_label
_atom_site_type_symbol
_atom_site_symmetry_multiplicity
_atom_site_Wyckoff_symbol
_atom_site_fract_x
_atom_site_fract_y
_atom_site_fract_z
_atom_site_occupancy
_atom_site_attached_hydrogens
_atom_site_B_iso_or_equiv
Pd1 Pd2+ 2 a 0 0 0 1. 0 2.05(2) 
Pd2 Pd2+ 2 b 0 0 0.5 1. 0 2.25(2) 
S1 S2- 8 j -0.14256(8) 0.14256 0.64930(10) 1. 0 3.01(2) 
S2 S2- 8 i -0.2719(1) -0.0124(1) 0 1. 0 2.69(2) 
P1 P5+ 4 f -0.2494(1) 0.2494 0.5 1. 0 2.38(2) 
K1 K1+ 4 d 0 0.5 0.25 1. 0 3.75(3) 

loop_
_atom_site_aniso_label
_atom_site_aniso_type_symbol
_atom_site_aniso_U_11
_atom_site_aniso_U_22
_atom_site_aniso_U_33
_atom_site_aniso_U_12
_atom_site_aniso_U_13
_atom_site_aniso_U_23
Pd1 Pd2+ 0.0246(2) 0.0246(2) 0.0289(3) -0.0093(2) 0. 0.
Pd2 Pd2+ 0.0279(2) 0.0279(2) 0.0296(3) 0.0127(2) 0. 0.
S1 S2- 0.0423(4) 0.0423(4) 0.0295(5) 0.0204(5) -0.0005(3) 0.0005(3)
S2 S2- 0.0270(5) 0.0324(5) 0.0428(6) -0.0079(4) 0. 0.
P1 P5+ 0.0309(4) 0.0309(4) 0.0283(7) 0.0128(6) 0. 0.
K1 K1+ 0.0533(6) 0.0533(6) 0.0357(7) 0. 0. 0.
#End of data_165315-ICSD


