data_40917-ICSD
#?2014 by Fachinformationszentrum Karlsruhe, and the U.S. Secretary of 
#Commerce on behalf of the United States.  All rights reserved.
_database_code_ICSD                40917
_audit_creation_date               2000/07/15
_audit_update_record               2006/04/01
_chemical_name_systematic          'Disodium Hexafluorosilicate'
_chemical_formula_structural       'Na2 (Si F6)'
_chemical_formula_sum              'F6 Na2 Si1'
_chemical_name_mineral             Malladrite
_publ_section_title
;
The crystal structures of Na2 Ti F6 and Na2 Si F6. Pseudotrigonal 
polar phases in double hexafluorides of the type Me(I)2 Me(IV) F6
;
loop_
_citation_id
_citation_journal_abbrev
_citation_year
_citation_journal_volume
_citation_page_first
_citation_page_last
_citation_journal_id_ASTM
primary
;
Zeitschrift fuer Kristallographie, Kristallgeometrie, Kristallphysik, 
Kristallchemie (-144,1977)
;
 1986 175 269 276 ZEKGAX
2 'Golden Book of Phase Transitions, Wroclaw' 2002 1 1 123 GBOPT5
_publ_author_name                  'Schaefer, G.F.'
_cell_length_a                     8.859(2)
_cell_length_b                     8.859(2)
_cell_length_c                     5.038(2)
_cell_angle_alpha                  90.
_cell_angle_beta                   90.
_cell_angle_gamma                  120.
_cell_volume                       342.42
_cell_formula_units_Z              3
_symmetry_space_group_name_H-M     'P 1'
_symmetry_Int_Tables_number        1
_refine_ls_R_factor_all            .028
loop_
_symmetry_equiv_pos_site_id
_symmetry_equiv_pos_as_xyz
  1	'x, y, z'
loop_
_atom_type_symbol
_atom_type_oxidation_number
F1-	-1
Na1+	1
Si4+	4
loop_
_atom_site_label
_atom_site_type_symbol
_atom_site_symmetry_multiplicity
_atom_site_Wyckoff_symbol
_atom_site_fract_x
_atom_site_fract_y
_atom_site_fract_z
_atom_site_occupancy
_atom_site_attached_hydrogens
Si1 Si4+ 1 a 0 0 0 1. 0 
Si2 Si4+ 1 a 0.3341(9) 0.6668(15) 0.4944(14) 1. 0 
Si3 Si4+ 1 a 0.6659(9) 0.3327(15) -.4944(14) 1. 0 
Na1 Na1+ 1 a 0.6190(22) -.0030(22) 0.0015(18) 1. 0 
Na2 Na1+ 1 a 0.3810(22) 0.3780(22) -.0015(18) 1. 0 
Na3 Na1+ 1 a 0 0.6191(22) 0 1. 0 
Na4 Na1+ 1 a 0.2826(18) -.0008(20) 0.4972(20) 1. 0 
Na5 Na1+ 1 a -.2826(18) -.2834(20) 0.5028(20) 1. 0 
Na6 Na1+ 1 a 0 0.2865(19) 0.5 1. 0 
F1 F1- 1 a 0.0977(39) 0.1794(31) 0.1884(43) 1. 0 
F2 F1- 1 a -.0977(39) 0.0817(31) -.1884(43) 1. 0 
F3 F1- 1 a -.1817(25) -.0870(31) 0.1928(26) 1. 0 
F4 F1- 1 a 0.1817(25) 0.0947(31) -.1928(26) 1. 0 
F5 F1- 1 a 0.0868(33) -.0923(28) 0.1902(33) 1. 0 
F6 F1- 1 a -.0868(33) -.1791(28) -.1902(33) 1. 0 
F7 F1- 1 a 0.1540(19) 0.5541(22) 0.3013(22) 1. 0 
F8 F1- 1 a -.1540(19) 0.4001(22) -.3013(22) 1. 0 
F9 F1- 1 a 0.4428(27) 0.5957(28) 0.3057(36) 1. 0 
F10 F1- 1 a 0.5572(27) 0.1529(28) -.3057(36) 1. 0 
F11 F1- 1 a 0.4037(29) 0.8438(23) 0.2956(30) 1. 0 
F12 F1- 1 a 0.5963(29) 0.4401(23) -.2956(30) 1. 0 
F13 F1- 1 a 0.2627(25) 0.4896(23) 0.6889(32) 1. 0 
F14 F1- 1 a -.2627(25) 0.2269(23) 0.3111(32) 1. 0 
F15 F1- 1 a 0.2266(28) 0.7368(27) 0.6900(33) 1. 0 
F16 F1- 1 a -.2266(28) 0.5102(27) 0.3100(33) 1. 0 
F17 F1- 1 a 0.5130(23) 0.7714(25) 0.6868(24) 1. 0 
F18 F1- 1 a 0.4870(23) 0.2584(15) 0.3132(24) 1. 0 

#End of data_40917-ICSD


