data_95648-ICSD
#?2014 by Fachinformationszentrum Karlsruhe, and the U.S. Secretary of 
#Commerce on behalf of the United States.  All rights reserved.
_database_code_ICSD                95648
_audit_creation_date               2003/10/01
_chemical_name_systematic
;
Octasilver Titanium Hexasulfide - Beta
;
_chemical_formula_structural       'Ag8 Ti S6'
_chemical_formula_sum              'Ag8 S6 Ti1'
_publ_section_title
;
Phase transition and crystal structure of silver-ion conductor Ag12-n 
M(+n) S6 (M = Ti, Nb, Na)
;
loop_
_citation_id
_citation_journal_abbrev
_citation_year
_citation_journal_volume
_citation_page_first
_citation_page_last
_citation_journal_id_ASTM
primary 'Solid State Ionics' 2002 154 723 727 SSIOD3
_publ_author_name
;
Wada, H.;Sato, A.;Onoda, M.;Adams, S.;Tansho, M.;Ishii, M.
;
_cell_length_a                     15.095
_cell_length_b                     7.462
_cell_length_c                     10.641
_cell_angle_alpha                  90
_cell_angle_beta                   90
_cell_angle_gamma                  90
_cell_volume                       1198.59
_cell_formula_units_Z              4
_symmetry_space_group_name_H-M     'P n a 21'
_symmetry_Int_Tables_number        33
_refine_ls_R_factor_all            .048
loop_
_symmetry_equiv_pos_site_id
_symmetry_equiv_pos_as_xyz
  1	'x+.5, -y+.5, z'
  2	'-x+.5, y+.5, z+.5'
  3	'-x, -y, z+.5'
  4	'x, y, z'
loop_
_atom_type_symbol
_atom_type_oxidation_number
Ag1+	1
S2-	-2
Ti4+	4
loop_
_atom_site_label
_atom_site_type_symbol
_atom_site_symmetry_multiplicity
_atom_site_Wyckoff_symbol
_atom_site_fract_x
_atom_site_fract_y
_atom_site_fract_z
_atom_site_occupancy
_atom_site_attached_hydrogens
_atom_site_B_iso_or_equiv
Ag1 Ag1+ 4 a 0.1219(7) 0.288(1) 0 1. 0 3.5(8) 
Ag2 Ag1+ 4 a 0.479(1) 0.985(2) 0.270(3) 1. 0 3.6(9) 
Ag3 Ag1+ 4 a 0.2324(8) 0.629(2) 0.193(3) 1. 0 3.5(7) 
Ag4 Ag1+ 4 a 0.420(1) 0.432(2) 0.352(3) 1. 0 3.2(11) 
Ag5 Ag1+ 4 a 0.274(1) 0.004(2) 0.300(2) 1. 0 3.3(9) 
Ag6 Ag1+ 4 a 0.073(1) 0.892(2) 0.201(3) 1. 0 3.1(9) 
Ag7 Ag1+ 4 a 0.4419(9) 0.773(1) 0.023(3) 1. 0 3.6(7) 
Ag8 Ag1+ 4 a 0.2339(8) 0.935(2) 0.005(3) 1. 0 3.3(7) 
Ti1 Ti4+ 4 a 0.361(2) 0.256(4) 0.012(7) 1. 0 1.5(12) 
S1 S2- 4 a 0.373(3) 0.734(6) 0.241(5) 1. 0 2. 
S2 S2- 4 a 0.123(2) 0.693(5) -0.015(5) 1. 0 2. 
S3 S2- 4 a 0.266(3) 0.275(5) 0.169(5) 1. 0 2. 
S4 S2- 4 a 0.479(4) 0.283(6) 0.132(4) 1. 0 2. 
S5 S2- 4 a 0.369(3) 0.550(7) -0.083(5) 1. 0 2. 
S6 S2- 4 a 0.380(3) -0.013(7) 0.871(6) 1. 0 2. 

#End of data_95648-ICSD


