data_154372-ICSD
#?2014 by Fachinformationszentrum Karlsruhe, and the U.S. Secretary of 
#Commerce on behalf of the United States.  All rights reserved.
_database_code_ICSD                154372
_audit_creation_date               2007/04/01
_audit_update_record               2008/02/01
_chemical_name_systematic          'Tetrapotassium Diferrate(III)'
_chemical_formula_structural       'K4 (Fe2 O5)'
_chemical_formula_sum              'Fe2 K4 O5'
_publ_section_title
;
Fehlende Glieder bekannter Reihen: die Oxoferrate(III) Rb8 (Fe2 O7), 
Rb6 (Fe2 O6) und K4 (Fe2 O5)
;
loop_
_citation_id
_citation_journal_abbrev
_citation_year
_citation_journal_volume
_citation_page_first
_citation_page_last
_citation_journal_id_ASTM
primary 'Zeitschrift fuer Naturforschung, B: Chemical Sciences'
 2005 60 732 740 ZNBSEN
_publ_author_name                  'Frisch, G.;Roehr, C.'
_cell_length_a                     6.4591(14)
_cell_length_b                     5.9369(13)
_cell_length_c                     10.030(2)
_cell_angle_alpha                  90.
_cell_angle_beta                   103.124(4)
_cell_angle_gamma                  90.
_cell_volume                       374.57
_cell_formula_units_Z              2
_symmetry_space_group_name_H-M     'P 1 21/c 1'
_symmetry_Int_Tables_number        14
_refine_ls_R_factor_all            .0355
loop_
_symmetry_equiv_pos_site_id
_symmetry_equiv_pos_as_xyz
  1	'x, -y+.5, z+.5'
  2	'-x, -y, -z'
  3	'-x, y+.5, -z+.5'
  4	'x, y, z'
loop_
_atom_type_symbol
_atom_type_oxidation_number
Fe3+	3
K1+	1
O2-	-2
loop_
_atom_site_label
_atom_site_type_symbol
_atom_site_symmetry_multiplicity
_atom_site_Wyckoff_symbol
_atom_site_fract_x
_atom_site_fract_y
_atom_site_fract_z
_atom_site_occupancy
_atom_site_attached_hydrogens
_atom_site_U_iso_or_equiv
K1 K1+ 4 e 0.26617(14) 0.87979(16) 0.51566(10) 1. 0 0.0211(10) 
K2 K1+ 4 e 0.90190(15) 0.90846(18) 0.16301(10) 1. 0 0.0225(3) 
Fe1 Fe3+ 4 e 0.40661(8) 0.11230(10) 0.15534(6) 1. 0 0.0111(2) 
O1 O2- 4 e 0.1381(4) 0.2309(5) 0.0983(3) 1. 0 0.0167(7) 
O2 O2- 4 e 0.5983(4) 0.3529(5) 0.2299(3) 1. 0 0.0172(7) 
O3 O2- 2 b 0.5 0 0 1. 0 0.0160(9) 

#End of data_154372-ICSD


