data_74853-ICSD
#?2014 by Fachinformationszentrum Karlsruhe, and the U.S. Secretary of 
#Commerce on behalf of the United States.  All rights reserved.
_database_code_ICSD                74853
_audit_creation_date               1995/10/17
_audit_update_record               2012/08/01
_chemical_name_systematic
;
Disilver Octalead Heptaoxide Tetrachloride
;
_chemical_formula_structural       'Ag2 Pb8 O7 Cl4'
_chemical_formula_sum              'Ag2 Cl4 O7 Pb8'
_publ_section_title
;
Ag2 Pb8 O7 Cl4, ein neues Blei(II)-oxidhalogenid mit Silber
;
loop_
_citation_id
_citation_journal_abbrev
_citation_year
_citation_journal_volume
_citation_page_first
_citation_page_last
_citation_journal_id_ASTM
primary 'Zeitschrift fuer Anorganische und Allgemeine Chemie (1950) (DE)'
 1994 620 1229 1233 ZAACAB
_publ_author_name                  'Langecker, C.;Keller, H.L.'
_cell_length_a                     12.411(4)
_cell_length_b                     17.990(30)
_cell_length_c                     14.785(4)
_cell_angle_alpha                  90.
_cell_angle_beta                   147.01(2)
_cell_angle_gamma                  90.
_cell_volume                       1797.43
_cell_formula_units_Z              4
_symmetry_space_group_name_H-M     'P 1 21/c 1'
_symmetry_Int_Tables_number        14
_refine_ls_R_factor_all            .073
loop_
_symmetry_equiv_pos_site_id
_symmetry_equiv_pos_as_xyz
  1	'x, -y+.5, z+.5'
  2	'-x, -y, -z'
  3	'-x, y+.5, -z+.5'
  4	'x, y, z'
loop_
_atom_type_symbol
_atom_type_oxidation_number
Ag1+	1
Cl1-	-1
O2-	-2
Pb2+	2
loop_
_atom_site_label
_atom_site_type_symbol
_atom_site_symmetry_multiplicity
_atom_site_Wyckoff_symbol
_atom_site_fract_x
_atom_site_fract_y
_atom_site_fract_z
_atom_site_occupancy
_atom_site_attached_hydrogens
_atom_site_U_iso_or_equiv
Pb1 Pb2+ 4 e 0.6323(6) 0.1062(4) 0.3703(6) 1. 0 0 
Pb2 Pb2+ 4 e 0.1189(7) 0.0856(3) 0.1260(6) 1. 0 0 
Pb3 Pb2+ 4 e 0.8881(7) 0.2556(3) 0.8837(6) 1. 0 0 
Pb4 Pb2+ 4 e 0.6595(5) 0.0892(3) 0.6238(5) 1. 0 0 
Pb5 Pb2+ 4 e 0.8810(7) 0.2267(3) 0.1268(6) 1. 0 0 
Pb6 Pb2+ 4 e 0.3984(6) 0.2044(3) 0.6268(6) 1. 0 0 
Pb7 Pb2+ 4 e 0.3701(7) 0.2436(3) 0.8667(6) 1. 0 0 
Pb8 Pb2+ 4 e 0.1412(6) 0.1057(3) 0.8802(5) 1. 0 0 
Ag1 Ag1+ 4 e 0.520(2) 0.5338(8) 0.632(1) 1. 0 0 
Ag2 Ag1+ 4 e 0.984(2) 0.4516(8) 0.881(1) 1. 0 0 
Cl1 Cl1- 4 e 0.130(4) 0.092(3) 0.645(4) 1. 0 0 
Cl2 Cl1- 4 e 0.607(4) 0.408(2) 0.610(3) 1. 0 0 
Cl3 Cl1- 4 e 0.190(4) 0.430(2) 0.892(3) 1. 0 0 
Cl4 Cl1- 4 e 0.671(4) 0.071(2) 0.865(3) 1. 0 0 
O1 O2- 4 e 0.665(6) 0.270(4) 0.857(5) 1. 0 0.007(8) 
O2 O2- 4 e 0.070(6) 0.292(4) 0.635(5) 1. 0 0.002(7) 
O3 O2- 4 e 0.210(6) 0.223(4) 0.901(5) 1. 0 0.011(8) 
O4 O2- 4 e 0.599(6) 0.210(4) 0.643(5) 1. 0 0.009(8) 
O5 O2- 4 e 0.970(6) 0.121(5) 0.895(6) 1. 0 0.030(9) 
O6 O2- 4 e 0.419(6) 0.376(4) 0.838(5) 1. 0 0.008(8) 
O7 O2- 4 e 0.861(6) 0.138(4) 0.642(6) 1. 0 0.024(8) 

loop_
_atom_site_aniso_label
_atom_site_aniso_type_symbol
_atom_site_aniso_U_11
_atom_site_aniso_U_22
_atom_site_aniso_U_33
_atom_site_aniso_U_12
_atom_site_aniso_U_13
_atom_site_aniso_U_23
Pb1 Pb2+ 0.021(2) 0.031(4) 0.018(2) -.002(2) 0.018(2) -.004(2)
Pb2 Pb2+ 0.020(2) 0.009(2) 0.017(2) -.001(2) 0.016(2) -.001(2)
Pb3 Pb2+ 0.020(2) 0.020(2) 0.020(2) 0.002(2) 0.018(2) 0.003(2)
Pb4 Pb2+ 0.024(2) 0.001(2) 0.023(2) 0.000(2) 0.021(2) 0.001(2)
Pb5 Pb2+ 0.020(2) 0.023(3) 0.021(2) 0.001(2) 0.019(2) 0.002(3)
Pb6 Pb2+ 0.018(2) 0.030(3) 0.018(2) 0.001(2) 0.016(2) -.001(2)
Pb7 Pb2+ 0.017(2) 0.011(3) 0.018(2) 0.003(2) 0.015(2) 0.001(2)
Pb8 Pb2+ 0.017(2) 0.001(2) 0.017(2) 0.001(2) 0.015(2) 0.002(2)
Ag1 Ag1+ 0.069(4) 0.079(7) 0.080(5) 0.011(5) 0.071(4) 0.005(5)
Ag2 Ag1+ 0.044(4) 0.099(7) 0.057(5) 0.004(4) 0.047(4) 0.000(5)
Cl1 Cl1- 0.052(6) 0.046(8) 0.050(6) -.001(7) 0.048(5) -.002(7)
Cl2 Cl1- 0.042(6) 0.023(8) 0.034(6) -.010(6) 0.033(5) 0.004(6)
Cl3 Cl1- 0.048(6) 0.021(8) 0.043(6) 0.002(6) 0.042(5) 0.010(6)
Cl4 Cl1- 0.045(6) 0.056(8) 0.038(6) -.017(6) 0.038(5) -.009(6)
#End of data_74853-ICSD


