data_60615-ICSD
#?2014 by Fachinformationszentrum Karlsruhe, and the U.S. Secretary of 
#Commerce on behalf of the United States.  All rights reserved.
_database_code_ICSD                60615
_audit_creation_date               1986/12/03
_audit_update_record               2003/04/01
_chemical_name_systematic
;
Potassium Tetrafluoroferrate(III) - Phase Ii, Ht
;
_chemical_formula_structural       'K (Fe F4)'
_chemical_formula_sum              'F4 Fe1 K1'
_publ_section_title
;
Structures cristallines a 415 K (phase II) et 295 K (phase III) de K 
Fe F4
;
loop_
_citation_id
_citation_journal_abbrev
_citation_year
_citation_journal_volume
_citation_page_first
_citation_page_last
_citation_journal_id_ASTM
primary 'Acta Crystallographica, Section B: Structural Science'
 1986 42 258 262 ASBSDK
2 'Phase Transition' 1992 38 127 220 PHTRDP
_publ_author_name
;
Lapasset, J.;Sciau, P.;Moret, J.;Gros, N.
;
_cell_length_a                     3.92(1)
_cell_length_b                     12.39(2)
_cell_length_c                     7.68(1)
_cell_angle_alpha                  90.
_cell_angle_beta                   90.
_cell_angle_gamma                  90.
_cell_volume                       373.01
_cell_formula_units_Z              4
_symmetry_space_group_name_H-M     'C m c m'
_symmetry_Int_Tables_number        63
_refine_ls_R_factor_all            .032
loop_
_symmetry_equiv_pos_site_id
_symmetry_equiv_pos_as_xyz
  1	'-x, y, -z+.5'
  2	'-x, -y, z+.5'
  3	'-x, y, z'
  4	'-x, -y, -z'
  5	'x, -y, z+.5'
  6	'x, y, -z+.5'
  7	'x, -y, -z'
  8	'x, y, z'
  9	'-x+.5, y+.5, -z+.5'
 10	'-x+.5, -y+.5, z+.5'
 11	'-x+.5, y+.5, z'
 12	'-x+.5, -y+.5, -z'
 13	'x+.5, -y+.5, z+.5'
 14	'x+.5, y+.5, -z+.5'
 15	'x+.5, -y+.5, -z'
 16	'x+.5, y+.5, z'
loop_
_atom_type_symbol
_atom_type_oxidation_number
F1-	-1
Fe3+	3
K1+	1
loop_
_atom_site_label
_atom_site_type_symbol
_atom_site_symmetry_multiplicity
_atom_site_Wyckoff_symbol
_atom_site_fract_x
_atom_site_fract_y
_atom_site_fract_z
_atom_site_occupancy
_atom_site_attached_hydrogens
K1 K1+ 4 c 0 0.72852(9) 0.25 1. 0 
Fe1 Fe3+ 4 a 0 0 0 1. 0 
F1 F1- 4 b 0 0.5 0 1. 0 
F2 F1- 4 c 0 0.9659(3) 0.25 1. 0 
F3 F1- 8 f 0 0.1488(2) 0.0463(3) 1. 0 

#End of data_60615-ICSD


