data_85727-ICSD
#?2014 by Fachinformationszentrum Karlsruhe, and the U.S. Secretary of 
#Commerce on behalf of the United States.  All rights reserved.
_database_code_ICSD                85727
_audit_creation_date               1999/11/30
_chemical_name_systematic
;
Aluminium Vanadium Molybdenum Oxide
;
_chemical_formula_structural       'Al V Mo O7'
_chemical_formula_sum              'Al1 Mo1 O7 V1'
_publ_section_title
;
Crystal structure determination of Al V Mo O7 from X-ray powder 
diffraction data
;
loop_
_citation_id
_citation_journal_abbrev
_citation_year
_citation_journal_volume
_citation_page_first
_citation_page_last
_citation_journal_id_ASTM
primary 'European Journal of Solid State Inorganic Chemistry'
 1998 35 519 530 EJSCE5
_publ_author_name
;
Knorr, K.;Jakubus, P.;Dabrowska, G.;Kurzawa, M.
;
_cell_length_a                     5.3763(3)
_cell_length_b                     8.1644(3)
_cell_length_c                     12.7312(6)
_cell_angle_alpha                  90.
_cell_angle_beta                   90.
_cell_angle_gamma                  90.
_cell_volume                       558.83
_cell_formula_units_Z              4
_symmetry_space_group_name_H-M     'P m c n'
_symmetry_Int_Tables_number        62
_refine_ls_R_factor_all            .023
loop_
_symmetry_equiv_pos_site_id
_symmetry_equiv_pos_as_xyz
  1	'x, -y+.5, z+.5'
  2	'-x+.5, y, z'
  3	'x+.5, y+.5, -z+.5'
  4	'-x, -y, -z'
  5	'-x, y+.5, -z+.5'
  6	'x+.5, -y, -z'
  7	'-x+.5, -y+.5, z+.5'
  8	'x, y, z'
loop_
_atom_type_symbol
_atom_type_oxidation_number
Al3+	3
Mo6+	6
O2-	-2
V5+	5
loop_
_atom_site_label
_atom_site_type_symbol
_atom_site_symmetry_multiplicity
_atom_site_Wyckoff_symbol
_atom_site_fract_x
_atom_site_fract_y
_atom_site_fract_z
_atom_site_occupancy
_atom_site_attached_hydrogens
_atom_site_B_iso_or_equiv
Mo1 Mo6+ 4 c 0.25 0.0444(3) 0.6449(2) 1. 0 2.03(5) 
V1 V5+ 4 c 0.75 0.4324(6) 0.5124(3) 1. 0 1.9(1) 
Al1 Al3+ 4 c 0.25 0.2358(9) 0.3857(6) 1. 0 2.4(2) 
O1 O2- 4 c 0.25 0.1846(12) 0.7485(8) 1. 0 2.9(4) 
O2 O2- 4 c 0.75 0.2973(19) 0.5897(11) 1. 0 3.7(4) 
O3 O2- 8 d 0.0010(12) 0.5868(9) 0.1490(7) 1. 0 3.7(3) 
O4 O2- 4 c 0.25 0.1526(16) 0.5274(8) 1. 0 5.0(5) 
O5 O2- 8 d 0.0220(16) 0.4101(15) 0.4307(7) 1. 0 4.8(3) 

#End of data_85727-ICSD


