data_423988-ICSD
#?2014 by Fachinformationszentrum Karlsruhe, and the U.S. Secretary of 
#Commerce on behalf of the United States.  All rights reserved.
_database_code_ICSD                423988
_audit_creation_date               2012/08/01
_chemical_name_systematic          'Dipotassium Oxotrisulfidomolybdate'
_chemical_formula_structural       'K2 Mo O S3'
_chemical_formula_sum              'K2 Mo1 O1 S3'
_publ_section_title
;
Gemischte Alkalimetall-Thiooxomolybdate A2 [Mo O(x) S(4-x)] (x = 1, 
2, 3; A = K, Rb, Cs, NH4). Synthesen, Kristallstrukturen und 
Eigenschaften
;
loop_
_citation_id
_citation_journal_abbrev
_citation_year
_citation_journal_volume
_citation_journal_issue
_citation_page_first
_citation_page_last
_citation_journal_id_ASTM
primary 'Zeitschrift fuer Naturforschung, B: Chemical Sciences'
 2012 67 2 127 148 ZNBSEN
_publ_author_name                  'Lehner, A.J.;Kraut, K.;Roehr, C.'
_cell_length_a                     9.1071(8)
_cell_length_b                     7.0713(9)
_cell_length_c                     11.2387(17)
_cell_angle_alpha                  90.00
_cell_angle_beta                   90.00
_cell_angle_gamma                  90.00
_cell_volume                       723.76
_cell_formula_units_Z              4
_symmetry_space_group_name_H-M     'P n m a'
_symmetry_Int_Tables_number        62
_refine_ls_R_factor_all            .0474
loop_
_symmetry_equiv_pos_site_id
_symmetry_equiv_pos_as_xyz
  1	'x+.5, y, -z+.5'
  2	'x, -y+.5, z'
  3	'-x+.5, y+.5, z+.5'
  4	'-x, -y, -z'
  5	'-x+.5, -y, z+.5'
  6	'-x, y+.5, -z'
  7	'x+.5, -y+.5, -z+.5'
  8	'x, y, z'
loop_
_atom_type_symbol
_atom_type_oxidation_number
K1+	1
Mo6+	6
O2-	-2
S2-	-2
loop_
_atom_site_label
_atom_site_type_symbol
_atom_site_symmetry_multiplicity
_atom_site_Wyckoff_symbol
_atom_site_fract_x
_atom_site_fract_y
_atom_site_fract_z
_atom_site_occupancy
_atom_site_attached_hydrogens
_atom_site_U_iso_or_equiv
K1 K1+ 4 c 0.4520(3) 0.2500 0.8071(2) 1 0 0.0424(7) 
K2 K1+ 4 c 0.1602(3) 0.2500 0.1234(2) 1 0 0.0553(7) 
Mo1 Mo6+ 4 c 0.23904(12) 0.2500 0.45306(7) 1 0 0.0242(2) 
S1 S2- 4 c 0.0088(3) 0.2500 0.4022(2) 1 0 0.0469(8) 
S2 S2- 8 d 0.3445(3) 0.4982(3) 0.3766(2) 1 0 0.0502(6) 
O1 O2- 4 c 0.2570(12) 0.2500 0.6044(4) 1 0 0.064(2) 

loop_
_atom_site_aniso_label
_atom_site_aniso_type_symbol
_atom_site_aniso_U_11
_atom_site_aniso_U_22
_atom_site_aniso_U_33
_atom_site_aniso_U_12
_atom_site_aniso_U_13
_atom_site_aniso_U_23
K1 K1+ 0.0368(19) 0.0574(17) 0.0331(13) 0.000 0.0004(10) 0.000
K2 K1+ 0.0318(17) 0.099(2) 0.0354(13) 0.000 0.0006(11) 0.000
Mo1 Mo6+ 0.0202(5) 0.0305(4) 0.0219(3) 0.000 -0.0012(5) 0.000
S1 S2- 0.024(2) 0.074(2) 0.0428(15) 0.000 -0.0047(13) 0.000
S2 S2- 0.0432(15) 0.0303(9) 0.0772(14) 0.0004(10) 0.0118(10) 0.0077(10)
O1 O2- 0.042(5) 0.129(6) 0.021(3) 0.000 0.001(5) 0.000
#End of data_423988-ICSD


