data_71814-ICSD
#?2014 by Fachinformationszentrum Karlsruhe, and the U.S. Secretary of 
#Commerce on behalf of the United States.  All rights reserved.
_database_code_ICSD                71814
_audit_creation_date               1993/08/22
_audit_update_record               2008/02/01
_chemical_name_systematic          'Lithium Manganese Arsenate(V)'
_chemical_formula_structural       'Li Mn (As O4)'
_chemical_formula_sum              'As1 Li1 Mn1 O4'
_publ_section_title
;
Powder X-ray diffraction study of topotactic lithium exchange in 
manganese(III) arsenate hydrate
;
loop_
_citation_id
_citation_journal_abbrev
_citation_year
_citation_journal_volume
_citation_page_first
_citation_page_last
_citation_journal_id_ASTM
primary 'Materials Science Forum' 1991 79 827 832 MSFOEP
2 'Powder Diffraction' 1993 8 155 159 PODIE2
_publ_author_name
;
Aranda, M.A.G.;Attfield, J.P.;Bruque, S.
;
_cell_length_a                     6.1731(1)
_cell_length_b                     10.7594(2)
_cell_length_c                     4.9284(1)
_cell_angle_alpha                  90.
_cell_angle_beta                   90.
_cell_angle_gamma                  90.
_cell_volume                       327.34
_cell_formula_units_Z              4
_symmetry_space_group_name_H-M     'P m n b'
_symmetry_Int_Tables_number        62
_refine_ls_R_factor_all            .054
loop_
_symmetry_equiv_pos_site_id
_symmetry_equiv_pos_as_xyz
  1	'x, y+.5, -z+.5'
  2	'-x+.5, y, z'
  3	'x+.5, -y+.5, z+.5'
  4	'-x, -y, -z'
  5	'-x, -y+.5, z+.5'
  6	'x+.5, -y, -z'
  7	'-x+.5, y+.5, -z+.5'
  8	'x, y, z'
loop_
_atom_type_symbol
_atom_type_oxidation_number
As5+	5
Li1+	1
Mn2+	2
O2-	-2
loop_
_atom_site_label
_atom_site_type_symbol
_atom_site_symmetry_multiplicity
_atom_site_Wyckoff_symbol
_atom_site_fract_x
_atom_site_fract_y
_atom_site_fract_z
_atom_site_occupancy
_atom_site_attached_hydrogens
_atom_site_B_iso_or_equiv
Mn1 Mn2+ 4 c 0.25 0.2786(2) -.0153(4) 1. 0 0.19(6) 
As1 As5+ 4 c 0.25 0.0922(2) 0.4256(3) 1. 0 0.16(4) 
Li1 Li1+ 4 a 0 0 0 1. 0 0.2(5) 
O1 O2- 4 c 0.25 0.0928(9) 0.7630(16) 1. 0 0.24(9) 
O2 O2- 4 c 0.25 0.4548(9) 0.2249(16) 1. 0 0.24(9) 
O3 O2- 8 d 0.0395(9) 0.1685(7) 0.2776(10) 1. 0 0.24(9) 

#End of data_71814-ICSD


