data_1839-ICSD
#?2014 by Fachinformationszentrum Karlsruhe, and the U.S. Secretary of 
#Commerce on behalf of the United States.  All rights reserved.
_database_code_ICSD                1839
_audit_creation_date               1980/01/01
_audit_update_record               2010/02/01
_chemical_name_systematic          'Calcium Bis(tetrafluoroborate)'
_chemical_formula_structural       'Ca (B F4)2'
_chemical_formula_sum              'B2 Ca1 F8'
_publ_section_title
;
The crystal structure of Ca (B F4)2
;
loop_
_citation_id
_citation_journal_abbrev
_citation_year
_citation_journal_volume
_citation_page_first
_citation_page_last
_citation_journal_id_ASTM
primary 'Acta Crystallographica B (24,1968-38,1982)' 1975 31 669 672 ACBCAR
2
;
Comptes Rendus Hebdomadaires des Seances de l`Academie des Sciences 
(1884 - 1965)
;
 1962 254 4171 4173 COREAF
_publ_author_name
;
Jordan, T.H.;Dickens, B.;Schroeder, L.W.;Brown, W.E.
;
_cell_length_a                     9.2792(6)
_cell_length_b                     8.9103(10)
_cell_length_c                     13.3719(10)
_cell_angle_alpha                  90.
_cell_angle_beta                   90.
_cell_angle_gamma                  90.
_cell_volume                       1105.59
_cell_formula_units_Z              8
_symmetry_space_group_name_H-M     'P b c a'
_symmetry_Int_Tables_number        61
_refine_ls_R_factor_all            .024
loop_
_symmetry_equiv_pos_site_id
_symmetry_equiv_pos_as_xyz
  1	'x+.5, y, -z+.5'
  2	'x, -y+.5, z+.5'
  3	'-x+.5, y+.5, z'
  4	'-x, -y, -z'
  5	'-x+.5, -y, z+.5'
  6	'-x, y+.5, -z+.5'
  7	'x+.5, -y+.5, -z'
  8	'x, y, z'
loop_
_atom_type_symbol
_atom_type_oxidation_number
B3+	3
Ca2+	2
F1-	-1
loop_
_atom_site_label
_atom_site_type_symbol
_atom_site_symmetry_multiplicity
_atom_site_Wyckoff_symbol
_atom_site_fract_x
_atom_site_fract_y
_atom_site_fract_z
_atom_site_occupancy
_atom_site_attached_hydrogens
Ca1 Ca2+ 8 c 0.03428(1) 0.21860(1) 0.10383(1) 1. 0 
B1 B3+ 8 c 0.27892(8) -.00363(9) -.05722(6) 1. 0 
B2 B3+ 8 c 0.39709(9) 0.32339(9) 0.15854(6) 1. 0 
F1 F1- 8 c 0.18698(6) 0.09316(6) -.00633(4) 1. 0 
F2 F1- 8 c -.12742(6) 0.41997(6) 0.11614(4) 1. 0 
F3 F1- 8 c -.19615(6) 0.09856(6) 0.11627(4) 1. 0 
F4 F1- 8 c 0.14244(6) 0.41450(6) 0.01180(4) 1. 0 
F5 F1- 8 c 0.41408(7) 0.47767(6) 0.16925(5) 1. 0 
F6 F1- 8 c 0.43040(6) 0.28270(7) 0.06064(4) 1. 0 
F7 F1- 8 c 0.25514(5) 0.28338(7) 0.17892(4) 1. 0 
F8 F1- 8 c 0.48783(6) 0.24995(6) 0.22496(4) 1. 0 

#End of data_1839-ICSD


