data_164491-ICSD
#?2014 by Fachinformationszentrum Karlsruhe, and the U.S. Secretary of 
#Commerce on behalf of the United States.  All rights reserved.
_database_code_ICSD                164491
_audit_creation_date               2010/02/01
_chemical_name_systematic          'Dialuminium Tris(tungstate)'
_chemical_formula_structural       'Al2 (W O4)3'
_chemical_formula_sum              'Al2 O12 W3'
_publ_section_title
;
Phase transitions in Al2 (W O4)3: high pressure investigations of low 
frequency dielectric constant and crystal structure
;
loop_
_citation_id
_citation_journal_abbrev
_citation_year
_citation_journal_volume
_citation_page_first
_citation_page_last
_citation_journal_id_ASTM
primary 'Journal of Physics: Condensed Matter' 2004 16 7321 7330 JCOMEL
_publ_author_name
;
Mukherjee, G.D.;Vijaykumar, V.;Achary, S.N.;Tyagi, A.K.;Godwal, B.K.
;
_cell_length_a                     12.601(3)
_cell_length_b                     9.064(2)
_cell_length_c                     9.144(2)
_cell_angle_alpha                  90.
_cell_angle_beta                   90.
_cell_angle_gamma                  90.
_cell_volume                       1044.39
_cell_formula_units_Z              4
_symmetry_space_group_name_H-M     'P b c n'
_symmetry_Int_Tables_number        60
_refine_ls_R_factor_all            .05
loop_
_symmetry_equiv_pos_site_id
_symmetry_equiv_pos_as_xyz
  1	'x, -y, z+.5'
  2	'-x+.5, y+.5, z'
  3	'x+.5, y+.5, -z+.5'
  4	'-x, -y, -z'
  5	'-x, y, -z+.5'
  6	'x+.5, -y+.5, -z'
  7	'-x+.5, -y+.5, z+.5'
  8	'x, y, z'
loop_
_atom_type_symbol
_atom_type_oxidation_number
Al3+	3
O2-	-2
W6+	6
loop_
_atom_site_label
_atom_site_type_symbol
_atom_site_symmetry_multiplicity
_atom_site_Wyckoff_symbol
_atom_site_fract_x
_atom_site_fract_y
_atom_site_fract_z
_atom_site_occupancy
_atom_site_attached_hydrogens
W1 W6+ 4 c 0 0.4749(3) 0.250 1. 0 
W2 W6+ 8 d 0.3556(2) 0.3958(2) 0.1178(2) 1. 0 
Al1 Al3+ 8 d 0.3803(9) 0.2512(15) 0.4704(12) 1. 0 
O1 O2- 8 d 0.1429(17) 0.0884(10) 0.0863(19) 1. 0 
O2 O2- 8 d 0.0677(13) 0.3599(19) 0.1243(20) 1. 0 
O3 O2- 8 d 0.2624(13) 0.3102(19) -0.0017(18) 1. 0 
O4 O2- 8 d 0.4013(11) 0.0770(18) 0.3372(19) 1. 0 
O5 O2- 8 d 0.4743(10) 0.3201(20) 0.0623(19) 1. 0 
O6 O2- 8 d 0.3278(15) 0.3642(20) 0.3071(11) 1. 0 

#End of data_164491-ICSD


