data_35404-ICSD
#?2014 by Fachinformationszentrum Karlsruhe, and the U.S. Secretary of 
#Commerce on behalf of the United States.  All rights reserved.
_database_code_ICSD                35404
_audit_creation_date               1983/12/31
_audit_update_record               2012/02/01
_chemical_name_systematic
;
Pentaiododiphosphorus Tetraiodoaluminate
;
_chemical_formula_structural       '(P2 I5) (Al I4)'
_chemical_formula_sum              'Al1 I9 P2'
_publ_section_title
;
Die Kristallstruktur von Al I3 2P I3: ein (P2 I5)(+) (Al I4)(-)
;
loop_
_citation_id
_citation_journal_abbrev
_citation_year
_citation_journal_volume
_citation_page_first
_citation_page_last
_citation_journal_id_ASTM
primary 'Zeitschrift fuer Anorganische und Allgemeine Chemie (1950) (DE)'
 1983 498 20 24 ZAACAB
_publ_author_name                  'Pohl, S.'
_cell_length_a                     10.883(4)
_cell_length_b                     18.273(7)
_cell_length_c                     20.316(8)
_cell_angle_alpha                  90.
_cell_angle_beta                   90.
_cell_angle_gamma                  90.
_cell_volume                       4040.14
_cell_formula_units_Z              8
_symmetry_space_group_name_H-M     'P b c a'
_symmetry_Int_Tables_number        61
_refine_ls_R_factor_all            .099
loop_
_symmetry_equiv_pos_site_id
_symmetry_equiv_pos_as_xyz
  1	'x+.5, y, -z+.5'
  2	'x, -y+.5, z+.5'
  3	'-x+.5, y+.5, z'
  4	'-x, -y, -z'
  5	'-x+.5, -y, z+.5'
  6	'-x, y+.5, -z+.5'
  7	'x+.5, -y+.5, -z'
  8	'x, y, z'
loop_
_atom_type_symbol
_atom_type_oxidation_number
Al3+	3
I1-	-1
P3+	3
loop_
_atom_site_label
_atom_site_type_symbol
_atom_site_symmetry_multiplicity
_atom_site_Wyckoff_symbol
_atom_site_fract_x
_atom_site_fract_y
_atom_site_fract_z
_atom_site_occupancy
_atom_site_attached_hydrogens
_atom_site_B_iso_or_equiv
I1 I1- 8 c 0.23423(22) 0.33371(14) 0.13370(11) 1. 0 0 
I2 I1- 8 c 0.50083(24) 0.20235(14) 0.21550(11) 1. 0 0 
I3 I1- 8 c 0.48558(25) 0.22921(14) 0.01413(11) 1. 0 0 
I4 I1- 8 c 0.20862(22) 0.11347(14) 0.10701(11) 1. 0 0 
I5 I1- 8 c -.00998(22) 0.00030(14) 0.40090(11) 1. 0 0 
I6 I1- 8 c 0.15479(26) -.16647(15) 0.33141(12) 1. 0 0 
I7 I1- 8 c 0.49302(23) -.07171(14) 0.36868(12) 1. 0 0 
I8 I1- 8 c 0.25416(25) 0.03660(13) 0.26196(10) 1. 0 0 
I9 I1- 8 c 0.32363(28) 0.09889(16) 0.44137(14) 1. 0 0 
P1 P3+ 8 c 0.16583(84) -.07802(49) 0.41979(43) 1. 0 3.42 
P2 P3+ 8 c 0.30149(87) -.00562(48) 0.37087(40) 1. 0 3.17 
Al1 Al3+ 8 c 0.36203(91) 0.22021 0.11787(44) 1. 0 3.13 

loop_
_atom_site_aniso_label
_atom_site_aniso_type_symbol
_atom_site_aniso_B_11
_atom_site_aniso_B_22
_atom_site_aniso_B_33
_atom_site_aniso_B_12
_atom_site_aniso_B_13
_atom_site_aniso_B_23
I1 I1- 2.96(11) 5.27(13) 4.57(11) 0.6(1) -.48(10) -.12(10)
I2 I1- 4.82(13) 5.53(14) 3.50(11) 0.88(12) 1.62(10) 0.38(10)
I3 I1- 5.54(14) 5.96(14) 3.12(11) -.83(13) 1.5(1) 0.06(10)
I4 I1- 3.81(12) 5.44(13) 3.48(11) -1.18(11) -.38(9) 0.71(10)
I5 I1- 3.55(12) 6.34(15) 4.27(12) -.06(12) 0.32(10) -.25(11)
I6 I1- 5.98(16) 5.60(15) 3.92(12) 0.97(12) -.73(11) -1.07(11)
I7 I1- 3.50(12) 4.88(13) 5.46(13) -.20(11) -.18(10) -.16(11)
I8 I1- 4.85(13) 5.74(13) 2.98(10) 0.33(12) 0.67(10) 1.20(9)
I9 I1- 5.80(16) 6.37(17) 6.97(17) 0.22(14) -1.50(13) -3.12(13)
#End of data_35404-ICSD


