data_656846-ICSD
#?2014 by Fachinformationszentrum Karlsruhe, and the U.S. Secretary of 
#Commerce on behalf of the United States.  All rights reserved.
_database_code_ICSD                656846
_audit_creation_date               2013/08/01
_chemical_name_systematic          'Calcium Nickel Nitride (1/1/1)'
_chemical_formula_structural       'Ca Ni N'
_chemical_formula_sum              'Ca1 N1 Ni1'
_publ_section_title
;
Ca ((Ni1-x Lix) N): limited solid solutions (0 < x < 0.58) in the 
system Ca (Ni N) (Y (Co C) - type structure)- Ca (Li N) (modified 
fluorite- type structure)
;
loop_
_citation_id
_citation_journal_abbrev
_citation_year
_citation_journal_volume
_citation_page_first
_citation_page_last
_citation_journal_id_ASTM
primary 'Journal of Alloys and Compounds' 1992 186 339 345 JALCEU
_publ_author_name                  'Gudat, A.;Kniep, R.;Maier, J.'
_cell_length_a                     3.583(1)
_cell_length_b                     3.583(1)
_cell_length_c                     7.006(3)
_cell_angle_alpha                  90.0
_cell_angle_beta                   90.0
_cell_angle_gamma                  90.0
_cell_volume                       89.94
_cell_formula_units_Z              2
_symmetry_space_group_name_H-M     'P 42/m m c'
_symmetry_Int_Tables_number        131
loop_
_symmetry_equiv_pos_site_id
_symmetry_equiv_pos_as_xyz
  1	'y, x, z+.5'
  2	'-y, -x, z+.5'
  3	'-x, y, z'
  4	'x, -y, z'
  5	'-y, x, -z+.5'
  6	'y, -x, -z+.5'
  7	'x, y, -z'
  8	'-x, -y, -z'
  9	'-y, -x, -z+.5'
 10	'y, x, -z+.5'
 11	'x, -y, -z'
 12	'-x, y, -z'
 13	'y, -x, z+.5'
 14	'-y, x, z+.5'
 15	'-x, -y, z'
 16	'x, y, z'
loop_
_atom_type_symbol
_atom_type_oxidation_number
Ca2+	2
N3-	-3
Ni1+	1
loop_
_atom_site_label
_atom_site_type_symbol
_atom_site_symmetry_multiplicity
_atom_site_Wyckoff_symbol
_atom_site_fract_x
_atom_site_fract_y
_atom_site_fract_z
_atom_site_occupancy
_atom_site_attached_hydrogens
Ca1 Ca2+ 2 e 0 0 0.25 1. 0 
N1 N3- 2 c 0 0.5 0 1. 0 
Ni1 Ni1+ 2 b 0.5 0.5 0 1. 0 

#End of data_656846-ICSD


