data_184888-ICSD
#?2014 by Fachinformationszentrum Karlsruhe, and the U.S. Secretary of 
#Commerce on behalf of the United States.  All rights reserved.
_database_code_ICSD                184888
_audit_creation_date               2013/02/01
_chemical_name_systematic          'Disodium Zinc Diphosphate(V)'
_chemical_formula_structural       'Na2 Zn (P2 O7)'
_chemical_formula_sum              'Na2 O7 P2 Zn1'
_publ_section_title
;
Luminescence (M = Mn(2+), Cu(2+)) and ESR (M = Gd(3+), Mn(2+), 
Cu(2+)) of Na2 Zn P2 O7:M
;
loop_
_citation_id
_citation_journal_abbrev
_citation_year
_citation_journal_volume
_citation_journal_issue
_citation_page_first
_citation_page_last
_citation_journal_id_ASTM
primary 'Physica B, Condensed Matter' 2012 407 12 2094 2099 PHYBE3
2 'Journal of Solid State Chemistry' 2000 152- 466 473 JSSCBI
_publ_author_name                  'Vijaya Kumar, B.;Vithal, M.'
_cell_length_a                     7.716
_cell_length_b                     7.716
_cell_length_c                     10.49
_cell_angle_alpha                  90.
_cell_angle_beta                   90.
_cell_angle_gamma                  90.
_cell_volume                       624.54
_cell_formula_units_Z              4
_symmetry_space_group_name_H-M     'P 42/m n m'
_symmetry_Int_Tables_number        136
loop_
_symmetry_equiv_pos_site_id
_symmetry_equiv_pos_as_xyz
  1	'-y+.5, x+.5, -z+.5'
  2	'y+.5, -x+.5, -z+.5'
  3	'y, x, -z'
  4	'-y, -x, -z'
  5	'y+.5, -x+.5, z+.5'
  6	'-y+.5, x+.5, z+.5'
  7	'-y, -x, z'
  8	'y, x, z'
  9	'x+.5, -y+.5, -z+.5'
 10	'-x+.5, y+.5, -z+.5'
 11	'x, y, -z'
 12	'-x, -y, -z'
 13	'-x+.5, y+.5, z+.5'
 14	'x+.5, -y+.5, z+.5'
 15	'-x, -y, z'
 16	'x, y, z'
loop_
_atom_type_symbol
_atom_type_oxidation_number
Na1+	1
O2-	-2
P5+	5
Zn2+	2
loop_
_atom_site_label
_atom_site_type_symbol
_atom_site_symmetry_multiplicity
_atom_site_Wyckoff_symbol
_atom_site_fract_x
_atom_site_fract_y
_atom_site_fract_z
_atom_site_occupancy
_atom_site_attached_hydrogens
Zn1 Zn2+ 4 d 0 0.5 0.25 1. 0 
Na1 Na1+ 4 f 0.359 0.359 0 1. 0 
Na2 Na1+ 4 g 0.302 0.302 0.5 1. 0 
P1 P5+ 8 j 0.136 0.136 0.212 1. 0 
O1 O2- 4 e 0 0 0.157 1. 0 
O2 O2- 8 j 0.135 0.135 0.357 1. 0 
O3 O2- 16 k 0.077 0.303 0.148 1. 0 

#End of data_184888-ICSD


