data_240975-ICSD
#?2014 by Fachinformationszentrum Karlsruhe, and the U.S. Secretary of 
#Commerce on behalf of the United States.  All rights reserved.
_database_code_ICSD                240975
_audit_creation_date               2008/08/01
_chemical_name_systematic
;
Trisodium Dicalcium Bismuth Hexaoxide
;
_chemical_formula_structural       'Na3 Ca2 Bi O6'
_chemical_formula_sum              'Bi1 Ca2 Na3 O6'
_publ_section_title
;
Trisodium dicalcium bismuth hexaoxide
;
loop_
_citation_id
_citation_journal_abbrev
_citation_year
_citation_journal_volume
_citation_journal_issue
_citation_page_first
_citation_page_last
_citation_journal_id_ASTM
primary 'Acta Crystallographica, Section E. Structure Reports Online'
 2007 63 3 i95 i96 ACSEBH
_publ_author_name
;
Puzdrjakova, I.V.;Macquart, R.B.;Smith, M.D.;zur Loye, H.C.
;
_cell_length_a                     6.7039(8)
_cell_length_b                     9.6251(11)
_cell_length_c                     19.947(2)
_cell_angle_alpha                  90.
_cell_angle_beta                   90.
_cell_angle_gamma                  90.
_cell_volume                       1287.09
_cell_formula_units_Z              8
_symmetry_space_group_name_H-M     'F d d d Z'
_symmetry_Int_Tables_number        70
_refine_ls_R_factor_all            .0126
loop_
_symmetry_equiv_pos_site_id
_symmetry_equiv_pos_as_xyz
  1	'x+.75, y+.75, -z'
  2	'x+.75, -y, z+.75'
  3	'-x, y+.75, z+.75'
  4	'-x, -y, -z'
  5	'-x+.25, -y+.25, z'
  6	'-x+.25, y, -z+.25'
  7	'x, -y+.25, -z+.25'
  8	'x, y, z'
  9	'x+.75, y+.25, -z+.5'
 10	'x+.25, y+.75, -z+.5'
 11	'x+.25, y+.25, -z'
 12	'x+.75, -y+.5, z+.25'
 13	'x+.25, -y, z+.25'
 14	'x+.25, -y+.5, z+.75'
 15	'-x, y+.25, z+.25'
 16	'-x+.5, y+.75, z+.25'
 17	'-x+.5, y+.25, z+.75'
 18	'-x, -y+.5, -z+.5'
 19	'-x+.5, -y, -z+.5'
 20	'-x+.5, -y+.5, -z'
 21	'-x+.25, -y+.75, z+.5'
 22	'-x+.75, -y+.25, z+.5'
 23	'-x+.75, -y+.75, z'
 24	'-x+.25, y+.5, -z+.75'
 25	'-x+.75, y, -z+.75'
 26	'-x+.75, y+.5, -z+.25'
 27	'x, -y+.75, -z+.75'
 28	'x+.5, -y+.25, -z+.75'
 29	'x+.5, -y+.75, -z+.25'
 30	'x, y+.5, z+.5'
 31	'x+.5, y, z+.5'
 32	'x+.5, y+.5, z'
loop_
_atom_type_symbol
_atom_type_oxidation_number
Bi5+	5
Ca2+	2
Na1+	1
O2-	-2
loop_
_atom_site_label
_atom_site_type_symbol
_atom_site_symmetry_multiplicity
_atom_site_Wyckoff_symbol
_atom_site_fract_x
_atom_site_fract_y
_atom_site_fract_z
_atom_site_occupancy
_atom_site_attached_hydrogens
_atom_site_U_iso_or_equiv
Bi1 Bi5+ 8 b 0.1250 0.1250 0.6250 1 0 0.00649(8) 
Ca1 Ca2+ 16 g 0.1250 0.1250 0.45560(4) 1 0 0.00951(17) 
Na1 Na1+ 8 a 0.1250 0.1250 0.1250 1 0 0.0161(6) 
Na2 Na1+ 16 g 0.1250 0.1250 0.28796(9) 1 0 0.0092(3) 
O1 O2- 16 f 0.1250 0.4051(3) 0.1250 1 0 0.0108(6) 
O2 O2- 32 h 0.4013(4) 0.1212(3) 0.04863(11) 1 0 0.0103(5) 

loop_
_atom_site_aniso_label
_atom_site_aniso_type_symbol
_atom_site_aniso_U_11
_atom_site_aniso_U_22
_atom_site_aniso_U_33
_atom_site_aniso_U_12
_atom_site_aniso_U_13
_atom_site_aniso_U_23
Bi1 Bi5+ 0.00614(12) 0.00677(11) 0.00656(11) 0.000 0.000 0.000
Ca1 Ca2+ 0.0095(4) 0.0099(4) 0.0092(4) -0.0007(9) 0.000 0.000
Na1 Na1+ 0.0072(13) 0.0288(15) 0.0122(12) 0.000 0.000 0.000
Na2 Na1+ 0.0085(9) 0.0096(8) 0.0094(8) -0.0016(19) 0.000 0.000
O1 O2- 0.0122(16) 0.0089(13) 0.0113(14) 0.000 -0.0009(14) 0.000
O2 O2- 0.0081(11) 0.0131(11) 0.0097(10) -0.0001(12) -0.0015(8) -0.0005(8)
#End of data_240975-ICSD


