data_59848-ICSD
#?2014 by Fachinformationszentrum Karlsruhe, and the U.S. Secretary of 
#Commerce on behalf of the United States.  All rights reserved.
_database_code_ICSD                59848
_audit_creation_date               2005/10/01
_audit_update_record               2007/08/01
_chemical_name_systematic          'Gadolinium Aluminium Oxide'
_chemical_formula_structural       'Gd Al O3'
_chemical_formula_sum              'Al1 Gd1 O3'
_publ_section_title                'Gd Al O3 Perovskite'
loop_
_citation_id
_citation_journal_abbrev
_citation_year
_citation_journal_volume
_citation_page_first
_citation_page_last
_citation_journal_id_ASTM
primary 'Acta Crystallographica, Section C: Crystal Structure Communications'
 2004 60 i120 i122 ACSCEE
2 'Golden Book of Phase Transitions, Wroclaw' 2002 1 1 123 GBOPT5
_publ_author_name
;
du Boulay, D.;Ishizawa, N.;Maslen, E.N.
;
_cell_length_a                     5.3049(7)
_cell_length_b                     7.4485(9)
_cell_length_c                     5.2537(6)
_cell_angle_alpha                  90.
_cell_angle_beta                   90.
_cell_angle_gamma                  90.
_cell_volume                       207.59
_cell_formula_units_Z              4
_symmetry_space_group_name_H-M     'P n m a'
_symmetry_Int_Tables_number        62
_refine_ls_R_factor_all            .0117
loop_
_symmetry_equiv_pos_site_id
_symmetry_equiv_pos_as_xyz
  1	'x+.5, y, -z+.5'
  2	'x, -y+.5, z'
  3	'-x+.5, y+.5, z+.5'
  4	'-x, -y, -z'
  5	'-x+.5, -y, z+.5'
  6	'-x, y+.5, -z'
  7	'x+.5, -y+.5, -z+.5'
  8	'x, y, z'
loop_
_atom_type_symbol
_atom_type_oxidation_number
Al3+	3
Gd3+	3
O2-	-2
loop_
_atom_site_label
_atom_site_type_symbol
_atom_site_symmetry_multiplicity
_atom_site_Wyckoff_symbol
_atom_site_fract_x
_atom_site_fract_y
_atom_site_fract_z
_atom_site_occupancy
_atom_site_attached_hydrogens
_atom_site_U_iso_or_equiv
Al1 Al3+ 4 a .00000 .00000 .00000 1.00000 0 .00318(8) 
Gd1 Gd3+ 4 c .462223(7) .25000 -.008091(7) 1.00000 0 .003969(17) 
O1 O2- 4 c .01389(12) .25000 .07210(12) 1.00000 0 .00495(16) 
O2 O2- 8 d .28504(8) -.03823(6) .21534(8) 1.00000 0 .00479(12) 

loop_
_atom_site_aniso_label
_atom_site_aniso_type_symbol
_atom_site_aniso_U_11
_atom_site_aniso_U_22
_atom_site_aniso_U_33
_atom_site_aniso_U_12
_atom_site_aniso_U_13
_atom_site_aniso_U_23
Al1 Al3+ .00342(8) .00306(8) .00305(8) -.00007(7) .00012(6) .00006(5)
Gd1 Gd3+ .004376(17) .003646(16) .003885(17) .00000 .000505(8) .00000
O1 O2- .00661(18) .00312(15) .00510(17) .00000 .00044(14) .00000
O2 O2- .00434(12) .00536(12) .00467(12) .00040(9) -.00127(9) -.00035(9)
#End of data_59848-ICSD


