data_66581-ICSD
#?2014 by Fachinformationszentrum Karlsruhe, and the U.S. Secretary of 
#Commerce on behalf of the United States.  All rights reserved.
_database_code_ICSD                66581
_audit_creation_date               1994/01/19
_audit_update_record               2013/08/01
_chemical_name_systematic          'Copper(I) Silver Sulfide'
_chemical_formula_structural       'Cu Ag S'
_chemical_formula_sum              'Ag1 Cu1 S1'
_chemical_name_mineral             'Stromeyerite low'
_publ_section_title
;
A low-temperature structural phase transformation in Cu Ag S
;
loop_
_citation_id
_citation_journal_abbrev
_citation_year
_citation_journal_volume
_citation_page_first
_citation_page_last
_citation_journal_id_ASTM
primary 'Acta Crystallographica, Section B: Structural Science'
 1991 47 891 899 ASBSDK
2 'Golden Book of Phase Transitions, Wroclaw' 2002 1 1 123 GBOPT5
_publ_author_name
;
Baker, C.L.;Lincoln, F.J.;Johnson, A.W.S.
;
_cell_length_a                     4.0470(4)
_cell_length_b                     6.5920(7)
_cell_length_c                     7.9300(8)
_cell_angle_alpha                  90.
_cell_angle_beta                   90.
_cell_angle_gamma                  90.
_cell_volume                       211.56
_cell_formula_units_Z              4
_symmetry_space_group_name_H-M     'P m c 21'
_symmetry_Int_Tables_number        26
_refine_ls_R_factor_all            .036
loop_
_symmetry_equiv_pos_site_id
_symmetry_equiv_pos_as_xyz
  1	'x, -y, z+.5'
  2	'-x, -y, z+.5'
  3	'-x, y, z'
  4	'x, y, z'
loop_
_atom_type_symbol
_atom_type_oxidation_number
Ag1+	1
Cu1+	1
S2-	-2
loop_
_atom_site_label
_atom_site_type_symbol
_atom_site_symmetry_multiplicity
_atom_site_Wyckoff_symbol
_atom_site_fract_x
_atom_site_fract_y
_atom_site_fract_z
_atom_site_occupancy
_atom_site_attached_hydrogens
Ag1 Ag1+ 2 a 0 -.0560(2) 0.5 1. 0 
Ag2 Ag1+ 2 b 0.5 0.4402(2) 0.9728(1) 1. 0 
Cu1 Cu1+ 2 a 0 0.5674(2) 0.7297(3) 1. 0 
Cu2 Cu1+ 2 b 0.5 0.0663(2) 0.7424(3) 1. 0 
S1 S2- 2 a 0 0.2161(4) 0.7215(5) 1. 0 
S2 S2- 2 b 0.5 0.7133(4) 0.7594(5) 1. 0 

loop_
_atom_site_aniso_label
_atom_site_aniso_type_symbol
_atom_site_aniso_U_11
_atom_site_aniso_U_22
_atom_site_aniso_U_33
_atom_site_aniso_U_12
_atom_site_aniso_U_13
_atom_site_aniso_U_23
Ag1 Ag1+ 0.0103(3) 0.0322(5) 0.0117(5) 0 0 -.0138(4)
Ag2 Ag1+ 0.0138(4) 0.0233(4) 0.0077(4) 0 0 0.0037(4)
Cu1 Cu1+ 0.0055(5) 0.0107(5) 0.0122(8) 0 0 0.0013(6)
Cu2 Cu1+ 0.0058(5) 0.0088(5) 0.0094(8) 0 0 0.0006(6)
S1 S2- 0.0038(8) 0.0058(8) 0.0085(12) 0 0 0.0002(9)
S2 S2- 0.0056(9) 0.0073(8) 0.0092(13) 0 0 -.0009(9)
#End of data_66581-ICSD


