data_96596-ICSD
#?2014 by Fachinformationszentrum Karlsruhe, and the U.S. Secretary of 
#Commerce on behalf of the United States.  All rights reserved.
_database_code_ICSD                96596
_audit_creation_date               2004/04/01
_audit_update_record               2008/02/01
_chemical_name_systematic          'Sodium Carbonate - Delta'
_chemical_formula_structural       'Na2 (C O3)'
_chemical_formula_sum              'C1 Na2 O3'
_publ_section_title                'Sodium carbonate revisited'
loop_
_citation_id
_citation_journal_abbrev
_citation_year
_citation_journal_volume
_citation_page_first
_citation_page_last
_citation_journal_id_ASTM
primary 'Acta Crystallographica, Section B: Structural Science'
 2003 59 337 352 ASBSDK
2 'Golden Book of Phase Transitions, Wroclaw' 2002 1 1 123 GBOPT5
_publ_author_name
;
Dusek, M.;Chapuis, G.;Meyer, M.;Petricek, V.
;
_cell_length_a                     19.91(2)
_cell_length_b                     5.237(6)
_cell_length_c                     17.99(2)
_cell_angle_alpha                  90.
_cell_angle_beta                   119.01(5)
_cell_angle_gamma                  90.
_cell_volume                       1640.45
_cell_formula_units_Z              24
_symmetry_space_group_name_H-M     'P 1 21/n 1'
_symmetry_Int_Tables_number        14
_refine_ls_R_factor_all            .043
loop_
_symmetry_equiv_pos_site_id
_symmetry_equiv_pos_as_xyz
  1	'-x+.5, y+.5, -z+.5'
  2	'-x, -y, -z'
  3	'x+.5, -y+.5, z+.5'
  4	'x, y, z'
loop_
_atom_type_symbol
_atom_type_oxidation_number
C4+	4
Na1+	1
O2-	-2
loop_
_atom_site_label
_atom_site_type_symbol
_atom_site_symmetry_multiplicity
_atom_site_Wyckoff_symbol
_atom_site_fract_x
_atom_site_fract_y
_atom_site_fract_z
_atom_site_occupancy
_atom_site_attached_hydrogens
_atom_site_U_iso_or_equiv
Na1 Na1+ 4 e 0.00003(4) 0.03491(10) -.00021(4) 1. 0 0.0092(3) 
Na2 Na1+ 4 e 0.49742(4) 0.06370(10) 0.16425(5) 1. 0 0.0093(2) 
Na3 Na1+ 4 e 0.99974(4) 0.01155(10) 0.33290(5) 1. 0 0.0084(2) 
Na4 Na1+ 4 e -.00038(4) 0.05997(10) 0.16675(5) 1. 0 0.0081(2) 
Na5 Na1+ 4 e 0.49873(4) 0.02327(10) 0.33324(5) 1. 0 0.0090(2) 
Na6 Na1+ 4 e 0.99989(4) -0.0524(10) 0.49910(4) 1. 0 0.0088(3) 
Na7 Na1+ 4 e 0.08609(4) 0.54498(11) 0.27874(5) 1. 0 0.0125(3) 
Na8 Na1+ 4 e 0.58872(4) 0.47163(12) 0.44740(5) 1. 0 0.0134(3) 
Na9 Na1+ 4 e 0.08713(4) 0.42904(11) 0.61010(5) 1. 0 0.0121(3) 
Na10 Na1+ 4 e -.08099(8) 0.4396(2) 0.72532(10) 1. 0 0.0125(5) 
Na11 Na1+ 4 e 0.41465(8) 0.5218(2) 0.88803(10) 1. 0 0.0139(5) 
Na12 Na1+ 4 e 0.91453(8) 0.5616(2) 0.05597(10) 1. 0 0.0118(5) 
C1 C4+ 4 e 0.08211(7) 0.55578(18) 0.11039(8) 1. 0 0.0064(5) 
C2 C4+ 4 e 0.58224(7) 0.53964(18) 0.27756(9) 1. 0 0.0075(5) 
C3 C4+ 4 e 0.08277(7) 0.47325(16) 0.44293(8) 1. 0 0.0071(5) 
C4 C4+ 4 e -.08294(7) 0.49655(17) 0.88972(8) 1. 0 0.0076(5) 
C5 C4+ 4 e 0.41884(7) 0.56417(18) 0.05564(9) 1. 0 0.0066(5) 
C6 C4+ 4 e 0.91759(7) 0.54406(17) 0.22324(8) 1. 0 0.0069(5) 
O1 O2- 4 e 0.03693(6) 0.36473(18) 0.09896(8) 1. 0 0.0123(4) 
O2 O2- 4 e 0.54969(7) 0.33586(20) 0.28544(8) 1. 0 0.0154(5) 
O3 O2- 4 e 0.06487(6) 0.25633(18) 0.46323(8) 1. 0 0.0120(4) 
O4 O2- 4 e 0.56444(4) 0.22169(11) 0.62640(5) 1. 0 0.0122(3) 
O5 O2- 4 e 0.04989(4) 0.24243(12) 0.77149(5) 1. 0 0.0138(3) 
O6 O2- 4 e 0.53734(4) 0.33359(11) 0.92626(5) 1. 0 0.0115(3) 
O7 O2- 4 e -.06464(9) 0.2804(2) 0.87006(11) 1. 0 0.0146(5) 
O8 O2- 4 e 0.46436(8) 0.3814(2) 0.06108(10) 1. 0 0.0147(5) 
O9 O2- 4 e 0.96338(8) 0.3536(2) 0.23796(10) 1. 0 0.0118(5) 
O10 O2- 4 e 0.46126(7) 0.30882(18) 0.40518(8) 1. 0 0.0144(5) 
O11 O2- 4 e 0.93445(7) 0.20608(18) 0.54412(8) 1. 0 0.0135(5) 
O12 O2- 4 e 0.43402(7) 0.23668(18) 0.70332(8) 1. 0 0.0120(5) 
O13 O2- 4 e 0.14454(7) 0.52303(19) 0.10646(9) 1. 0 0.0111(5) 
O14 O2- 4 e 0.64588(7) 0.52523(17) 0.27575(8) 1. 0 0.0125(5) 
O15 O2- 4 e 0.14580(7) 0.49702(17) 0.43988(8) 1. 0 0.0109(5) 
O16 O2- 4 e 0.85459(6) 0.51710(19) 0.89420(8) 1. 0 0.0109(4) 
O17 O2- 4 e 0.35792(7) 0.51566(19) 0.06112(8) 1. 0 0.0124(5) 
O18 O2- 4 e 0.85551(6) 0.51497(18) 0.22787(8) 1. 0 0.0109(4) 

#End of data_96596-ICSD


