data_261469-ICSD
#?2014 by Fachinformationszentrum Karlsruhe, and the U.S. Secretary of 
#Commerce on behalf of the United States.  All rights reserved.
_database_code_ICSD                261469
_audit_creation_date               2011/08/01
_chemical_name_systematic          'Dipotassium Titanium Pentafluoride'
_chemical_formula_structural       'K2 Ti F5'
_chemical_formula_sum              'F5 K2 Ti1'
_publ_section_title
;
A2 Ti F5 * n H2 O (A= K, Rb, or Cs; n= 0 or 1): Synthesis, structure, 
characterization, and calculations of three new uni-dimensional 
titanium fluorides
;
loop_
_citation_id
_citation_journal_abbrev
_citation_year
_citation_journal_volume
_citation_journal_issue
_citation_page_first
_citation_page_last
_citation_journal_id_ASTM
primary 'Journal of Solid State Chemistry' 2011 184 4 741 746 JSSCBI
_publ_author_name                  'Jo Vinna;Lee Dong Woo;Koo Hyun-Joo'
_cell_length_a                     5.9550(12)
_cell_length_b                     7.4170(15)
_cell_length_c                     10.718(2)
_cell_angle_alpha                  90
_cell_angle_beta                   90
_cell_angle_gamma                  90
_cell_volume                       473.4
_cell_formula_units_Z              4
_symmetry_space_group_name_H-M     'P n m a'
_symmetry_Int_Tables_number        62
_refine_ls_R_factor_all            .0572
loop_
_symmetry_equiv_pos_site_id
_symmetry_equiv_pos_as_xyz
  1	'x+.5, y, -z+.5'
  2	'x, -y+.5, z'
  3	'-x+.5, y+.5, z+.5'
  4	'-x, -y, -z'
  5	'-x+.5, -y, z+.5'
  6	'-x, y+.5, -z'
  7	'x+.5, -y+.5, -z+.5'
  8	'x, y, z'
loop_
_atom_type_symbol
_atom_type_oxidation_number
F1-	-1
K1+	1
Ti3+	3
loop_
_atom_site_label
_atom_site_type_symbol
_atom_site_symmetry_multiplicity
_atom_site_Wyckoff_symbol
_atom_site_fract_x
_atom_site_fract_y
_atom_site_fract_z
_atom_site_occupancy
_atom_site_attached_hydrogens
_atom_site_U_iso_or_equiv
Ti1 Ti3+ 4 b 0 0.5 0.5 1 0 0.0191(3) 
K1 K1+ 4 c 0.50557(15) 0.25 0.36752(11) 1 0 0.0242(4) 
K2 K1+ 4 c 0.5908(5) 0.75 0.28350(19) 1 0 0.1054(9) 
F1 F1- 8 d 0.2833(3) 0.5538(2) 0.43350(17) 1 0 0.0233(5) 
F2 F1- 8 d 0.1142(3) 0.5384(2) 0.66189(17) 1 0 0.0232(5) 
F3 F1- 4 c 0.0859(5) 0.25 0.5114(3) 1 0 0.0317(7) 

loop_
_atom_site_aniso_label
_atom_site_aniso_type_symbol
_atom_site_aniso_U_11
_atom_site_aniso_U_22
_atom_site_aniso_U_33
_atom_site_aniso_U_12
_atom_site_aniso_U_13
_atom_site_aniso_U_23
Ti1 Ti3+ 0.0154(5) 0.0292(5) 0.0127(5) -0.0052(3) -0.0008(3) -0.0014(3)
K1 K1+ 0.0209(6) 0.0203(6) 0.0316(7) 0 0.0009(4) 0
K2 K1+ 0.214(3) 0.0413(9) 0.0606(13) 0 -0.0531(15) 0
F1 F1- 0.0215(9) 0.0171(9) 0.0313(11) -0.0005(7) 0.0079(8) -0.0015(7)
F2 F1- 0.0319(11) 0.0212(9) 0.0165(10) -0.0041(8) -0.0065(8) -0.0011(7)
F3 F1- 0.0338(16) 0.0225(14) 0.0388(18) 0 0.0007(13) 0
#End of data_261469-ICSD


