data_290663-ICSD
#?2014 by Fachinformationszentrum Karlsruhe, and the U.S. Secretary of 
#Commerce on behalf of the United States.  All rights reserved.
_database_code_ICSD                290663
_audit_creation_date               2014/08/01
_chemical_name_systematic
;
Tetrapotassium Dicerium Dialuminiumoctasilicate
;
_chemical_formula_structural       'K4 Ce2 (Al2 Si8 O24)'
_chemical_formula_sum              'Al2 Ce2 K4 O24 Si8'
_publ_section_title
;
Crystal structures and luminescence properties of novel compounds K4 
M2 [Al2 Si8 O24] (M = Ce, Gd)
;
loop_
_citation_id
_citation_journal_abbrev
_citation_year
_citation_journal_volume
_citation_journal_issue
_citation_page_first
_citation_page_last
_citation_journal_id_ASTM
primary 'Crystallography Reports' 2013 58 6 835 841 CYSTE3
_publ_author_name
;
S.M. Aksenov;V.A. Rassulov;R.K. Rastsvetaeva;V.K. Taroev
;
_cell_length_a                     26.867(1)
_cell_length_b                     7.4150(2)
_cell_length_c                     14.910(1)
_cell_angle_alpha                  90
_cell_angle_beta                   123.52(1)
_cell_angle_gamma                  90
_cell_volume                       2476.36
_cell_formula_units_Z              4
_symmetry_space_group_name_H-M     'P 1 21/n 1'
_symmetry_Int_Tables_number        14
_refine_ls_R_factor_all            .052
loop_
_symmetry_equiv_pos_site_id
_symmetry_equiv_pos_as_xyz
  1	'-x+.5, y+.5, -z+.5'
  2	'-x, -y, -z'
  3	'x+.5, -y+.5, z+.5'
  4	'x, y, z'
loop_
_atom_type_symbol
_atom_type_oxidation_number
Al3+	3
Ce3+	3
K1+	1
O2-	-2
Si4+	4
loop_
_atom_site_label
_atom_site_type_symbol
_atom_site_symmetry_multiplicity
_atom_site_Wyckoff_symbol
_atom_site_fract_x
_atom_site_fract_y
_atom_site_fract_z
_atom_site_occupancy
_atom_site_attached_hydrogens
_atom_site_U_iso_or_equiv
Ce1 Ce3+ 4 e 0.2299(1) 0.2165(1) 0.2512(1) 1. 0 0.0079(1) 
Ce2 Ce3+ 4 e 0.7699(1) 0.2117(1) 0.2488(1) 1. 0 0.0063(1) 
K1 K1+ 4 e 0.3070(1) 0.5040(1) 0.0275(1) 1. 0 0.0257(4) 
K2 K1+ 4 e 0.8069(1) -0.0005(2) 0.0257(1) 1. 0 0.0289(4) 
K3 K1+ 4 e 0.9637(1) 0.7552(3) 0.0396(2) 1. 0 0.0520(9) 
K4 K1+ 4 e 0.4629(1) 0.2553(3) 0.0381(2) 1. 0 0.060(1) 
Si1 Si4+ 4 e 0.3365(1) -0.0297(1) 0.4977(1) 1. 0 0.0095(3) 
Si2 Si4+ 4 e 0.8371(1) 0.4666(1) 0.4971(1) 1. 0 0.0070(2) 
Si3 Si4+ 4 e 0.8427(1) 0.4744(1) 0.7102(1) 1. 0 0.0091(3) 
Si4 Si4+ 4 e 0.6175(1) 0.3557(1) 0.1577(1) 1. 0 0.0068(2) 
Si5 Si4+ 4 e 0.8428(1) 0.5208(1) 0.2109(1) 1. 0 0.0061(2) 
Si6 Si4+ 4 e 0.1176(1) 0.8585(1) 0.1585(1) 1. 0 0.0078(2) 
Si7 Si4+ 4 e 0.9385(1) 0.2637(1) 0.0787(1) 1. 0 0.0087(3) 
Si8 Si4+ 4 e 0.4384(1) 0.7601(1) 0.0777(1) 1. 0 0.0081(3) 
Al1 Al3+ 4 e 0.5717(1) 0.6872(1) 0.2279(1) 1. 0 0.0089(3) 
Al2 Al3+ 4 e 0.0716(1) 0.1926(1) 0.2280(1) 1. 0 0.0074(3) 
O1 O2- 4 e 0.6096(1) 0.1502(3) 0.1930(2) 1. 0 0.0114(7) 
O2 O2- 4 e 0.8903(1) 0.3478(3) 0.8139(1) 1. 0 0.0117(6) 
O3 O2- 4 e 0.5885(1) 0.3615(3) 0.0285(2) 1. 0 0.0179(9) 
O4 O2- 4 e 0.0876(2) 0.8608(4) 0.0298(2) 1. 0 0.022(1) 
O5 O2- 4 e 0.9261(1) 0.1454(3) 0.1541(2) 1. 0 0.0134(8) 
O6 O2- 4 e 0.9055(1) 0.5469(3) 0.5495(2) 1. 0 0.019(1) 
O7 O2- 4 e 0.4051(1) 0.0428(3) 0.5494(2) 1. 0 0.0164(9) 
O8 O2- 4 e 0.4273(1) 0.6463(4) 0.1582(2) 1. 0 0.0165(9) 
O9 O2- 4 e 0.8359(1) 0.3968(3) 0.6016(2) 1. 0 0.0120(7) 
O10 O2- 4 e 0.3346(2) -0.0951(4) 0.6017(2) 1. 0 0.020(1) 
O11 O2- 4 e 0.7121(1) 0.1240(3) 0.0674(2) 1. 0 0.0143(7) 
O12 O2- 4 e 0.1700(2) 0.2940(4) 0.0699(2) 1. 0 0.021(1) 
O13 O2- 4 e 0.0764(1) -0.0105(4) 0.1775(3) 1. 0 0.022(1) 
O14 O2- 4 e 0.8647(1) 0.6835(3) 0.7368(2) 1. 0 0.0130(7) 
O15 O2- 4 e 0.8649(1) 0.3138(3) 0.2368(2) 1. 0 0.0129(9) 
O16 O2- 4 e 0.5765(1) 0.4846(3) 0.1846(2) 1. 0 0.0044(8) 
O17 O2- 4 e 0.5075(1) 0.7990(3) 0.1273(2) 1. 0 0.0160(8) 
O18 O2- 4 e 0.0085(1) 0.3040(4) 0.1301(3) 1. 0 0.018(1) 
O19 O2- 4 e 0.2896(1) 0.1257(4) 0.4363(2) 1. 0 0.0120(1) 
O20 O2- 4 e 0.8311(1) 0.2881(3) 0.4309(2) 1. 0 0.0120(7) 
O21 O2- 4 e 0.1860(1) -0.0861(3) 0.2214(2) 1. 0 0.0132(7) 
O22 O2- 4 e 0.7791(1) 0.5177(3) 0.1975(2) 1. 0 0.0100(7) 
O23 O2- 4 e 0.7792(1) 0.4781(3) 0.6915(2) 1. 0 0.0119(8) 
O24 O2- 4 e 0.6866(1) 0.4130(3) 0.2233(2) 1. 0 0.0154(9) 

#End of data_290663-ICSD


