data_79393-ICSD
#?2014 by Fachinformationszentrum Karlsruhe, and the U.S. Secretary of 
#Commerce on behalf of the United States.  All rights reserved.
_database_code_ICSD                79393
_audit_creation_date               1996/10/14
_chemical_name_systematic
;
Tripotassium Tetramolybdo(V)pentaphosphate(V)
;
_chemical_formula_structural       'K3 (Mo4 P5 O24)'
_chemical_formula_sum              'K3 Mo4 O24 P5'
_publ_section_title
;
A Mo(V) monophosphate with a tunnel structure: K3 (Mo O)4 (P O4)5
;
loop_
_citation_id
_citation_journal_abbrev
_citation_year
_citation_journal_volume
_citation_page_first
_citation_page_last
_citation_journal_id_ASTM
primary 'Journal of Solid State Chemistry' 1995 114 61 65 JSSCBI
_publ_author_name
;
Hoareau, T.;Leclaire, A.;Borel, M.M.;Grandin, A.;Raveau, B.
;
_cell_length_a                     9.676(2)
_cell_length_b                     14.366(2)
_cell_length_c                     28.3910(50)
_cell_angle_alpha                  90.
_cell_angle_beta                   90.
_cell_angle_gamma                  90.
_cell_volume                       3946.5
_cell_formula_units_Z              8
_symmetry_space_group_name_H-M     'P b c a'
_symmetry_Int_Tables_number        61
_refine_ls_R_factor_all            .027
loop_
_symmetry_equiv_pos_site_id
_symmetry_equiv_pos_as_xyz
  1	'x+.5, y, -z+.5'
  2	'x, -y+.5, z+.5'
  3	'-x+.5, y+.5, z'
  4	'-x, -y, -z'
  5	'-x+.5, -y, z+.5'
  6	'-x, y+.5, -z+.5'
  7	'x+.5, -y+.5, -z'
  8	'x, y, z'
loop_
_atom_type_symbol
_atom_type_oxidation_number
K1+	1
Mo5+	5
O2-	-2
P5+	5
loop_
_atom_site_label
_atom_site_type_symbol
_atom_site_symmetry_multiplicity
_atom_site_Wyckoff_symbol
_atom_site_fract_x
_atom_site_fract_y
_atom_site_fract_z
_atom_site_occupancy
_atom_site_attached_hydrogens
_atom_site_B_iso_or_equiv
Mo1 Mo5+ 8 c 0.08166(5) 0.07282(3) 0.13996(2) 1. 0 0.387(6) 
Mo2 Mo5+ 8 c 0.42492(5) 0.39753(3) 0.35521(2) 1. 0 0.440(6) 
Mo3 Mo5+ 8 c 0.15227(5) 0.18304(3) 0.45592(2) 1. 0 0.388(6) 
Mo4 Mo5+ 8 c 0.49008(5) 0.22201(3) 0.20472(2) 1. 0 0.416(6) 
P1 P5+ 8 c 0.0978(1) 0.38266(9) 0.38551(5) 1. 0 0.40(2) 
P2 P5+ 8 c 0.4091(1) 0.09741(9) 0.10587(4) 1. 0 0.40(2) 
P3 P5+ 8 c 0.6632(1) 0.28253(9) 0.30368(4) 1. 0 0.46(2) 
P4 P5+ 8 c 0.4813(1) 0.24566(9) 0.44649(4) 1. 0 0.43(2) 
P5 P5+ 8 c 0.2861(1) 0.17366(9) 0.34431(5) 1. 0 0.41(2) 
K1 K1+ 8 c 0.1457(2) 0.46816(9) 0.26185(5) 1. 0 1.73(2) 
K2 K1+ 8 c 0.2861(2) 0.3334(1) 0.08124(6) 1. 0 2.22(3) 
K3 K1+ 8 c 0.2373(2) 0.4115(1) 0.49747(6) 1. 0 2.02(3) 
O1 O2- 8 c 0.1371(5) 0.0098(3) 0.1856(2) 1. 0 1.41(8) 
O2 O2- 8 c 0.0077(4) -.0384(3) 0.1032(1) 1. 0 0.75(6) 
O3 O2- 8 c 0.2570(4) 0.0661(3) 0.0997(1) 1. 0 0.79(6) 
O4 O2- 8 c 0.8898(4) 0.0943(3) 0.1645(1) 1. 0 0.68(6) 
O5 O2- 8 c 0.1438(5) 0.1921(3) 0.1701(2) 1. 0 1.22(7) 
O6 O2- 8 c 0.0109(5) 0.1590(3) 0.0821(1) 1. 0 0.80(6) 
O7 O2- 8 c 0.3879(5) 0.4412(3) 0.3022(2) 1. 0 1.38(8) 
O8 O2- 8 c 0.2443(4) 0.4250(3) 0.3874(2) 1. 0 0.87(6) 
O9 O2- 8 c 0.6232(4) 0.3650(3) 0.3358(2) 1. 0 0.89(7) 
O10 O2- 8 c 0.5019(5) 0.5137(3) 0.3826(2) 1. 0 1.29(7) 
O11 O2- 8 c 0.3590(5) 0.2673(3) 0.3433(2) 1. 0 1.00(7) 
O12 O2- 8 c 0.4968(5) 0.3374(3) 0.4198(1) 1. 0 1.00(7) 
O13 O2- 8 c 0.1932(5) 0.0852(3) 0.4847(2) 1. 0 1.38(8) 
O14 O2- 8 c 0.3371(4) 0.2434(3) 0.4697(2) 1. 0 1.02(7) 
O15 O2- 8 c 0.2136(4) 0.1566(3) 0.3916(1) 1. 0 0.87(6) 
O16 O2- 8 c -.0450(4) 0.1391(3) 0.4418(1) 1. 0 0.75(6) 
O17 O2- 8 c 0.0909(4) 0.2533(3) 0.5136(1) 1. 0 0.69(6) 
O18 O2- 8 c 0.0822(5) 0.3135(3) 0.4260(1) 1. 0 0.89(6) 
O19 O2- 8 c 0.4338(5) 0.1308(3) 0.2347(2) 1. 0 1.46(8) 
O20 O2- 8 c 0.4192(5) 0.1758(3) 0.1419(2) 1. 0 0.98(6) 
O21 O2- 8 c 0.6789(4) 0.1668(3) 0.1948(1) 1. 0 0.82(6) 
O22 O2- 8 c 0.3143(4) 0.2975(3) 0.2099(1) 1. 0 0.79(6) 
O23 O2- 8 c 0.5726(5) 0.2910(3) 0.2597(1) 1. 0 0.77(6) 
O24 O2- 8 c 0.5665(5) 0.3403(3) 0.1624(1) 1. 0 0.82(6) 

#End of data_79393-ICSD


