data_151569-ICSD
#?2014 by Fachinformationszentrum Karlsruhe, and the U.S. Secretary of 
#Commerce on behalf of the United States.  All rights reserved.
_database_code_ICSD                151569
_audit_creation_date               2006/10/01
_chemical_name_systematic          'Calcium Digermanate'
_chemical_formula_structural       'Ca (Ge2 O5)'
_chemical_formula_sum              'Ca1 Ge2 O5'
_publ_section_title
;
Structure and phase transition of Ca Ge2 O5 revisited
;
loop_
_citation_id
_citation_journal_abbrev
_citation_year
_citation_journal_volume
_citation_page_first
_citation_page_last
_citation_journal_id_ASTM
primary 'Physics and Chemistry of Minerals' 2004 31 224 231 PCMIDU
_publ_author_name                  'Malcherek, T.;Bosenick, A.'
_cell_length_a                     6.5413(5)
_cell_length_b                     8.7996(7)
_cell_length_c                     6.8718(5)
_cell_angle_alpha                  88.358(2)
_cell_angle_beta                   113.020(1)
_cell_angle_gamma                  90.895(2)
_cell_volume                       363.89
_cell_formula_units_Z              4
_symmetry_space_group_name_H-M     'C -1'
_symmetry_Int_Tables_number        2
_refine_ls_R_factor_all            .089
loop_
_symmetry_equiv_pos_site_id
_symmetry_equiv_pos_as_xyz
  1	'-x, -y, -z'
  2	'x, y, z'
  3	'-x+.5, -y+.5, -z'
  4	'x+.5, y+.5, z'
loop_
_atom_type_symbol
_atom_type_oxidation_number
Ca2+	2
Ge4+	4
O2-	-2
loop_
_atom_site_label
_atom_site_type_symbol
_atom_site_symmetry_multiplicity
_atom_site_Wyckoff_symbol
_atom_site_fract_x
_atom_site_fract_y
_atom_site_fract_z
_atom_site_occupancy
_atom_site_attached_hydrogens
_atom_site_U_iso_or_equiv
Ca1 Ca2+ 4 i 0.9906(10) 0.6693(7) 0.2645(9) 1. 0 0.0030(21) 
Ge1 Ge4+ 4 i 0.9971(6) 0.3155(4) 0.2438(6) 1. 0 0.0034(13) 
Ge2 Ge4+ 2 a 0 0 0 1. 0 0.0035(18) 
Ge3 Ge4+ 2 b 0 0 0.5 1. 0 0.0055(18) 
O1 O2- 4 i 0.9977(28) 0.9256(17) 0.2544(25) 1. 0 0.0048(24) 
O2 O2- 4 i 0.4018(26) 0.2937(17) 0.9101(24) 1. 0 0.0048(24) 
O3 O2- 4 i 0.8147(25) 0.4517(18) 0.0859(24) 1. 0 0.0048(24) 
O4 O2- 4 i 0.1823(25) 0.4354(18) 0.4277(24) 1. 0 0.0048(24) 
O5 O2- 4 i 0.1260(27) 0.8002(17) 0.6195(25) 1. 0 0.0048(24) 

#End of data_151569-ICSD


