data_160297-ICSD
#?2014 by Fachinformationszentrum Karlsruhe, and the U.S. Secretary of 
#Commerce on behalf of the United States.  All rights reserved.
_database_code_ICSD                160297
_audit_creation_date               2008/08/01
_chemical_name_systematic          'Strontium Dialuminate'
_chemical_formula_structural       'Sr (Al2 O4)'
_chemical_formula_sum              'Al2 O4 Sr1'
_publ_section_title
;
Transitions between P21, P63(sqrt(3)A) and P6322 modifications of Sr 
Al2 O4 by in situ high-temperature X-ray and neutron diffraction
;
loop_
_citation_id
_citation_journal_abbrev
_citation_year
_citation_journal_volume
_citation_page_first
_citation_page_last
_citation_journal_id_ASTM
primary 'Journal of Solid State Chemistry' 2007 180 3535 3544 JSSCBI
_publ_author_name
;
Avdeev, M.;Yakovlev, S.;Yaremchenko, A.A.;Kharton, V.V.
;
_cell_length_a                     8.5066(5)
_cell_length_b                     8.8898(5)
_cell_length_c                     5.1732(3)
_cell_angle_alpha                  90.
_cell_angle_beta                   92.875(4)
_cell_angle_gamma                  90.
_cell_volume                       390.72
_cell_formula_units_Z              4
_symmetry_space_group_name_H-M     'P 1 21 1'
_symmetry_Int_Tables_number        4
_refine_ls_R_factor_all            .0226
loop_
_symmetry_equiv_pos_site_id
_symmetry_equiv_pos_as_xyz
  1	'-x, y+.5, -z'
  2	'x, y, z'
loop_
_atom_type_symbol
_atom_type_oxidation_number
Al3+	3
O2-	-2
Sr2+	2
loop_
_atom_site_label
_atom_site_type_symbol
_atom_site_symmetry_multiplicity
_atom_site_Wyckoff_symbol
_atom_site_fract_x
_atom_site_fract_y
_atom_site_fract_z
_atom_site_occupancy
_atom_site_attached_hydrogens
_atom_site_U_iso_or_equiv
Sr1 Sr2+ 2 a 0.4968(7) 0 0.2530(12) 1. 0 0.0205(14) 
Sr2 Sr2+ 2 a 0.0250(7) 0.9939(12) 0.2111(12) 1. 0 0.0317(17) 
Al1 Al3+ 2 a 0.193(2) 0.829(2) 0.728(3) 1. 0 0.035(4) 
Al2 Al3+ 2 a 0.796(2) 0.832(2) 0.737(3) 1. 0 0.013(3) 
Al3 Al3+ 2 a 0.698(2) 0.661(2) 0.226(3) 1. 0 0.017(4) 
Al4 Al3+ 2 a 0.679(2) 0.171(2) 0.786(3) 1. 0 0.012(3) 
O1 O2- 2 a 0.2613(1) 0.1707(13) 0.4320(18) 1. 0 0.021(3) 
O2 O2- 2 a 0.7283(10) 0.3202(14) 0.5782(18) 1. 0 0.029(3) 
O3 O2- 2 a 0.3215(8) 0.4914(17) 0.3580(13) 1. 0 0.027(2) 
O4 O2- 2 a 0.2578(8) 0.9861(18) 0.9011(14) 1. 0 0.031(2) 
O5 O2- 2 a 0.1871(10) 0.3034(13) 0.9307(19) 1. 0 0.019(2) 
O6 O2- 2 a 0.2107(11) 0.6712(15) 0.922(2) 1. 0 0.043(3) 
O7 O2- 2 a 0.4949(10) 0.2076(14) 0.871(2) 1. 0 0.043(3) 
O8 O2- 2 a 0.9894(11) 0.8783(13) 0.6568(17) 1. 0 0.050(3) 

#End of data_160297-ICSD


