data_170187-ICSD
#?2014 by Fachinformationszentrum Karlsruhe, and the U.S. Secretary of 
#Commerce on behalf of the United States.  All rights reserved.
_database_code_ICSD                170187
_audit_creation_date               2006/04/01
_chemical_name_systematic          'Cesium Samarium Zinc Trirelluride'
_chemical_formula_structural       'Cs Sm Zn Te3'
_chemical_formula_sum              'Cs1 Sm1 Te3 Zn1'
_publ_section_title
;
Syntheses, structure, some band gaps, and electronic structures of Cs 
Ln Zn Te3 (Ln = La, Pr, Nd, Sm, Gd, Tb, Dy, Ho, Er, Tm, Y)
;
loop_
_citation_id
_citation_journal_abbrev
_citation_year
_citation_journal_volume
_citation_journal_issue
_citation_page_first
_citation_page_last
_citation_journal_id_ASTM
primary 'Inorganic Chemistry' 2004 43 24 7735 7740 INOCAJ
_publ_author_name
;
Yao, J.;Deng, B.;Sherry, L.J.;McFarland, A.D.;Ellis, D.E.;van Duyne, 
R.P.;Ibers, J.A.
;
_cell_length_a                     4.4368(5)
_cell_length_b                     16.6840(17)
_cell_length_c                     11.7724(12)
_cell_angle_alpha                  90.00
_cell_angle_beta                   90.00
_cell_angle_gamma                  90.00
_cell_volume                       871.44
_cell_formula_units_Z              4
_symmetry_space_group_name_H-M     'C m c m'
_symmetry_Int_Tables_number        63
_refine_ls_R_factor_all            .0306
loop_
_symmetry_equiv_pos_site_id
_symmetry_equiv_pos_as_xyz
  1	'-x, y, -z+.5'
  2	'-x, -y, z+.5'
  3	'-x, y, z'
  4	'-x, -y, -z'
  5	'x, -y, z+.5'
  6	'x, y, -z+.5'
  7	'x, -y, -z'
  8	'x, y, z'
  9	'-x+.5, y+.5, -z+.5'
 10	'-x+.5, -y+.5, z+.5'
 11	'-x+.5, y+.5, z'
 12	'-x+.5, -y+.5, -z'
 13	'x+.5, -y+.5, z+.5'
 14	'x+.5, y+.5, -z+.5'
 15	'x+.5, -y+.5, -z'
 16	'x+.5, y+.5, z'
loop_
_atom_type_symbol
_atom_type_oxidation_number
Cs1+	1
Sm3+	3
Te2-	-2
Zn2+	2
loop_
_atom_site_label
_atom_site_type_symbol
_atom_site_symmetry_multiplicity
_atom_site_Wyckoff_symbol
_atom_site_fract_x
_atom_site_fract_y
_atom_site_fract_z
_atom_site_occupancy
_atom_site_attached_hydrogens
_atom_site_U_iso_or_equiv
Cs1 Cs1+ 4 c 0.0000 0.74339(4) 0.2500 1 0 0.01756(19) 
Sm1 Sm3+ 4 a 0.0000 0.0000 0.0000 1 0 0.01092(17) 
Zn1 Zn2+ 4 c 0.0000 0.46023(7) 0.2500 1 0 0.0130(3) 
Te1 Te2- 8 f 0.0000 0.37560(3) 0.05994(4) 1 0 0.01140(17) 
Te2 Te2- 4 c 0.0000 0.05897(4) 0.2500 1 0 0.01053(18) 

loop_
_atom_site_aniso_label
_atom_site_aniso_type_symbol
_atom_site_aniso_U_11
_atom_site_aniso_U_22
_atom_site_aniso_U_33
_atom_site_aniso_U_12
_atom_site_aniso_U_13
_atom_site_aniso_U_23
Cs1 Cs1+ 0.0154(4) 0.0167(3) 0.0206(4) 0.000 0.000 0.000
Sm1 Sm3+ 0.0099(3) 0.0161(3) 0.0068(3) 0.000 0.000 0.00022(16)
Zn1 Zn2+ 0.0127(6) 0.0179(6) 0.0084(5) 0.000 0.000 0.000
Te1 Te2- 0.0111(3) 0.0145(3) 0.0087(3) 0.000 0.000 -0.00030(15)
Te2 Te2- 0.0111(3) 0.0146(3) 0.0060(3) 0.000 0.000 0.000
#End of data_170187-ICSD


