data_86282-ICSD
#?2014 by Fachinformationszentrum Karlsruhe, and the U.S. Secretary of 
#Commerce on behalf of the United States.  All rights reserved.
_database_code_ICSD                86282
_audit_creation_date               1999/11/30
_chemical_name_systematic
;
Potassium Terbium Tetrakis(phosphate(V))
;
_chemical_formula_structural       'K Tb (P O3)4'
_chemical_formula_sum              'K1 O12 P4 Tb1'
_publ_section_title
;
Crystal structure of potassium terbium metaphosphate
;
loop_
_citation_id
_citation_journal_abbrev
_citation_year
_citation_journal_volume
_citation_journal_issue
_citation_page_first
_citation_page_last
_citation_journal_id_ASTM
primary 'Wuli Huaxue Xenbao' 1987 3 2 218 221 WHXUEU
_publ_author_name
;
Xing, Y.;Hu, N.-H.;Zhou, Q.-L.;Hong, G.-Y.;Yue, S.-Y.
;
_cell_length_a                     7.239(1)
_cell_length_b                     8.325(2)
_cell_length_c                     7.896(1)
_cell_angle_alpha                  90.
_cell_angle_beta                   91.82(1)
_cell_angle_gamma                  90.
_cell_volume                       475.61
_cell_formula_units_Z              2
_symmetry_space_group_name_H-M     'P 1 21 1'
_symmetry_Int_Tables_number        4
_refine_ls_R_factor_all            .034
loop_
_symmetry_equiv_pos_site_id
_symmetry_equiv_pos_as_xyz
  1	'-x, y+.5, -z'
  2	'x, y, z'
loop_
_atom_type_symbol
_atom_type_oxidation_number
K1+	1
O2-	-2
P5+	5
Tb3+	3
loop_
_atom_site_label
_atom_site_type_symbol
_atom_site_symmetry_multiplicity
_atom_site_Wyckoff_symbol
_atom_site_fract_x
_atom_site_fract_y
_atom_site_fract_z
_atom_site_occupancy
_atom_site_attached_hydrogens
_atom_site_U_iso_or_equiv
Tb1 Tb3+ 2 a 0.2363(1) 0.25 0.2422(1) 1. 0 0.003(1) 
K1 K1+ 2 a 0.2714(3) 0.5526(4) 0.7188(3) 1. 0 0.024(1) 
P1 P5+ 2 a 0.1007(3) 0.8326(3) 0.0996(3) 1. 0 0.005(1) 
P2 P5+ 2 a 0.4355(3) 0.6264(3) 0.0955(3) 1. 0 0.005(1) 
P3 P5+ 2 a 0.6181(3) 0.4973(3) 0.3985(3) 1. 0 0.004(1) 
P4 P5+ 2 a 0.9984(3) 0.6005(3) 0.3808(3) 1. 0 0.005(1) 
O1 O2- 2 a 0.0867(9) 0.9954(9) 0.1736(10) 1. 0 0.012(2) 
O2 O2- 2 a 0.3122(9) 0.7823(7) 0.1137(9) 1. 0 0.011(2) 
O3 O2- 2 a 0.9914(11) 0.7105(9) 0.2165(10) 1. 0 0.015(2) 
O4 O2- 2 a 0.1683(9) 0.4995(9) 0.3841(8) 1. 0 0.009(1) 
O5 O2- 2 a 0.3191(10) 0.4796(8) 0.0712(8) 1. 0 0.009(2) 
O6 O2- 2 a 0.573(1) 0.6536(10) 0.9626(10) 1. 0 0.014(2) 
O7 O2- 2 a 0.9681(10) 0.7017(9) 0.5324(9) 1. 0 0.011(2) 
O8 O2- 2 a 0.8263(8) 0.4868(8) 0.3421(8) 1. 0 0.008(1) 
O9 O2- 2 a 0.5393(10) 0.6357(8) 0.2774(8) 1. 0 0.009(1) 
O10 O2- 2 a 0.5308(9) 0.3421(8) 0.3505(9) 1. 0 0.009(1) 
O11 O2- 2 a 0.0281(9) 0.8016(9) 0.9256(8) 1. 0 0.010(1) 
O12 O2- 2 a 0.6120(9) 0.5552(9) 0.5759(8) 1. 0 0.008(1) 

#End of data_86282-ICSD


