data_34077-ICSD
#?2014 by Fachinformationszentrum Karlsruhe, and the U.S. Secretary of 
#Commerce on behalf of the United States.  All rights reserved.
_database_code_ICSD                34077
_audit_creation_date               1980/01/01
_audit_update_record               2012/02/01
_chemical_name_systematic          'Calcium Bis(tetrahydroxoborate)'
_chemical_formula_structural       'Ca (B (O H)4)2'
_chemical_formula_sum              'H8 B2 Ca1 O8'
_publ_section_title
;
Utochnennaya kristallicheskaya struktura frolovita Ca (B (O H)4)2
;
loop_
_citation_id
_citation_journal_abbrev
_citation_year
_citation_journal_volume
_citation_page_first
_citation_page_last
_citation_journal_id_ASTM
primary 'Doklady Akademii Nauk SSSR' 1976 230 91 94 DANKAS
_publ_author_name                  'Simonov, M.A.'
_cell_length_a                     7.774(2)
_cell_length_b                     5.680(1)
_cell_length_c                     8.136(2)
_cell_angle_alpha                  113.15(1)
_cell_angle_beta                   101.67(2)
_cell_angle_gamma                  107.87(2)
_cell_volume                       292.21
_cell_formula_units_Z              2
_symmetry_space_group_name_H-M     'P -1'
_symmetry_Int_Tables_number        2
_refine_ls_R_factor_all            .042
loop_
_symmetry_equiv_pos_site_id
_symmetry_equiv_pos_as_xyz
  1	'-x, -y, -z'
  2	'x, y, z'
loop_
_atom_type_symbol
_atom_type_oxidation_number
B3+	3
Ca2+	2
H1+	1
O2-	-2
loop_
_atom_site_label
_atom_site_type_symbol
_atom_site_symmetry_multiplicity
_atom_site_Wyckoff_symbol
_atom_site_fract_x
_atom_site_fract_y
_atom_site_fract_z
_atom_site_occupancy
_atom_site_attached_hydrogens
_atom_site_B_iso_or_equiv
Ca1 Ca2+ 2 i 0.23679(6) 0.01781(8) 0.18910(6) 1. 0 0 
B1 B3+ 2 i 0.0278(5) 0.4072(4) 0.2349(3) 1. 0 0 
B2 B3+ 2 i 0.4388(3) 0.3151(4) 0.7120(3) 1. 0 0 
O1 O2- 2 i 0.0655(2) 0.7060(3) 0.3014(2) 1. 0 0 
O2 O2- 2 i 0.0830(2) 0.2948(3) 0.0654(2) 1. 0 0 
O3 O2- 2 i 0.1418(2) 0.3711(3) 0.3841(2) 1. 0 0 
O4 O2- 2 i 0.1819(2) 0.7728(3) 0.8315(2) 1. 0 0 
O5 O2- 2 i 0.2392(2) 0.1436(3) 0.6828(2) 1. 0 0 
O6 O2- 2 i 0.4245(2) 0.7349(4) 0.1612(2) 1. 0 0 
O7 O2- 2 i 0.4672(2) 0.2291(3) 0.5274(2) 1. 0 0 
O8 O2- 2 i 0.4862(2) 0.6227(3) 0.8083(2) 1. 0 0 
H1 H1+ 2 i 0.020(4) 0.292(5) 0.688(4) 1. 0 10.1 
H2 H1+ 2 i 0.191(4) 0.416(5) 0.078(4) 1. 0 2.9 
H3 H1+ 2 i 0.232(4) 0.485(5) 0.415(4) 1. 0 12. 
H4 H1+ 2 i 0.793(4) 0.107(5) 0.202(4) 1. 0 3.5 
H5 H1+ 2 i 0.183(4) 0.027(6) 0.581(4) 1. 0 3. 
H6 H1+ 2 i 0.541(4) 0.277(5) 0.926(4) 1. 0 3. 
H7 H1+ 2 i 0.498(4) 0.150(5) 0.520(4) 1. 0 13. 
H8 H1+ 2 i 0.609(4) 0.346(4) 0.204(4) 1. 0 2.7 

loop_
_atom_site_aniso_label
_atom_site_aniso_type_symbol
_atom_site_aniso_B_11
_atom_site_aniso_B_22
_atom_site_aniso_B_33
_atom_site_aniso_B_12
_atom_site_aniso_B_13
_atom_site_aniso_B_23
Ca1 Ca2+ 0.72(1) 0.69(1) 0.81(1) 0.31(1) 0.22(1) 0.39(1)
B1 B3+ 0.83(6) 0.80(6) 0.88(6) 0.35(5) 0.28(5) 0.43(5)
B2 B3+ 0.77(6) 0.76(6) 0.76(6) 0.34(5) 0.28(5) 0.35(5)
O1 O2- 1.11(5) 0.67(4) 1.16(5) 0.36(4) 0.40(4) 0.38(4)
O2 O2- 1.03(5) 0.87(4) 0.93(5) 0.31(4) 0.40(4) 0.32(4)
O3 O2- 1.25(5) 1.40(5) 1.05(5) 0.71(4) 0.27(4) 0.70(4)
O4 O2- 0.75(4) 0.94(4) 1.42(5) 0.30(4) 0.40(4) 0.67(4)
O5 O2- 0.79(4) 1.02(5) 1.37(5) 0.22(4) 0.43(4) 0.55(4)
O6 O2- 0.96(5) 1.05(5) 0.90(4) 0.56(4) 0.29(4) 0.57(4)
O7 O2- 1.09(5) 0.94(4) 0.72(4) 0.46(4) 0.34(4) 0.38(4)
O8 O2- 0.92(5) 0.62(4) 1.11(5) 0.32(4) 0.33(4) 0.30(4)
#End of data_34077-ICSD


