data_186901-ICSD
#?2014 by Fachinformationszentrum Karlsruhe, and the U.S. Secretary of 
#Commerce on behalf of the United States.  All rights reserved.
_database_code_ICSD                186901
_audit_creation_date               2013/08/01
_chemical_name_systematic          'Lithium Sodium Tetraborate'
_chemical_formula_structural       'Li Na (B4 O7)'
_chemical_formula_sum              'B4 Li1 Na1 O7'
_publ_section_title
;
Linear and nonlinear optical susceptibilities and hyperpolarizability 
of borate Li Na B4 O7 single crystals: Theory and experiment
;
loop_
_citation_id
_citation_journal_abbrev
_citation_year
_citation_journal_volume
_citation_journal_issue
_citation_page_first
_citation_page_last
_citation_journal_id_ASTM
primary 'Journal of Applied Physics' 2012 112 5 053526-1 053526-11 JAPIAU
_publ_author_name
;
Reshak, Ali Hussain;Chen, Xuean;Auluck, S.;Kamarudin, H.
;
_cell_length_a                     13.326
_cell_length_b                     14.072
_cell_length_c                     10.238
_cell_angle_alpha                  90.
_cell_angle_beta                   90.
_cell_angle_gamma                  90.
_cell_volume                       1919.87
_cell_formula_units_Z              16
_symmetry_space_group_name_H-M     'F d d 2'
_symmetry_Int_Tables_number        43
loop_
_symmetry_equiv_pos_site_id
_symmetry_equiv_pos_as_xyz
  1	'x+.25, -y+.25, z+.25'
  2	'-x+.25, y+.25, z+.25'
  3	'-x, -y, z'
  4	'x, y, z'
  5	'x+.25, -y+.75, z+.75'
  6	'x+.75, -y+.25, z+.75'
  7	'x+.75, -y+.75, z+.25'
  8	'-x+.25, y+.75, z+.75'
  9	'-x+.75, y+.25, z+.75'
 10	'-x+.75, y+.75, z+.25'
 11	'-x, -y+.5, z+.5'
 12	'-x+.5, -y, z+.5'
 13	'-x+.5, -y+.5, z'
 14	'x, y+.5, z+.5'
 15	'x+.5, y, z+.5'
 16	'x+.5, y+.5, z'
loop_
_atom_type_symbol
_atom_type_oxidation_number
B3+	3
Li1+	1
Na1+	1
O2-	-2
loop_
_atom_site_label
_atom_site_type_symbol
_atom_site_symmetry_multiplicity
_atom_site_Wyckoff_symbol
_atom_site_fract_x
_atom_site_fract_y
_atom_site_fract_z
_atom_site_occupancy
_atom_site_attached_hydrogens
Li1 Li1+ 16 b 0.00238(5) 0.36781(4) 0.12989(3) 1. 0 
Na1 Na1+ 16 b 0.10427(2) 0.23886(9) 0.37393(3) 1. 0 
B1 B3+ 16 b 0.16279(9) 0.22468(2) 0.07839(1) 1. 0 
B2 B3+ 16 b 0.04335(2) 0.12233(3) 0.94579(5) 1. 0 
B3 B3+ 16 b 0.21617(1) 0.17204(1) 0.59814(4) 1. 0 
B4 B3+ 16 b 0.12744(9) 0.04277(1) 0.46556(1) 1. 0 
O1 O2- 16 b 0.07048(6) 0.20347(9) 0.00870(6) 1. 0 
O2 O2- 8 a 0.250 0.250 0.99439(9) 1. 0 
O3 O2- 16 b 0.19371(1) 0.14287(1) 0.16518(5) 1. 0 
O4 O2- 16 b 0.13394(5) 0.30628(6) 0.16443(2) 1. 0 
O5 O2- 16 b 0.20746(8) 0.08165(5) 0.52852(2) 1. 0 
O6 O2- 8 a 0.250 0.250 0.51399(1) 1. 0 
O7 O2- 16 b 0.29096(6) 0.15337(2) 0.70383(6) 1. 0 
O8 O2- 16 b 0.11931(9) 0.20184(6) 0.66456(9) 1. 0 

#End of data_186901-ICSD


