data_16141-ICSD
#?2014 by Fachinformationszentrum Karlsruhe, and the U.S. Secretary of 
#Commerce on behalf of the United States.  All rights reserved.
_database_code_ICSD                16141
_audit_creation_date               1980/01/01
_audit_update_record               2007/04/01
_chemical_name_systematic
;
Potassium Tetranitrato(V)aurate(III)
;
_chemical_formula_structural       'K (Au (N O3)4)'
_chemical_formula_sum              'Au1 K1 N4 O12'
_publ_section_title
;
The crystal structure of anhydrous nitrates and their complexes. Part 
V. Potassium tetranitratoaurate(III)
;
loop_
_citation_id
_citation_journal_abbrev
_citation_year
_citation_journal_volume
_citation_page_first
_citation_page_last
_citation_journal_id_ASTM
primary
;
Journal of the Chemical Society A: Inorganic, Physical, Theoretical 
(1966-1971)
;
 1970 1970 3092 3095 JCSIAP
2 'Acta Crystallographica A (24,1968-38,1982)' 1969 25 S104 S104 ACACBN
_publ_author_name                  'Garner, C.D.;Wallwork, S.C.'
_cell_length_a                     9.21(2)
_cell_length_b                     7.14(2)
_cell_length_c                     10.04(2)
_cell_angle_alpha                  90.
_cell_angle_beta                   128.6(3)
_cell_angle_gamma                  90.
_cell_volume                       515.98
_cell_formula_units_Z              2
_symmetry_space_group_name_H-M     'P 1 21/c 1'
_symmetry_Int_Tables_number        14
_refine_ls_R_factor_all            .061
loop_
_symmetry_equiv_pos_site_id
_symmetry_equiv_pos_as_xyz
  1	'x, -y+.5, z+.5'
  2	'-x, -y, -z'
  3	'-x, y+.5, -z+.5'
  4	'x, y, z'
loop_
_atom_type_symbol
_atom_type_oxidation_number
Au3+	3
K1+	1
N5+	5
O2-	-2
loop_
_atom_site_label
_atom_site_type_symbol
_atom_site_symmetry_multiplicity
_atom_site_Wyckoff_symbol
_atom_site_fract_x
_atom_site_fract_y
_atom_site_fract_z
_atom_site_occupancy
_atom_site_attached_hydrogens
K1 K1+ 2 b 0.5 0 0 1. 0 
Au1 Au3+ 2 a 0 0 0 1. 0 
N1 N5+ 4 e 0.307(2) 0.2471(24) 0.1434(7) 1. 0 
N2 N5+ 4 e 0.1646(23) -.1082(21) 0.3417(18) 1. 0 
O1 O2- 4 e 0.2216(17) 0.1070(17) 0.0295(15) 1. 0 
O2 O2- 4 e 0.4353(24) 0.3030(22) 0.1633(21) 1. 0 
O3 O2- 4 e 0.2386(24) 0.2998(24) 0.2115(19) 1. 0 
O4 O2- 4 e 0.1724(17) -.1495(17) 0.2107(14) 1. 0 
O5 O2- 4 e 0.2660(2) -.2067(23) 0.4632(17) 1. 0 
O6 O2- 4 e 0.0658(26) 0.0223(18) 0.3195(20) 1. 0 

#End of data_16141-ICSD


