data_26389-ICSD
#?2014 by Fachinformationszentrum Karlsruhe, and the U.S. Secretary of 
#Commerce on behalf of the United States.  All rights reserved.
_database_code_ICSD                26389
_audit_creation_date               1980/12/31
_audit_update_record               2010/08/01
_chemical_name_systematic
;
Rubidium Tetrafluoroaluminate - Beta
;
_chemical_formula_structural       'Rb (Al F4)'
_chemical_formula_sum              'Al1 F4 Rb1'
_publ_section_title
;
Rb Al F4: Structure of its beta metastable form and description of 
the mechanism of its irreversible and topotactic phase transition 
beta to alpha
;
loop_
_citation_id
_citation_journal_abbrev
_citation_year
_citation_journal_volume
_citation_page_first
_citation_page_last
_citation_journal_id_ASTM
primary 'Acta Crystallographica B (24,1968-38,1982)' 1980 36 1997 2000 ACBCAR
2 'Phase Transition' 1992 38 127 220 PHTRDP
_publ_author_name
;
Fourquet, J.L.;Plet, F.;de Pape, R.
;
_cell_length_a                     11.666(5)
_cell_length_b                     11.666(5)
_cell_length_c                     12.551(6)
_cell_angle_alpha                  90.
_cell_angle_beta                   90.
_cell_angle_gamma                  90.
_cell_volume                       1708.14
_cell_formula_units_Z              20
_symmetry_space_group_name_H-M     'I -4 c 2'
_symmetry_Int_Tables_number        120
_refine_ls_R_factor_all            .0178
loop_
_symmetry_equiv_pos_site_id
_symmetry_equiv_pos_as_xyz
  1	'y, x, -z+.5'
  2	'-y, -x, -z+.5'
  3	'y, -x, -z'
  4	'-y, x, -z'
  5	'x, -y, z+.5'
  6	'-x, y, z+.5'
  7	'-x, -y, z'
  8	'x, y, z'
  9	'y+.5, x+.5, -z'
 10	'-y+.5, -x+.5, -z'
 11	'y+.5, -x+.5, -z+.5'
 12	'-y+.5, x+.5, -z+.5'
 13	'x+.5, -y+.5, z'
 14	'-x+.5, y+.5, z'
 15	'-x+.5, -y+.5, z+.5'
 16	'x+.5, y+.5, z+.5'
loop_
_atom_type_symbol
_atom_type_oxidation_number
Al3+	3
F1-	-1
Rb1+	1
loop_
_atom_site_label
_atom_site_type_symbol
_atom_site_symmetry_multiplicity
_atom_site_Wyckoff_symbol
_atom_site_fract_x
_atom_site_fract_y
_atom_site_fract_z
_atom_site_occupancy
_atom_site_attached_hydrogens
Rb1 Rb1+ 4 a 0 0 0.25 1. 0 
Rb2 Rb1+ 16 i 0.3415(2) 0.8404(2) 0.6881 1. 0 
Al1 Al3+ 4 d 0.5 0 0 1. 0 
Al2 Al3+ 16 i 0.7926(1) 0.0763(1) 0.0007(7) 1. 0 
F1 F1- 16 i 0.3445(2) 0.0011(2) 0.0015(11) 1. 0 
F2 F1- 16 i 0.1419(2) 0.0667(2) 0.0012(16) 1. 0 
F3 F1- 16 i 0.0777(10) 0.2061(9) 0.1385(10) 1. 0 
F4 F1- 16 i -.0801(9) -.2111(9) -.1400(8) 1. 0 
F5 F1- 8 h 0.2184(2) -.2816(2) 0.5 1. 0 
F6 F1- 8 g 0 0.5 0.1379(3) 1. 0 

loop_
_atom_site_aniso_label
_atom_site_aniso_type_symbol
_atom_site_aniso_U_11
_atom_site_aniso_U_22
_atom_site_aniso_U_33
_atom_site_aniso_U_12
_atom_site_aniso_U_13
_atom_site_aniso_U_23
Rb1 Rb1+ 0.0158(3) 0.0158(3) 0.0241(6) 0.0061(22) 0 0
Rb2 Rb1+ 0.0320(11) 0.0174(9) 0.0226(3) -0.0059(2) 0.0104(11) 0.0027(10)
Al1 Al3+ 0.0063(7) 0.0063(7) 0.0106(13) -0.0013(11) 0 0
Al2 Al3+ 0.0059(6) 0.0061(7) 0.0116(7) 0.0004(5) 0.0045(26) 0.0059(38)
F1 F1- 0.0082(13) 0.0119(13) 0.0285(20) -0.0022(10) 0.0083(42) 0.0110(53)
F2 F1- 0.0108(15) 0.0075(13) 0.0398(20) 0.0025(10) -0.0066(62) 0.0062(71)
F3 F1- 0.0351(26) 0.0181(23) 0.0233(22) -0.0019(18) 0.0010(21) -0.0062(21)
F4 F1- 0.0198(49) 0.0178(42) 0.0024(38) -0.0041(36) -0.0014(33) 0.0048(31)
F5 F1- 0.0099(11) 0.0099(11) 0.0281(23) 0.0006(14) 0.0019(68) -0.0019(68)
F6 F1- 0.0081(57) 0.0401(74) 0.0096(19) -0.0103(19) 0 0
#End of data_26389-ICSD


