data_425149-ICSD
#?2014 by Fachinformationszentrum Karlsruhe, and the U.S. Secretary of 
#Commerce on behalf of the United States.  All rights reserved.
_database_code_ICSD                425149
_audit_creation_date               2013/08/01
_chemical_name_systematic          'Disodium Tetrafluoroargentate(II)'
_chemical_formula_structural       'Na2 Ag F4'
_chemical_formula_sum              'Ag1 F4 Na2'
_publ_section_title
;
Na2 Ag F4 : 1D antiferromagnet with unusually short Ag2+... Ag2+ 
separation
;
loop_
_citation_id
_citation_journal_abbrev
_citation_year
_citation_journal_volume
_citation_journal_issue
_citation_page_first
_citation_page_last
_citation_journal_id_ASTM
primary 'Dalton Transactions' 2013 42 6 2167 2173 DTARAF
_publ_author_name
;
Kurzydlowski, D.;Mazej, Z.;Grochala, W.
;
_cell_length_a                     3.34160(5)
_cell_length_b                     10.4012(1)
_cell_length_c                     6.07607(9)
_cell_angle_alpha                  90
_cell_angle_beta                   65.971(1)
_cell_angle_gamma                  90.
_cell_volume                       192.88
_cell_formula_units_Z              2
_symmetry_space_group_name_H-M     'P 1 21/c 1'
_symmetry_Int_Tables_number        14
_refine_ls_R_factor_all            .0318
loop_
_symmetry_equiv_pos_site_id
_symmetry_equiv_pos_as_xyz
  1	'x, -y+.5, z+.5'
  2	'-x, -y, -z'
  3	'-x, y+.5, -z+.5'
  4	'x, y, z'
loop_
_atom_type_symbol
_atom_type_oxidation_number
Ag2+	2
F1-	-1
Na1+	1
loop_
_atom_site_label
_atom_site_type_symbol
_atom_site_symmetry_multiplicity
_atom_site_Wyckoff_symbol
_atom_site_fract_x
_atom_site_fract_y
_atom_site_fract_z
_atom_site_occupancy
_atom_site_attached_hydrogens
_atom_site_U_iso_or_equiv
Ag1 Ag2+ 2 a 0 0 0 1 0 0.0470(5) 
Na1 Na1+ 4 e 0.2487(8) 0.8472(2) 0.4672(5) 1 0 0.0201(8) 
F1 F1- 4 e 0.4356(12) 0.4397(3) 0.7886(7) 1 0 0.0465(14) 
F2 F1- 4 e 0.0436(14) 0.1681(4) 0.8121(7) 1 0 0.0512(14) 

loop_
_atom_site_aniso_label
_atom_site_aniso_type_symbol
_atom_site_aniso_U_11
_atom_site_aniso_U_22
_atom_site_aniso_U_33
_atom_site_aniso_U_12
_atom_site_aniso_U_13
_atom_site_aniso_U_23
Ag1 Ag2+ 0.0700(8) 0.0283(5) 0.0424(6) -0.0066(11) -0.0225(5) 0.0092(11)
#End of data_425149-ICSD


