data_1658-ICSD
#?2014 by Fachinformationszentrum Karlsruhe, and the U.S. Secretary of 
#Commerce on behalf of the United States.  All rights reserved.
_database_code_ICSD                1658
_audit_creation_date               1980/01/01
_audit_update_record               2007/08/01
_chemical_name_systematic
;
Potassium Trierbium Fluoride - Beta
;
_chemical_formula_structural       'K Er3 F10'
_chemical_formula_sum              'Er3 F10 K1'
_publ_section_title
;
Structure cristalline de la phase beta-K Er3 F10
;
loop_
_citation_id
_citation_journal_abbrev
_citation_year
_citation_journal_volume
_citation_page_first
_citation_page_last
_citation_journal_id_ASTM
primary 'Journal of Solid State Chemistry' 1978 24 331 344 JSSCBI
2 'Annales de Chimie (Paris) (Vol=Year)' 1978 3 417 427 ANCPAC
_publ_author_name
;
Aleonard, S.;Guitel, J.C.;Roux, M.T.
;
_cell_length_a                     14.088(2)
_cell_length_b                     8.1378(8)
_cell_length_c                     28.28
_cell_angle_alpha                  90.
_cell_angle_beta                   109.27
_cell_angle_gamma                  90.
_cell_volume                       3060.52
_cell_formula_units_Z              16
_symmetry_space_group_name_H-M     'C 1 m 1'
_symmetry_Int_Tables_number        8
_refine_ls_R_factor_all            .09
loop_
_symmetry_equiv_pos_site_id
_symmetry_equiv_pos_as_xyz
  1	'x, -y, z'
  2	'x, y, z'
  3	'x+.5, -y+.5, z'
  4	'x+.5, y+.5, z'
loop_
_atom_type_symbol
_atom_type_oxidation_number
Er3+	3
F1-	-1
K1+	1
loop_
_atom_site_label
_atom_site_type_symbol
_atom_site_symmetry_multiplicity
_atom_site_Wyckoff_symbol
_atom_site_fract_x
_atom_site_fract_y
_atom_site_fract_z
_atom_site_occupancy
_atom_site_attached_hydrogens
_atom_site_B_iso_or_equiv
Er1 Er3+ 2 a 0.0039 0 -.0019 1. 0 0.59 
Er2 Er3+ 4 b 0.2451(7) 0.2405(7) -.0020(5) 1. 0 0.36 
K1 K1+ 2 a 0.484(3) 0 -.008(1) 1. 0 3.4 
Er3 Er3+ 2 a 0.3961(8) 0 0.1180(5) 1. 0 0.37 
Er4 Er3+ 4 b 0.1584(7) 0.2373(9) 0.1188(4) 1. 0 0.62 
K2 K1+ 2 a 0.916(3) 0 0.126(1) 1. 0 1.1 
Er5 Er3+ 2 a 0.1602(7) 0 0.2491(4) 1. 0 0.87 
Er6 Er3+ 4 b 0.4095(7) 0.2603(7) 0.2488(4) 1. 0 0.42 
K3 K1+ 2 a 0.655(3) 0 0.244(1) 1. 0 3.4 
Er7 Er3+ 2 a 0.9084(8) 0 0.3689(4) 1. 0 0.54 
Er8 Er3+ 4 b 0.1518(8) 0.2413(7) 0.3668(4) 1. 0 0.6 
K4 K1+ 2 a 0.409(4) 0 0.370(1) 1. 0 0.5 
Er9 Er3+ 2 a 0.6498(7) 0 0.4984(4) 1. 0 0.32 
Er10 Er3+ 4 b 0.4112(8) 0.2375(8) 0.4968(4) 1. 0 0.37 
K5 K1+ 2 a 0.155(3) 0 0.493(1) 1. 0 3.1 
Er11 Er3+ 2 a 0.4179(7) 0 0.6191(5) 1. 0 0.16 
Er12 Er3+ 4 b 0.1500(8) 0.2581(7) 0.6188(4) 1. 0 0.4 
K6 K1+ 2 a 0.903(3) 0 0.613(1) 1. 0 1.1 
Er13 Er3+ 2 a 0.1634(8) 0 0.7483(5) 1. 0 0.42 
Er14 Er3+ 4 b 0.4051(7) 0.2406(8) 0.7486(4) 1. 0 0.4 
K7 K1+ 2 a 0.662(3) 0 0.749(1) 1. 0 3.1 
Er15 Er3+ 2 a 0.5713(4) 0 0.8680(2) 1. 0 0.27 
Er16 Er3+ 4 b 0.3319(7) 0.2397(7) 0.8682(4) 1. 0 0.47 
K8 K1+ 2 a 0.072(3) 0 0.869(1) 1. 0 0.8 
F1 F1- 4 b 0.109(3) 0.154(6) 0.182(2) 1. 0 0.8 
F2 F1- 4 b 0.275(4) 0.340(7) 0.185(2) 1. 0 1. 
F3 F1- 4 b 0.438(3) 0.166(7) 0.183(2) 1. 0 0.8 
F4 F1- 4 b 0.126(4) 0.338(7) 0.432(2) 1. 0 0.1 
F5 F1- 4 b 0.286(7) 0.168(5) 0.431(3) 1. 0 0.7 
F6 F1- 4 b 0.460(4) 0.322(7) 0.434(2) 1. 0 0.7 
F7 F1- 4 b 0.100(3) 0.161(6) 0.681(2) 1. 0 0.9 
F8 F1- 4 b 0.272(4) 0.330(7) 0.684(2) 1. 0 1. 
F9 F1- 4 b 0.437(4) 0.167(7) 0.681(2) 1. 0 1.1 
F10 F1- 4 b 0.129(4) 0.333(7) 0.935(2) 1. 0 0.6 
F11 F1- 4 b 0.297(4) 0.176(5) 0.936(3) 1. 0 0.7 
F12 F1- 4 b 0.462(4) 0.324(7) 0.934(2) 1. 0 0.2 
F13 F1- 2 a 0.695(5) 0 0.586(3) 1. 0 0.2 
F14 F1- 4 b 0.471(4) 0.229(6) 0.585(2) 1. 0 0.5 
F15 F1- 2 a 0.252(4) 0 0.837(2) 1. 0 0.6 
F16 F1- 4 b 0.456(4) 0.222(8) 0.833(2) 1. 0 0.5 
F17 F1- 2 a 0.373(4) 0 0.538(2) 1. 0 0.9 
F18 F1- 4 b 0.087(4) 0.279(7) 0.534(2) 1. 0 0.3 
F19 F1- 2 a 0.496(5) 0 0.778(2) 1. 0 0.2 
F20 F1- 4 b 0.275(4) 0.218(7) 0.779(2) 1. 0 1.2 
F21 F1- 2 a 0.347(4) 0 0.034(2) 1. 0 1.4 
F22 F1- 4 b 0.101(4) 0.227(8) 0.028(2) 1. 0 1.1 
F23 F1- 2 a 0.063(5) 0 0.081(2) 1. 0 1.2 
F24 F1- 4 b 0.299(4) 0.230(7) 0.087(2) 1. 0 0.5 
F25 F1- 2 a 0.854(5) 0 0.281(3) 1. 0 0.3 
F26 F1- 4 b 0.086(4) 0.213(6) 0.278(2) 1. 0 1.4 
F27 F1- 2 a 0.721(4) 0 0.021(2) 1. 0 0.2 
F28 F1- 4 b 0.394(3) 0.341(5) 0.019(1) 1. 0 0.2 
F29 F1- 2 a 0.666(5) 0 0.102(3) 1. 0 0.8 
F30 F1- 4 b 0.008(3) 0.331(5) 0.098(1) 1. 0 0.1 
F31 F1- 2 a 0.261(5) 0 0.144(3) 1. 0 0.4 
F32 F1- 2 a -.034(4) 0 0.219(2) 1. 0 0.8 
F33 F1- 2 a 0.468(4) 0 0.267(2) 1. 0 0.9 
F34 F1- 4 b 0.267(3) 0.166(5) 0.259(2) 1. 0 1.8 
F35 F1- 2 a 0.630(4) 0 0.359(2) 1. 0 0.8 
F36 F1- 4 b 0.291(3) 0.312(5) 0.355(2) 1. 0 0.6 
F37 F1- 2 a 0.469(5) 0 0.480(2) 1. 0 0.7 
F38 F1- 2 a 0.125(4) 0 0.596(2) 1. 0 0.3 
F39 F1- 4 b 0.273(3) 0.169(5) 0.597(2) 1. 0 0.2 
F40 F1- 2 a 0.957(4) 0 0.525(2) 1. 0 1. 
F41 F1- 4 b 0.289(3) 0.350(5) 0.518(2) 1. 0 0.6 
F42 F1- 2 a 0.815(4) 0 0.848(2) 1. 0 0.9 
F43 F1- 4 b 0.167(3) 0.329(5) 0.863(1) 1. 0 1.4 
F44 F1- 2 a 0.421(6) 0 0.895(3) 1. 0 0.1 
F45 F1- 2 a 0.890(5) 0 0.768(3) 1. 0 0.7 
F46 F1- 4 b 0.066(3) 0.162(5) 0.756(1) 1. 0 1.2 
F47 F1- 2 a 0.568(4) 0 0.639(2) 1. 0 0.6 
F48 F1- 2 a 0.206(4) 0 0.344(2) 1. 0 0.7 
F49 F1- 4 b 0.478(4) 0.275(7) 0.342(2) 1. 0 1. 
F50 F1- 2 a 0.094(5) 0 0.402(2) 1. 0 1.2 
F51 F1- 2 a 0.133(6) 0 0.976(4) 1. 0 1.1 
F52 F1- 2 a 0.312(5) 0 0.726(3) 1. 0 1.5 

#End of data_1658-ICSD


