data_32729-ICSD
#?2014 by Fachinformationszentrum Karlsruhe, and the U.S. Secretary of 
#Commerce on behalf of the United States.  All rights reserved.
_database_code_ICSD                32729
_audit_creation_date               1982/12/31
_audit_update_record               2010/02/01
_chemical_name_systematic
;
Lithium Strontium Hexafluoroferrate(III)
;
_chemical_formula_structural       'Li Sr (Fe F6)'
_chemical_formula_sum              'F6 Fe1 Li1 Sr1'
_publ_section_title
;
Zur Rutilverwandtschaft: Zur Kenntnis von Li Sr Fe F6
;
loop_
_citation_id
_citation_journal_abbrev
_citation_year
_citation_journal_volume
_citation_page_first
_citation_page_last
_citation_journal_id_ASTM
primary
;
Zeitschrift fuer Naturforschung, Teil B. Anorganische Chemie, 
Organische Chemie (33,1978-41,1986)
;
 1982 37 981 987 ZNBAD2
_publ_author_name                  'Fleischer, T.;Hoppe, R.'
_cell_length_a                     5.2972(4)
_cell_length_b                     8.7989(8)
_cell_length_c                     10.2257(7)
_cell_angle_alpha                  90.
_cell_angle_beta                   92.212(8)
_cell_angle_gamma                  90.
_cell_volume                       476.26
_cell_formula_units_Z              4
_symmetry_space_group_name_H-M     'P 1 21/c 1'
_symmetry_Int_Tables_number        14
_refine_ls_R_factor_all            .0916
loop_
_symmetry_equiv_pos_site_id
_symmetry_equiv_pos_as_xyz
  1	'x, -y+.5, z+.5'
  2	'-x, -y, -z'
  3	'-x, y+.5, -z+.5'
  4	'x, y, z'
loop_
_atom_type_symbol
_atom_type_oxidation_number
F1-	-1
Fe3+	3
Li1+	1
Sr2+	2
loop_
_atom_site_label
_atom_site_type_symbol
_atom_site_symmetry_multiplicity
_atom_site_Wyckoff_symbol
_atom_site_fract_x
_atom_site_fract_y
_atom_site_fract_z
_atom_site_occupancy
_atom_site_attached_hydrogens
_atom_site_U_iso_or_equiv
Li1 Li1+ 4 e 0.7127(62) 0.0742(46) 0.2589(39) 1. 0 0.0295(72) 
Sr1 Sr2+ 4 e 0.2477(4) 0.2070(2) 0.9968(2) 1. 0 0 
Fe1 Fe3+ 4 e 0.7845(4) 0.0842(3) 0.7406(3) 1. 0 0 
F1 F1- 4 e 0.0048(17) 0.0363(11) 0.1387(10) 1. 0 0.0167(25) 
F2 F1- 4 e 0.3755(17) 0.4199(15) 0.8546(9) 1. 0 0.0149(21) 
F3 F1- 4 e 0.0821(17) 0.4045(15) 0.1416(10) 1. 0 0.0198(25) 
F4 F1- 4 e 0.5095(17) 0.4527(1) 0.3585(9) 1. 0 0.0146(23) 
F5 F1- 4 e 0.6054(19) 0.2311(14) 0.6375(12) 1. 0 0.0135(29) 
F6 F1- 4 e 0.8828(17) 0.2450(12) 0.3510(11) 1. 0 0.0133(25) 

loop_
_atom_site_aniso_label
_atom_site_aniso_type_symbol
_atom_site_aniso_U_11
_atom_site_aniso_U_22
_atom_site_aniso_U_33
_atom_site_aniso_U_12
_atom_site_aniso_U_13
_atom_site_aniso_U_23
Sr1 Sr2+ 0.0108(6) 0.0072(6) 0.0119(7) 0.0001(9) 0.0001(5) -.0009(7)
Fe1 Fe3+ 0.0075(10) 0.0034(10) 0.0118(12) -.0001(10) -.0012(9) 0.001(1)
#End of data_32729-ICSD


