data_61798-ICSD
#?2014 by Fachinformationszentrum Karlsruhe, and the U.S. Secretary of 
#Commerce on behalf of the United States.  All rights reserved.
_database_code_ICSD                61798
_audit_creation_date               1988/02/22
_chemical_name_systematic
;
Sodium Barium Iron(III) Nonafluoride
;
_chemical_formula_structural       'Na Ba Fe2 F9'
_chemical_formula_sum              'Ba1 F9 Fe2 Na1'
_publ_section_title
;
Magnetic structure of the canted 1D-antiferromagnet Na Ba Fe2 F9
;
loop_
_citation_id
_citation_journal_abbrev
_citation_year
_citation_journal_volume
_citation_page_first
_citation_page_last
_citation_journal_id_ASTM
primary 'Solid State Communications' 1985 55 887 890 SSCOA4
_publ_author_name
;
de Kozak, A.;Samouel, M.;le Blanc, M.;Ferey, G.;Pannetier, J.
;
_cell_length_a                     7.3236(3)
_cell_length_b                     17.4525(7)
_cell_length_c                     5.4586(2)
_cell_angle_alpha                  90.
_cell_angle_beta                   91.840(3)
_cell_angle_gamma                  90.
_cell_volume                       697.33
_cell_formula_units_Z              4
_symmetry_space_group_name_H-M     'P 1 21/n 1'
_symmetry_Int_Tables_number        14
_refine_ls_R_factor_all            .093
loop_
_symmetry_equiv_pos_site_id
_symmetry_equiv_pos_as_xyz
  1	'-x+.5, y+.5, -z+.5'
  2	'-x, -y, -z'
  3	'x+.5, -y+.5, z+.5'
  4	'x, y, z'
loop_
_atom_type_symbol
_atom_type_oxidation_number
Ba2+	2
F1-	-1
Fe3+	3
Na1+	1
loop_
_atom_site_label
_atom_site_type_symbol
_atom_site_symmetry_multiplicity
_atom_site_Wyckoff_symbol
_atom_site_fract_x
_atom_site_fract_y
_atom_site_fract_z
_atom_site_occupancy
_atom_site_attached_hydrogens
_atom_site_B_iso_or_equiv
Fe1 Fe3+ 4 e 0.4092(6) 0.6249(3) 0.2309(8) 1. 0 0.60(5) 
Fe2 Fe3+ 4 e 0.2698(6) 0.4196(3) 0.2620(9) 1. 0 0.60(5) 
Na1 Na1+ 4 e 0.3011(15) 0.0377(6) 0.7557(22) 1. 0 0.72(25) 
Ba1 Ba2+ 4 e 0.0602(11) 0.2856(5) 0.7331(16) 1. 0 1.38(21) 
F1 F1- 4 e 0.1383(10) 0.4196(5) -.0429(14) 1. 0 0.93(9) 
F2 F1- 4 e -.0005(9) 0.9226(5) 0.4164(14) 1. 0 0.72(9) 
F3 F1- 4 e 0.2811(10) 0.3111(4) 0.2956(14) 1. 0 0.93(9) 
F4 F1- 4 e 0.4423(10) 0.9193(5) 0.0423(13) 1. 0 0.93(9) 
F5 F1- 4 e 0.2773(10) 0.1651(5) 0.4881(14) 1. 0 0.61(8) 
F6 F1- 4 e 0.2086(9) 0.1648(5) -.0060(15) 1. 0 0.61(8) 
F7 F1- 4 e 0.2401(12) 0.0310(4) 0.2455(16) 1. 0 0.72(9) 
F8 F1- 4 e 0.4333(10) 0.2914(5) 0.8135(16) 1. 0 0.61(8) 
F9 F1- 4 e 0.400(1) 0.4317(5) 0.5777(14) 1. 0 0.72(9) 

#End of data_61798-ICSD


