data_12134-ICSD
#?2014 by Fachinformationszentrum Karlsruhe, and the U.S. Secretary of 
#Commerce on behalf of the United States.  All rights reserved.
_database_code_ICSD                12134
_audit_creation_date               1986/08/08
_audit_update_record               2013/08/01
_chemical_name_systematic          'Sodium Borodisilicate Dihydroxide'
_chemical_formula_structural       'Na (B Si2 O5) (O H)2'
_chemical_formula_sum              'H2 B1 Na1 O7 Si2'
_chemical_name_mineral             Searlesite
_publ_section_title
;
Structural chemistry of borosilicates, part II: Searlesite, Na B Si2 
O5 (O H): Absolute configuration, hydrogen locations, and refinement 
of the structure
;
loop_
_citation_id
_citation_journal_abbrev
_citation_year
_citation_journal_volume
_citation_page_first
_citation_page_last
_citation_journal_id_ASTM
primary 'American Mineralogist' 1976 61 123 129 AMMIAY
_publ_author_name                  'Ghose, S.;Wan, C.'
_cell_length_a                     7.9814(12)
_cell_length_b                     6.0657(8)
_cell_length_c                     4.9054(4)
_cell_angle_alpha                  90.
_cell_angle_beta                   93.95(1)
_cell_angle_gamma                  90.
_cell_volume                       236.92
_cell_formula_units_Z              2
_symmetry_space_group_name_H-M     'P 1 21 1'
_symmetry_Int_Tables_number        4
_refine_ls_R_factor_all            .034
loop_
_symmetry_equiv_pos_site_id
_symmetry_equiv_pos_as_xyz
  1	'-x, y+.5, -z'
  2	'x, y, z'
loop_
_atom_type_symbol
_atom_type_oxidation_number
B3+	3
H1+	1
Na1+	1
O2-	-2
Si4+	4
loop_
_atom_site_label
_atom_site_type_symbol
_atom_site_symmetry_multiplicity
_atom_site_Wyckoff_symbol
_atom_site_fract_x
_atom_site_fract_y
_atom_site_fract_z
_atom_site_occupancy
_atom_site_attached_hydrogens
_atom_site_B_iso_or_equiv
Na1 Na1+ 2 a 0.4390(1) 0 0.9812(2) 1. 0 0 
B1 B3+ 2 a 0.3514(2) 0.7084(3) 0.3984(3) 1. 0 0 
Si1 Si4+ 2 a 0.13465(6) 0.41571(18) 0.21207(9) 1. 0 0 
Si2 Si4+ 2 a 0.08340(6) 0.98671(18) 0.31053(8) 1. 0 0 
O1 O2- 2 a 0.1651(2) 0.1903(3) 0.2492(4) 1. 0 0 
O2 O2- 2 a 0.0851(2) 0.4610(3) 0.8931(2) 1. 0 0 
O3 O2- 2 a 0.2202(2) 0.8314(3) 0.2566(3) 1. 0 0 
O4 O2- 2 a 0.3114(2) 0.5110(2) 0.3087(3) 1. 0 0 
O5 O2- 2 a 0.0222(2) 0.9842(3) 0.6177(3) 1. 0 0 
O6 O2- 2 a 0.3604(2) 0.7261(3) 0.6953(3) 1. 0 0 
O7 O2- 2 a 0.4858(2) 0.2563(3) 0.7005(3) 1. 0 0 
H1 H1+ 2 a 0.267(4) 0.699(6) 0.769(7) 1. 0 -.9(5) 
H2 H1+ 2 a 0.578(5) 0.424(6) 0.416(8) 1. 0 -.5(6) 

#End of data_12134-ICSD


