data_94669-ICSD
#?2014 by Fachinformationszentrum Karlsruhe, and the U.S. Secretary of 
#Commerce on behalf of the United States.  All rights reserved.
_database_code_ICSD                94669
_audit_creation_date               2003/10/01
_audit_update_record               2005/10/01
_chemical_name_systematic          'Strontium Magnesium Fluoride - Ii'
_chemical_formula_structural       'Sr Mg F4'
_chemical_formula_sum              'F4 Mg1 Sr1'
_publ_section_title
;
Structurally ferroelectric Sr Mg F4
;
loop_
_citation_id
_citation_journal_abbrev
_citation_year
_citation_journal_volume
_citation_page_first
_citation_page_last
_citation_journal_id_ASTM
primary 'Acta Crystallographica, Section B: Structural Science'
 2002 58 34 37 ASBSDK
2 'Acta Crystallographica, Section C: Crystal Structure Communications'
 2001 57 784 786 ACSCEE
_publ_author_name                  'Abrahams, S.C.'
_cell_length_a                     7.8249(8)
_cell_length_b                     7.4930(7)
_cell_length_c                     16.9248(17)
_cell_angle_alpha                  90
_cell_angle_beta                   90
_cell_angle_gamma                  105.041(11)
_cell_volume                       958.34
_cell_formula_units_Z              12
_symmetry_space_group_name_H-M     'P 1 1 21/m'
_symmetry_Int_Tables_number        11
loop_
_symmetry_equiv_pos_site_id
_symmetry_equiv_pos_as_xyz
  1	'x, y, -z+.5'
  2	'-x, -y, -z'
  3	'-x, -y, z+.5'
  4	'x, y, z'
loop_
_atom_type_symbol
_atom_type_oxidation_number
F1-	-1
Mg2+	2
Sr2+	2
loop_
_atom_site_label
_atom_site_type_symbol
_atom_site_symmetry_multiplicity
_atom_site_Wyckoff_symbol
_atom_site_fract_x
_atom_site_fract_y
_atom_site_fract_z
_atom_site_occupancy
_atom_site_attached_hydrogens
Sr1 Sr2+ 2 e 0.18015 0.2084 0.250 1. 0 
Sr2 Sr2+ 4 f 0.32531 0.79732 0.41321 1. 0 
Sr3 Sr2+ 4 f 0.83480 0.8336 0.08204 1. 0 
Sr4 Sr2+ 2 e 0.66509 0.1619 0.250 1. 0 
Mg1 Mg2+ 2 e 0.5423 0.6592 0.250 1. 0 
Mg2 Mg2+ 4 f 0.5418 0.6693 -0.0823 1. 0 
Mg3 Mg2+ 2 e 0.0379 0.6634 0.250 1. 0 
Mg4 Mg2+ 4 f 0.0427 0.6672 -0.0834 1. 0 
F1 F1- 4 f 0.5935 0.8591 0.1720 1. 0 
F2 F1- 4 f 0.4879 0.4903 0.1684 1. 0 
F3 F1- 4 f 0.5954 0.8644 0.8386 1. 0 
F4 F1- 4 f 0.5833 0.8479 -0.0002 1. 0 
F5 F1- 2 d 0.5 0.5 0 1. 0 
F6 F1- 2 e 0.7898 0.6663 0.250 1. 0 
F7 F1- 4 f 0.2932 0.6676 -0.0772 1. 0 
F8 F1- 4 f 0.2076 0.3296 0.0889 1. 0 
F9 F1- 4 f 0.0839 0.8507 0.1707 1. 0 
F10 F1- 4 f 0.0040 0.4950 0.1686 1. 0 
F11 F1- 4 f 0.0860 0.8645 0.8376 1. 0 
F12 F1- 4 f 0.0961 0.8654 -0.0036 1. 0 
F13 F1- 2 b 0 0.5 0 1. 0 
F14 F1- 2 e 0.2901 0.6563 0.250 1. 0 

#End of data_94669-ICSD


