data_22011-ICSD
#?2014 by Fachinformationszentrum Karlsruhe, and the U.S. Secretary of 
#Commerce on behalf of the United States.  All rights reserved.
_database_code_ICSD                22011
_audit_creation_date               1980/01/01
_audit_update_record               2006/04/01
_chemical_name_systematic          'Lithium Alumosilicate - Beta'
_chemical_formula_structural       'Li (Al Si O4)'
_chemical_formula_sum              'Al1 Li1 O4 Si1'
_chemical_name_mineral             Pseudo-eucryptite
_publ_section_title
;
The crystal structure of beta eucryptite as a function of temperature
;
loop_
_citation_id
_citation_journal_abbrev
_citation_year
_citation_journal_volume
_citation_page_first
_citation_page_last
_citation_journal_id_ASTM
primary 'American Mineralogist' 1973 58 681 690 AMMIAY
_publ_author_name                  'Pillars, W.W.;Peacor, D.R.'
_cell_length_a                     10.513(3)
_cell_length_b                     10.513(3)
_cell_length_c                     11.164(5)
_cell_angle_alpha                  90.
_cell_angle_beta                   90.
_cell_angle_gamma                  120.
_cell_volume                       1068.57
_cell_formula_units_Z              12
_symmetry_space_group_name_H-M     'P 64 2 2'
_symmetry_Int_Tables_number        181
_refine_ls_R_factor_all            .132
loop_
_symmetry_equiv_pos_site_id
_symmetry_equiv_pos_as_xyz
  1	'x, x-y, -z+.6667'
  2	'-x+y, y, -z'
  3	'-y, -x, -z+.3333'
  4	'-x, -x+y, -z+.6667'
  5	'x-y, -y, -z'
  6	'y, x, -z+.3333'
  7	'x-y, x, z+.6667'
  8	'y, -x+y, z+.3333'
  9	'-x, -y, z'
 10	'-x+y, -x, z+.6667'
 11	'-y, x-y, z+.3333'
 12	'x, y, z'
loop_
_atom_type_symbol
_atom_type_oxidation_number
Al3+	3
Li1+	1
O2-	-2
Si4+	4
loop_
_atom_site_label
_atom_site_type_symbol
_atom_site_symmetry_multiplicity
_atom_site_Wyckoff_symbol
_atom_site_fract_x
_atom_site_fract_y
_atom_site_fract_z
_atom_site_occupancy
_atom_site_attached_hydrogens
_atom_site_B_iso_or_equiv
Li1 Li1+ 3 b 0 0 0.5 1. 0 1.7(5) 
Li2 Li1+ 3 c 0.5 0 0 1. 0 6.10(17) 
Li3 Li1+ 6 f 0.5 0 0.324(3) 1. 0 1.8(4) 
Al1 Al3+ 6 h 0.2532(3) 0 0.5 1. 0 0.49(5) 
Al2 Al3+ 6 j 0.2499(2) 0.4998(4) 0.5 1. 0 0.64(5) 
Si1 Si4+ 6 g 0.2499(3) 0 0 1. 0 0.37(4) 
Si2 Si4+ 6 i 0.2476(2) 0.4952(4) 0 1. 0 0.55(4) 
O1 O2- 12 k 0.0860(7) 0.1947(7) 0.2435(5) 1. 0 0.99(9) 
O2 O2- 12 k 0.6038(7) 0.7006(8) 0.2655(5) 1. 0 0.81(10) 
O3 O2- 12 k 0.1067(9) 0.7106(10) 0.2572(6) 1. 0 1.84(13) 
O4 O2- 12 k 0.5906(8) 0.2017(7) 0.2499(6) 1. 0 1.1(1) 

#End of data_22011-ICSD


