data_165276-ICSD
#?2014 by Fachinformationszentrum Karlsruhe, and the U.S. Secretary of 
#Commerce on behalf of the United States.  All rights reserved.
_database_code_ICSD                165276
_audit_creation_date               2010/02/01
_chemical_name_systematic
;
Potassium Titanium Chloride (1/4/11)
;
_chemical_formula_structural       'K Ti4 Cl11'
_chemical_formula_sum              'Cl11 K1 Ti4'
_publ_section_title
;
Two novel titanium halide phases: K Ti4 Cl11 and Cs Ti4.3 I11
;
loop_
_citation_id
_citation_journal_abbrev
_citation_year
_citation_journal_volume
_citation_journal_issue
_citation_page_first
_citation_page_last
_citation_journal_id_ASTM
primary 'Inorganic Chemistry' 1991 30 25 4794 4798 INOCAJ
_publ_author_name                  'Zhang Jie;Qi Ruyi;Corbett, J.D.'
_cell_length_a                     12.534(3)
_cell_length_b                     6.897(2)
_cell_length_c                     17.134(3)
_cell_angle_alpha                  90.
_cell_angle_beta                   90.
_cell_angle_gamma                  90.
_cell_volume                       1481.18
_cell_formula_units_Z              4
_symmetry_space_group_name_H-M     'P n m a'
_symmetry_Int_Tables_number        62
_refine_ls_R_factor_all            .035
loop_
_symmetry_equiv_pos_site_id
_symmetry_equiv_pos_as_xyz
  1	'x+.5, y, -z+.5'
  2	'x, -y+.5, z'
  3	'-x+.5, y+.5, z+.5'
  4	'-x, -y, -z'
  5	'-x+.5, -y, z+.5'
  6	'-x, y+.5, -z'
  7	'x+.5, -y+.5, -z+.5'
  8	'x, y, z'
loop_
_atom_type_symbol
_atom_type_oxidation_number
Cl1-	-1
K1+	1
Ti2+	2
Ti4+	4
loop_
_atom_site_label
_atom_site_type_symbol
_atom_site_symmetry_multiplicity
_atom_site_Wyckoff_symbol
_atom_site_fract_x
_atom_site_fract_y
_atom_site_fract_z
_atom_site_occupancy
_atom_site_attached_hydrogens
_atom_site_B_iso_or_equiv
Ti1 Ti2+ 4 c 0.3201(2) 0.25 0.6479(2) 1. 0 1.12(5) 
Ti2 Ti2+ 8 d 0.2554(2) 0.0294(2) 0.51098(9) 1. 0 1.00(3) 
Ti3 Ti4+ 4 c 0.3256(2) 0.25 0.8379(1) 1. 0 1.00(5) 
K1 K1+ 4 c 0.4949(4) 0.25 0.2424(5) 1. 0 4.7(1) 
Cl1 Cl1- 4 c 0.1466(3) 0.25 0.5859(5) 1. 0 1.10(6) 
Cl2 Cl1- 4 c 0.3371(3) 0.25 0.4210(2) 1. 0 1.24(7) 
Cl3 Cl1- 8 d 0.0859(2) 0.0013(3) 0.0859(1) 1. 0 1.42(5) 
Cl4 Cl1- 4 c 0.4748(3) 0.25 0.7486(3) 1. 0 1.56(6) 
Cl5 Cl1- 8 d 0.2478(2) 0.0137(3) 0.7493(1) 1. 0 1.52(4) 
Cl6 Cl1- 4 c 0.3261(3) 0.250 0.0816(2) 1. 0 1.28(7) 
Cl7 Cl1- 4 c 0.1702(3) 0.250 0.9244(2) 1. 0 1.28(7) 
Cl8 Cl1- 8 d 0.0997(2) 0.0011(3) 0.4165(1) 1. 0 1.26(5) 

#End of data_165276-ICSD


