data_87836-ICSD
#?2014 by Fachinformationszentrum Karlsruhe, and the U.S. Secretary of 
#Commerce on behalf of the United States.  All rights reserved.
_database_code_ICSD                87836
_audit_creation_date               2001/07/16
_chemical_name_systematic
;
Tripotassium Samarium Bis(phosphate(V))
;
_chemical_formula_structural       'K3 Sm (P O4)2'
_chemical_formula_sum              'K3 O8 P2 Sm1'
_publ_section_title
;
Crystal structure, infrared, and polarized Raman spectra of K3 Sm (P 
O4)2
;
loop_
_citation_id
_citation_journal_abbrev
_citation_year
_citation_journal_volume
_citation_page_first
_citation_page_last
_citation_journal_id_ASTM
primary 'European Journal of Inorganic Chemistry  (online)'
 1999 1999 1545 1550 EJICFO
_publ_author_name
;
Toumi, M.;Smiri-Dogguy, L.;Bulou, A.
;
_cell_length_a                     7.4347(5)
_cell_length_b                     5.6270(5)
_cell_length_c                     9.4919(5)
_cell_angle_alpha                  90.
_cell_angle_beta                   90.870(6)
_cell_angle_gamma                  90.
_cell_volume                       397.05
_cell_formula_units_Z              2
_symmetry_space_group_name_H-M     'P 1 21/m 1'
_symmetry_Int_Tables_number        11
_refine_ls_R_factor_all            .045
loop_
_symmetry_equiv_pos_site_id
_symmetry_equiv_pos_as_xyz
  1	'x, -y+.5, z'
  2	'-x, -y, -z'
  3	'-x, y+.5, -z'
  4	'x, y, z'
loop_
_atom_type_symbol
_atom_type_oxidation_number
K1+	1
O2-	-2
P5+	5
Sm3+	3
loop_
_atom_site_label
_atom_site_type_symbol
_atom_site_symmetry_multiplicity
_atom_site_Wyckoff_symbol
_atom_site_fract_x
_atom_site_fract_y
_atom_site_fract_z
_atom_site_occupancy
_atom_site_attached_hydrogens
_atom_site_U_iso_or_equiv
P1 P5+ 2 e 0.8070(2) 0.25 0.5737(1) 1. 0 0.0079(3) 
P2 P5+ 2 e 0.7675(2) 0.75 0.0875(1) 1. 0 0.0076(3) 
O1 O2- 2 e 0.7167(6) 0.25 0.4263(5) 1. 0 0.0117(8) 
O2 O2- 2 e 0.0102(7) 0.25 0.5994(5) 1. 0 0.0242(13) 
O3 O2- 4 f 0.2484(4) -.0262(6) 0.3426(3) 1. 0 0.0139(6) 
O4 O2- 2 e 0.8245(6) 0.75 -.0677(5) 1. 0 0.0120(9) 
O5 O2- 2 e 0.4349(6) 0.25 0.8990(5) 1. 0 0.0181(10) 
O6 O2- 4 f 0.8464(4) -.0260(6) 0.1612(3) 1. 0 0.0137(6) 
K1 K1+ 2 e 0.5060(1) 0.25 0.1923(1) 1. 0 0.0148(3) 
Sm1 Sm3+ 2 e 0.00705(3) 0.25 0.29098(3) 1. 0 0.0077(2) 
K2 K1+ 2 e 0.7965(2) 0.25 -.0821(1) 1. 0 0.0122(3) 
K3 K1+ 2 e 0.3627(2) 0.25 0.5920(1) 1. 0 0.0155(3) 

#End of data_87836-ICSD


