data_4442-ICSD
#?2014 by Fachinformationszentrum Karlsruhe, and the U.S. Secretary of 
#Commerce on behalf of the United States.  All rights reserved.
_database_code_ICSD                4442
_audit_creation_date               1980/01/01
_audit_update_record               1992/08/20
_chemical_name_systematic
;
Calcium Cyclo-trisilicate - High-pressure Phase
;
_chemical_formula_structural       'Ca3 (Si3 O9)'
_chemical_formula_sum              'Ca3 O9 Si3'
_publ_section_title
;
The crystal structure of a high-pressure polymorph of Ca Si O3
;
loop_
_citation_id
_citation_journal_abbrev
_citation_year
_citation_journal_volume
_citation_page_first
_citation_page_last
_citation_journal_id_ASTM
primary
;
Zeitschrift fuer Kristallographie, Kristallgeometrie, Kristallphysik, 
Kristallchemie (-144,1977)
;
 1969 130 185 206 ZEKGAX
_publ_author_name                  'Trojer, F.jr.'
_cell_length_a                     6.695(5)
_cell_length_b                     9.257(7)
_cell_length_c                     6.666(6)
_cell_angle_alpha                  86.63(5)
_cell_angle_beta                   76.13(5)
_cell_angle_gamma                  70.38(3)
_cell_volume                       377.69
_cell_formula_units_Z              2
_symmetry_space_group_name_H-M     'P -1'
_symmetry_Int_Tables_number        2
_refine_ls_R_factor_all            .065
loop_
_symmetry_equiv_pos_site_id
_symmetry_equiv_pos_as_xyz
  1	'-x, -y, -z'
  2	'x, y, z'
loop_
_atom_type_symbol
_atom_type_oxidation_number
Ca2+	2
O2-	-2
Si4+	4
loop_
_atom_site_label
_atom_site_type_symbol
_atom_site_symmetry_multiplicity
_atom_site_Wyckoff_symbol
_atom_site_fract_x
_atom_site_fract_y
_atom_site_fract_z
_atom_site_occupancy
_atom_site_attached_hydrogens
Ca1 Ca2+ 2 i 0.7441(3) 0.0002(3) 0.7623(3) 1. 0 
Ca2 Ca2+ 2 i 0.8789(3) 0.3513(3) 0.5846(3) 1. 0 
Ca3 Ca2+ 2 i 0.2443(3) 0.3356(3) 0.9245(3) 1. 0 
Si1 Si4+ 2 i 0.3684(4) 0.2951(4) 0.3916(4) 1. 0 
Si2 Si4+ 2 i 0.7583(4) 0.0162(4) 0.2701(4) 1. 0 
Si3 Si4+ 2 i 0.7218(4) 0.3009(4) 0.0416(4) 1. 0 
O1 O2- 2 i 0.215(1) 0.2564(9) 0.2656(9) 1. 0 
O2 O2- 2 i 0.2140(9) 0.4055(8) 0.5843(9) 1. 0 
O3 O2- 2 i 0.5556(10) 0.1359(9) 0.4518(9) 1. 0 
O4 O2- 2 i 0.3392(10) 0.0612(9) 0.8715(10) 1. 0 
O5 O2- 2 i 0.0629(10) 0.0932(9) 0.614(1) 1. 0 
O6 O2- 2 i 0.8661(10) 0.1386(9) 0.1353(10) 1. 0 
O7 O2- 2 i 0.6282(10) 0.2629(9) 0.8591(9) 1. 0 
O8 O2- 2 i 0.865(1) 0.4031(9) 0.954(1) 1. 0 
O9 O2- 2 i 0.5154(10) 0.3853(9) 0.2426(9) 1. 0 

#End of data_4442-ICSD


