data_166630-ICSD
#?2014 by Fachinformationszentrum Karlsruhe, and the U.S. Secretary of 
#Commerce on behalf of the United States.  All rights reserved.
_database_code_ICSD                166630
_audit_creation_date               2010/08/01
_audit_update_record               2013/02/01
_chemical_name_systematic
;
Disodium Hexapraseodymium Tetrakis(germanate) Bis(digermanate)
;
_chemical_formula_structural       'Na2 Pr6 (Ge O3)4 (Ge2 O7)2'
_chemical_formula_sum              'Ge8 Na2 O26 Pr6'
_publ_section_title
;
Crystal structure of Na2 Pr6 (Ge4 O12) (Ge2 O7)2
;
loop_
_citation_id
_citation_journal_abbrev
_citation_year
_citation_journal_volume
_citation_journal_issue
_citation_page_first
_citation_page_last
_citation_journal_id_ASTM
primary 'Doklady Akademii Nauk SSSR' 1974 219 1 91 94 DANKAS
_publ_author_name
;
Gorbunov, Yu.A.;Maximov, B.A.;Ilyukhin, V.V.;Belov, N.V.
;
_cell_length_a                     7.18
_cell_length_b                     11.61
_cell_length_c                     7.04
_cell_angle_alpha                  98.917
_cell_angle_beta                   91.617
_cell_angle_gamma                  102.5
_cell_volume                       564.86
_cell_formula_units_Z              1
_symmetry_space_group_name_H-M     'P -1'
_symmetry_Int_Tables_number        2
_refine_ls_R_factor_all            .113
loop_
_symmetry_equiv_pos_site_id
_symmetry_equiv_pos_as_xyz
  1	'-x, -y, -z'
  2	'x, y, z'
loop_
_atom_type_symbol
_atom_type_oxidation_number
Ge4+	4
Na1+	1
O2-	-2
Pr3+	3
loop_
_atom_site_label
_atom_site_type_symbol
_atom_site_symmetry_multiplicity
_atom_site_Wyckoff_symbol
_atom_site_fract_x
_atom_site_fract_y
_atom_site_fract_z
_atom_site_occupancy
_atom_site_attached_hydrogens
_atom_site_B_iso_or_equiv
Pr1 Pr3+ 2 i 0.3257(6) 0.3544(3) 0.0513(4) 1. 0 0.27(4) 
Pr2 Pr3+ 2 i 0.0877(6) 0.8642(3) 0.2772(4) 1. 0 0.30(4) 
Pr3 Pr3+ 2 i 0.4595(6) 0.1650(3) 0.4432(4) 1. 0 0.26(4) 
Ge1 Ge4+ 2 i 0.061(1) 0.8782(5) 0.7760(8) 1. 0 0.26(8) 
Ge2 Ge4+ 2 i 0.279(1) 0.4334(5) 0.5948(8) 1. 0 0.21(8) 
Ge3 Ge4+ 2 i 0.397(1) 0.1006(5) 0.8821(8) 1. 0 0.21(8) 
Ge4 Ge4+ 2 i 0.158(1) 0.5958(5) 0.3094(8) 1. 0 0.18(8) 
O1 O2- 2 i 0.347(7) 0.346(3) 0.402(5) 1. 0 0.1(6) 
O2 O2- 2 i 0.114(7) 0.074(3) 0.364(5) 1. 0 0.7(5) 
O3 O2- 2 i 0.200(7) 0.845(3) 0.567(5) 1. 0 0.1(6) 
O4 O2- 2 i 0.283(7) 0.184(3) 0.753(5) 1. 0 0.1(6) 
O5 O2- 2 i 0.206(7) 0.992(3) 0.952(5) 1. 0 0.3(5) 
O6 O2- 2 i 0.307(7) 0.718(3) 0.250(5) 1. 0 0.2(6) 
O7 O2- 2 i 0.117(7) 0.469(3) 0.147(5) 1. 0 0.1(7) 
O8 O2- 2 i 0.415(7) 0.480(3) 0.803(5) 1. 0 0.3(6) 
O9 O2- 2 i 0.218(7) 0.560(3) 0.542(5) 1. 0 0.2(6) 
O10 O2- 2 i 0.059(7) 0.351(3) 0.673(5) 1. 0 1.0(6) 
O11 O2- 2 i 0.488(7) 0.193(3) 0.112(5) 1. 0 0.8(6) 
O12 O2- 2 i 0.444(7) 0.953(3) 0.279(5) 1. 0 0.2(8) 
O13 O2- 2 i 0.012(7) 0.212(3) 0.061(5) 1. 0 0.1(7) 
Na1 Na1+ 2 i 0.201(4) 0.652(2) 0.876(3) 1. 0 0.1(5) 

#End of data_166630-ICSD


