data_62501-ICSD
#?2014 by Fachinformationszentrum Karlsruhe, and the U.S. Secretary of 
#Commerce on behalf of the United States.  All rights reserved.
_database_code_ICSD                62501
_audit_creation_date               1988/02/22
_audit_update_record               2006/04/01
_chemical_name_systematic          'Dialuminium Beryllate'
_chemical_formula_structural       'Al2 (Be O4)'
_chemical_formula_sum              'Al2 Be1 O4'
_chemical_name_mineral             Chrysoberyl
_publ_section_title
;
High-pressure crystal chemistry of chrysoberyl, Al2 Be O4: insights 
on the origin of olivine elastic anisotropy
;
loop_
_citation_id
_citation_journal_abbrev
_citation_year
_citation_journal_volume
_citation_page_first
_citation_page_last
_citation_journal_id_ASTM
primary 'Physics and Chemistry of Minerals' 1987 14 13 20 PCMIDU
_publ_author_name                  'Hazen, R.M.'
_cell_length_a                     4.428(1)
_cell_length_b                     9.415(3)
_cell_length_c                     5.481(2)
_cell_angle_alpha                  90.
_cell_angle_beta                   90.
_cell_angle_gamma                  90.
_cell_volume                       228.5
_cell_formula_units_Z              4
_symmetry_space_group_name_H-M     'P b n m'
_symmetry_Int_Tables_number        62
_refine_ls_R_factor_all            .033
loop_
_symmetry_equiv_pos_site_id
_symmetry_equiv_pos_as_xyz
  1	'-x+.5, y+.5, z'
  2	'x, y, -z+.5'
  3	'x+.5, -y+.5, z+.5'
  4	'-x, -y, -z'
  5	'x+.5, -y+.5, -z'
  6	'-x, -y, z+.5'
  7	'-x+.5, y+.5, -z+.5'
  8	'x, y, z'
loop_
_atom_type_symbol
_atom_type_oxidation_number
Al3+	3
Be2+	2
O2-	-2
loop_
_atom_site_label
_atom_site_type_symbol
_atom_site_symmetry_multiplicity
_atom_site_Wyckoff_symbol
_atom_site_fract_x
_atom_site_fract_y
_atom_site_fract_z
_atom_site_occupancy
_atom_site_attached_hydrogens
Al1 Al3+ 4 a 0 0 0 1. 0 
Al2 Al3+ 4 c 0.9942(4) 0.2729(1) 0.25 1. 0 
Be1 Be2+ 4 c 0.4328(13) 0.0930(6) 0.25 1. 0 
O1 O2- 4 c 0.7899(8) 0.0905(3) 0.25 1. 0 
O2 O2- 4 c 0.2419(7) 0.4330(3) 0.25 1. 0 
O3 O2- 8 d 0.2569(4) 0.1628(2) 0.0154(3) 1. 0 

#End of data_62501-ICSD


