data_43729-ICSD
#?2014 by Fachinformationszentrum Karlsruhe, and the U.S. Secretary of 
#Commerce on behalf of the United States.  All rights reserved.
_database_code_ICSD                43729
_audit_creation_date               2000/07/15
_audit_update_record               2012/08/01
_chemical_name_systematic
;
Dipotassium Nitridopentachloroosmate
;
_chemical_formula_structural       'K2 (Os N Cl5)'
_chemical_formula_sum              'Cl5 K2 N1 Os1'
_publ_section_title
;
Structures of K2 Os N Cl5 and K(Os N Br4 H2 O) H2 O
;
loop_
_citation_id
_citation_journal_abbrev
_citation_year
_citation_journal_volume
_citation_page_first
_citation_page_last
_citation_journal_id_ASTM
primary 'Zhurnal Strukturnoi Khimii (Issue-No. from 1981)'
 1960 1 501 503 ZSTKAI
2 'Doklady Akademii Nauk SSSR' 1959 128 78 80 DANKAS
_publ_author_name                  'Atovmyan, L.O.;Bokii, G.B.'
_cell_length_a                     8.92(3)
_cell_length_b                     12.913(7)
_cell_length_c                     7.24(3)
_cell_angle_alpha                  90.
_cell_angle_beta                   90.
_cell_angle_gamma                  90.
_cell_volume                       833.93
_cell_formula_units_Z              4
_symmetry_space_group_name_H-M     'C m c 21'
_symmetry_Int_Tables_number        36
loop_
_symmetry_equiv_pos_site_id
_symmetry_equiv_pos_as_xyz
  1	'x, -y, z+.5'
  2	'-x, -y, z+.5'
  3	'-x, y, z'
  4	'x, y, z'
  5	'x+.5, -y+.5, z+.5'
  6	'-x+.5, -y+.5, z+.5'
  7	'-x+.5, y+.5, z'
  8	'x+.5, y+.5, z'
loop_
_atom_type_symbol
_atom_type_oxidation_number
Cl1-	-1
K1+	1
N3-	-3
Os6+	6
loop_
_atom_site_label
_atom_site_type_symbol
_atom_site_symmetry_multiplicity
_atom_site_Wyckoff_symbol
_atom_site_fract_x
_atom_site_fract_y
_atom_site_fract_z
_atom_site_occupancy
_atom_site_attached_hydrogens
K1 K1+ 4 a 0.5 0.184 0.058 1. 0 
K2 K1+ 4 a 0.5 0.108 0.558 1. 0 
Os1 Os6+ 4 a 0 0.162 0 1. 0 
N1 N3- 4 a 0.5 0.368 0.286 1. 0 
Cl1 Cl1- 8 b 0.184 0.035 0.058 1. 0 
Cl2 Cl1- 8 b 0.315 0.212 0.441 1. 0 
Cl3 Cl1- 4 a 0 0.203 0.286 1. 0 

#End of data_43729-ICSD


