data_20210-ICSD
#?2014 by Fachinformationszentrum Karlsruhe, and the U.S. Secretary of 
#Commerce on behalf of the United States.  All rights reserved.
_database_code_ICSD                20210
_audit_creation_date               1980/01/01
_audit_update_record               2012/02/01
_chemical_name_systematic          'Potassium Trichromate'
_chemical_formula_structural       'K2 Cr3 O10'
_chemical_formula_sum              'Cr3 K2 O10'
_publ_section_title
;
The crystal strucutre of potassium trichromate K2 Cr3 O10
;
loop_
_citation_id
_citation_journal_abbrev
_citation_year
_citation_journal_volume
_citation_page_first
_citation_page_last
_citation_journal_id_ASTM
primary 'Doklady Akademii Nauk SSSR' 1978 239 1343 1345 DANKAS
_publ_author_name
;
Soldatov, E.A.;Bochkova, R.I.;Grishin, I.A.;Kuz'min, E.A.;Belov, N.V.
;
_cell_length_a                     7.334(5)
_cell_length_b                     9.613(5)
_cell_length_c                     17.320(7)
_cell_angle_alpha                  90.
_cell_angle_beta                   90.
_cell_angle_gamma                  128.90(12)
_cell_volume                       950.31
_cell_formula_units_Z              4
_symmetry_space_group_name_H-M     'P 1 1 21/b'
_symmetry_Int_Tables_number        14
_refine_ls_R_factor_all            .073
loop_
_symmetry_equiv_pos_site_id
_symmetry_equiv_pos_as_xyz
  1	'x, y+.5, -z+.5'
  2	'-x, -y, -z'
  3	'-x, -y+.5, z+.5'
  4	'x, y, z'
loop_
_atom_type_symbol
_atom_type_oxidation_number
Cr6+	6
K1+	1
O2-	-2
loop_
_atom_site_label
_atom_site_type_symbol
_atom_site_symmetry_multiplicity
_atom_site_Wyckoff_symbol
_atom_site_fract_x
_atom_site_fract_y
_atom_site_fract_z
_atom_site_occupancy
_atom_site_attached_hydrogens
_atom_site_B_iso_or_equiv
Cr1 Cr6+ 4 e 0.0801(5) 0.3382(4) 0.9992(2) 1. 0 1.26(12) 
Cr2 Cr6+ 4 e 0.2575(5) 0.1678(4) 0.9073(2) 1. 0 1.22(12) 
Cr3 Cr6+ 4 e 0.4223(5) 0.4660(4) 0.7775(2) 1. 0 1.35(12) 
K1 K1+ 4 e 0.4796(6) 0.1340(6) 0.0865(2) 1. 0 1.67(12) 
K2 K1+ 4 e 0.1072(7) 0.0738(6) 0.3031(2) 1. 0 2.26(12) 
O1 O2- 4 e 0.0233(2) 0.038(2) 0.8590(7) 1. 0 2.43(12) 
O2 O2- 4 e 0.195(2) 0.215(1) 0.9910(6) 1. 0 1.60(12) 
O3 O2- 4 e 0.454(2) 0.357(1) 0.8547(6) 1. 0 1.43(12) 
O4 O2- 4 e -.005(2) 0.331(2) 0.0835(8) 1. 0 2.81(12) 
O5 O2- 4 e 0.133(2) 0.259(2) 0.4386(8) 1. 0 3.47(12) 
O6 O2- 4 e 0.358(2) 0.456(2) 0.2787(7) 1. 0 2.16(12) 
O7 O2- 4 e 0.287(2) 0.041(2) 0.5261(8) 1. 0 3.27(12) 
O8 O2- 4 e 0.176(2) 0.311(2) 0.7359(8) 1. 0 3.10(12) 
O9 O2- 4 e 0.366(2) 0.071(2) 0.9249(7) 1. 0 2.51(12) 
O10 O2- 4 e 0.414(2) 0.620(2) 0.8067(9) 1. 0 3.76(12) 

#End of data_20210-ICSD


