data_33943-ICSD
#?2014 by Fachinformationszentrum Karlsruhe, and the U.S. Secretary of 
#Commerce on behalf of the United States.  All rights reserved.
_database_code_ICSD                33943
_audit_creation_date               1992/01/20
_audit_update_record               2004/10/01
_chemical_name_systematic
;
Tetrasodium Strontium Tris(catena-silicate)
;
_chemical_formula_structural       'Na4 Sr (Si O3)3'
_chemical_formula_sum              'Na4 O9 Si3 Sr1'
_publ_section_title
;
The crystal structure of sodium strontium silicate, Na4 Sr Si3 O9
;
loop_
_citation_id
_citation_journal_abbrev
_citation_year
_citation_journal_volume
_citation_page_first
_citation_page_last
_citation_journal_id_ASTM
primary 'Zeitschrift fuer Kristallographie (1979-2010)' 1991 197 59 65 ZEKRDZ
_publ_author_name
;
Dent Glasser, L.S.;Gunawardane, R.P.;Howie, R.A.
;
_cell_length_a                     10.706(2)
_cell_length_b                     10.866(2)
_cell_length_c                     6.509(1)
_cell_angle_alpha                  90.
_cell_angle_beta                   144.14(2)
_cell_angle_gamma                  90.
_cell_volume                       443.57
_cell_formula_units_Z              2
_symmetry_space_group_name_H-M     'C 1 2 1'
_symmetry_Int_Tables_number        5
_refine_ls_R_factor_all            .104
loop_
_symmetry_equiv_pos_site_id
_symmetry_equiv_pos_as_xyz
  1	'-x, y, -z'
  2	'x, y, z'
  3	'-x+.5, y+.5, -z'
  4	'x+.5, y+.5, z'
loop_
_atom_type_symbol
_atom_type_oxidation_number
Na1+	1
O2-	-2
Si4+	4
Sr2+	2
loop_
_atom_site_label
_atom_site_type_symbol
_atom_site_symmetry_multiplicity
_atom_site_Wyckoff_symbol
_atom_site_fract_x
_atom_site_fract_y
_atom_site_fract_z
_atom_site_occupancy
_atom_site_attached_hydrogens
_atom_site_B_iso_or_equiv
Na1 Na1+ 2 a 0.5 -.004(9) 0 1. 0 0.3(2) 
Na2 Na1+ 2 b 0 0.027(2) 0.5 1. 0 2.6(4) 
Na3 Na1+ 4 c 0.798(3) 0.233(2) 0.562(5) 1. 0 2.9(3) 
Sr1 Sr2+ 2 b 0.5 0 0.5 1. 0 1.07(3) 
Si1 Si4+ 2 a 0 0.957(1) 0 1. 0 1.2(2) 
Si2 Si4+ 4 c 0.809(1) 0.767(1) 0.079(2) 1. 0 1.0(2) 
O1 O2- 4 c 0.899(9) 0.861(6) 0.03(2) 1. 0 7.5(13) 
O2 O2- 4 c 0.188(4) 0.027(3) 0.346(6) 1. 0 2.3(5) 
O3 O2- 4 c 0.804(4) 0.635(3) -.025(7) 1. 0 2.3(5) 
O4 O2- 4 c 0.606(5) 0.825(3) -.091(8) 1. 0 2.5(5) 
O5 O2- 2 b 0 0.772(9) 0.5 1. 0 8.88(21) 

#End of data_33943-ICSD


