data_15305-ICSD
#?2014 by Fachinformationszentrum Karlsruhe, and the U.S. Secretary of 
#Commerce on behalf of the United States.  All rights reserved.
_database_code_ICSD                15305
_audit_creation_date               1980/01/01
_audit_update_record               2007/04/01
_chemical_name_systematic          'Zinc Dimanganese(III) Oxide'
_chemical_formula_structural       'Zn Mn2 O4'
_chemical_formula_sum              'Mn2 O4 Zn1'
_chemical_name_mineral             Hetaerolite
_publ_section_title
;
Effet Jahn-Teller cooperatif dans le systeme Zn Mn2 O4 Zn2 Sn O4
;
loop_
_citation_id
_citation_journal_abbrev
_citation_year
_citation_journal_volume
_citation_page_first
_citation_page_last
_citation_journal_id_ASTM
primary 'Annales de Chimie (Paris) (Vol=Year)' 1972 1972 301 314 ANCPAC
2 'Journal of Physics and Chemistry of Solids' 1962 23 711 727 JPCSAW
3 'Golden Book of Phase Transitions, Wroclaw' 2002 1 1 123 GBOPT5
4 'Journal of Physics and Chemistry of Solids' 1961 21 172 178 JPCSAW
_publ_author_name                  'Nogues, M.;Poix, P.'
_cell_length_a                     5.722(3)
_cell_length_b                     5.722(3)
_cell_length_c                     9.236(5)
_cell_angle_alpha                  90.
_cell_angle_beta                   90.
_cell_angle_gamma                  90.
_cell_volume                       302.4
_cell_formula_units_Z              4
_symmetry_space_group_name_H-M     'I 41/a m d S'
_symmetry_Int_Tables_number        141
_refine_ls_R_factor_all            .04
loop_
_symmetry_equiv_pos_site_id
_symmetry_equiv_pos_as_xyz
  1	'y, -x+.5, z+.25'
  2	'-y, x+.5, z+.25'
  3	'y, -x, -z'
  4	'-y, x, -z'
  5	'-y, -x+.5, z+.25'
  6	'y, x+.5, z+.25'
  7	'-y, -x, -z'
  8	'y, x, -z'
  9	'x, -y+.5, -z+.25'
 10	'-x, y+.5, -z+.25'
 11	'x, -y, z'
 12	'-x, y, z'
 13	'-x, -y+.5, -z+.25'
 14	'x, y+.5, -z+.25'
 15	'-x, -y, z'
 16	'x, y, z'
 17	'y+.5, -x, z+.75'
 18	'-y+.5, x, z+.75'
 19	'y+.5, -x+.5, -z+.5'
 20	'-y+.5, x+.5, -z+.5'
 21	'-y+.5, -x, z+.75'
 22	'y+.5, x, z+.75'
 23	'-y+.5, -x+.5, -z+.5'
 24	'y+.5, x+.5, -z+.5'
 25	'x+.5, -y, -z+.75'
 26	'-x+.5, y, -z+.75'
 27	'x+.5, -y+.5, z+.5'
 28	'-x+.5, y+.5, z+.5'
 29	'-x+.5, -y, -z+.75'
 30	'x+.5, y, -z+.75'
 31	'-x+.5, -y+.5, z+.5'
 32	'x+.5, y+.5, z+.5'
loop_
_atom_type_symbol
_atom_type_oxidation_number
Mn3+	3
O2-	-2
Zn2+	2
loop_
_atom_site_label
_atom_site_type_symbol
_atom_site_symmetry_multiplicity
_atom_site_Wyckoff_symbol
_atom_site_fract_x
_atom_site_fract_y
_atom_site_fract_z
_atom_site_occupancy
_atom_site_attached_hydrogens
_atom_site_B_iso_or_equiv
Zn1 Zn2+ 4 a 0 0 0 1. 0 0.65 
Mn1 Mn3+ 8 d 0 0.25 0.625 1. 0 0.65 
O1 O2- 16 h 0 0.227(3) 0.386(2) 1. 0 0.65 

#End of data_15305-ICSD


