data_159521-ICSD
#?2014 by Fachinformationszentrum Karlsruhe, and the U.S. Secretary of 
#Commerce on behalf of the United States.  All rights reserved.
_database_code_ICSD                159521
_audit_creation_date               2008/08/01
_chemical_name_systematic
;
Magnesium Calcium Catena-disilicate
;
_chemical_formula_structural       'Mg Ca (Si2 O6)'
_chemical_formula_sum              'Ca1 Mg1 O6 Si2'
_chemical_name_mineral             Diopside
_publ_section_title
;
Model pyroxenes II: Structural variation as a function of tetrahedral 
rotation
;
loop_
_citation_id
_citation_journal_abbrev
_citation_year
_citation_journal_volume
_citation_page_first
_citation_page_last
_citation_journal_id_ASTM
primary 'American Mineralogist' 2004 89 614 628 AMMIAY
_publ_author_name                  'Thompson, R.M.;Downs, R.T.'
_cell_length_a                     9.876
_cell_length_b                     9.170
_cell_length_c                     5.294
_cell_angle_alpha                  90
_cell_angle_beta                   109.0
_cell_angle_gamma                  90
_cell_volume                       453.32
_cell_formula_units_Z              4
_symmetry_space_group_name_H-M     'C 1 2/c 1'
_symmetry_Int_Tables_number        15
loop_
_symmetry_equiv_pos_site_id
_symmetry_equiv_pos_as_xyz
  1	'x, -y, z+.5'
  2	'-x, -y, -z'
  3	'-x, y, -z+.5'
  4	'x, y, z'
  5	'x+.5, -y+.5, z+.5'
  6	'-x+.5, -y+.5, -z'
  7	'-x+.5, y+.5, -z+.5'
  8	'x+.5, y+.5, z'
loop_
_atom_type_symbol
_atom_type_oxidation_number
Ca2+	2
Mg2+	2
O2-	-2
Si4+	4
loop_
_atom_site_label
_atom_site_type_symbol
_atom_site_symmetry_multiplicity
_atom_site_Wyckoff_symbol
_atom_site_fract_x
_atom_site_fract_y
_atom_site_fract_z
_atom_site_occupancy
_atom_site_attached_hydrogens
Mg1 Mg2+ 4 e 0.00000 0.91667 0.25000 1. 0 
Ca1 Ca2+ 4 e 0.00000 0.25000 0.25000 1. 0 
Si1 Si4+ 8 f 0.30820 0.08333 0.27090 1. 0 
O1 O2- 8 f 0.13370 0.08333 0.16470 1. 0 
O2 O2- 8 f 0.36630 0.25000 0.33530 1. 0 
O3 O2- 8 f 0.36630 0.01450 0.04190 1. 0 

#End of data_159521-ICSD


