data_39560-ICSD
#?2014 by Fachinformationszentrum Karlsruhe, and the U.S. Secretary of 
#Commerce on behalf of the United States.  All rights reserved.
_database_code_ICSD                39560
_audit_creation_date               1992/08/20
_audit_update_record               2005/10/01
_chemical_name_systematic
;
Potassium Iron Fluoride Phosphate(V)
;
_chemical_formula_structural       'K Fe F (P O4)'
_chemical_formula_sum              'F1 Fe1 K1 O4 P1'
_publ_section_title
;
Peculiarities of K Ti O P O4 and K Fe F P O4 crystal structures at 
110 K.
;
loop_
_citation_id
_citation_journal_abbrev
_citation_year
_citation_journal_volume
_citation_page_first
_citation_page_last
_citation_journal_id_ASTM
primary 'Doklady Akademii Nauk SSSR' 1992 322 520 524 DANKAS
2 'Golden Book of Phase Transitions, Wroclaw' 2002 1 1 123 GBOPT5
_publ_author_name
;
Belokoneva, E.L.;Slovokhotova, O.L.;Antipin, M.Yu.;Tsirel'son, 
V.G.;Struchkov, Yu.T.
;
_cell_length_a                     12.847(3)
_cell_length_b                     6.353(1)
_cell_length_c                     10.642(2)
_cell_angle_alpha                  90.
_cell_angle_beta                   90.
_cell_angle_gamma                  90.
_cell_volume                       868.57
_cell_formula_units_Z              8
_symmetry_space_group_name_H-M     'P n a 21'
_symmetry_Int_Tables_number        33
_refine_ls_R_factor_all            .026
loop_
_symmetry_equiv_pos_site_id
_symmetry_equiv_pos_as_xyz
  1	'x+.5, -y+.5, z'
  2	'-x+.5, y+.5, z+.5'
  3	'-x, -y, z+.5'
  4	'x, y, z'
loop_
_atom_type_symbol
_atom_type_oxidation_number
F1-	-1
Fe3+	3
K1+	1
O2-	-2
P5+	5
loop_
_atom_site_label
_atom_site_type_symbol
_atom_site_symmetry_multiplicity
_atom_site_Wyckoff_symbol
_atom_site_fract_x
_atom_site_fract_y
_atom_site_fract_z
_atom_site_occupancy
_atom_site_attached_hydrogens
Fe1 Fe3+ 4 a 0.38863(3) 0.49474(7) 0 1. 0 
Fe2 Fe3+ 4 a 0.24639(5) 0.25169(8) 0.75054(9) 1. 0 
P1 P5+ 4 a 0.49951(8) 0.32823(9) 0.75053(12) 1. 0 
P2 P5+ 4 a 0.18357(6) 0.49913(13) 0.49344(11) 1. 0 
K1 K1+ 4 a 0.37689(8) 0.77371(11) 0.70438(9) 1. 0 
K2 K1+ 4 a 0.10476(7) 0.69456(11) 0.94640(8) 1. 0 
O1 O2- 4 a 0.4870(3) 0.4827(5) 0.8611(3) 1. 0 
O2 O2- 4 a 0.5105(3) 0.4672(5) 0.6319(3) 1. 0 
O3 O2- 4 a 0.4017(2) 0.1918(4) 0.7342(3) 1. 0 
O4 O2- 4 a 0.5952(2) 0.1887(4) 0.7697(2) 1. 0 
O5 O2- 4 a 0.1135(3) 0.3080(4) 0.4716(2) 1. 0 
O6 O2- 4 a 0.1151(3) 0.6913(4) 0.5261(3) 1. 0 
O7 O2- 4 a 0.2554(3) 0.5373(5) 0.3844(3) 1. 0 
O8 O2- 4 a 0.2561(3) 0.4540(5) 0.6117(3) 1. 0 
F1 F1- 4 a 0.2295(3) 0.0263(4) 0.6232(2) 1. 0 
F2 F1- 4 a 0.2266(3) 0.9809(4) 0.3708(2) 1. 0 

loop_
_atom_site_aniso_label
_atom_site_aniso_type_symbol
_atom_site_aniso_B_11
_atom_site_aniso_B_22
_atom_site_aniso_B_33
_atom_site_aniso_B_12
_atom_site_aniso_B_13
_atom_site_aniso_B_23
Fe1 Fe3+ 0.28(2) 0.35(1) 0.28(1) -.02(1) 0.00(1) -.03(1)
Fe2 Fe3+ 0.24(2) 0.37(1) 0.28(1) 0.00(1) -.01(1) 0.02
P1 P5+ 0.23(2) 0.37(2) 0.34(2) 0.01(2) 0.04(1) 0.00(2)
P2 P5+ 0.24(3) 0.35(2) 0.32(2) -.01(1) -.02(3) 0.02(1)
K1 K1+ 1.23(3) 0.61(2) 0.86(2) 0.25(2) -.24(2) -.06(2)
K2 K1+ 0.52(3) 0.87(2) 1.06(2) 0.18(2) 0.00(2) 0.00(2)
O1 O2- 0.54(11) 0.49(7) 0.56(7) -.07(6) 0.01(6) 0.00(5)
O2 O2- 0.63(12) 0.69(7) 0.28(7) 0.18(6) 0.21(6) 0.12(6)
O3 O2- 0.29(10) 0.43(6) 0.83(8) -.06(5) -.03(5) -.03(6)
O4 O2- 0.37(10) 0.59(6) 0.43(7) 0.05(5) -.05(5) 0.01(5)
O5 O2- 0.63(12) 0.34(6) 0.44(7) -.02(6) -.12(5) -.02(5)
O6 O2- 0.60(12) 0.29(6) 0.77(8) 0.08(6) 0.05(6) 0.01(5)
O7 O2- 0.49(12) 0.69(8) 0.61(8) 0.12(6) 0.22(6) 0.21(7)
O8 O2- 0.51(11) 0.78(8) 0.30(7) -.08(6) -.11(5) 0.23(6)
F1 F1- 0.57(11) 0.71(6) 0.45(7) 0.01(5) -.13(5) -.07(5)
F2 F1- 0.23(10) 0.50(6) 0.70(7) -.06(5) 0.08(5) -.09(5)
#End of data_39560-ICSD


