data_290662-ICSD
#?2014 by Fachinformationszentrum Karlsruhe, and the U.S. Secretary of 
#Commerce on behalf of the United States.  All rights reserved.
_database_code_ICSD                290662
_audit_creation_date               2014/08/01
_chemical_name_systematic          'Pentasilver Antimony Tetrasulfide'
_chemical_formula_structural       'Ag5 Sb S4'
_chemical_formula_sum              'Ag5 S4 Sb1'
_chemical_name_mineral             Stephanite
_publ_section_title
;
Preferred ion diffusion pathways and activation energies for Ag in 
the crystal structure of stephanite, Ag5 Sb S4
;
loop_
_citation_id
_citation_journal_abbrev
_citation_year
_citation_journal_volume
_citation_journal_issue
_citation_page_first
_citation_page_last
_citation_journal_id_ASTM
primary 'Mineralogical Magazine (1969-)' 2009 73 1 17 26 MNLMBB
_publ_author_name                  'M. Leitl;A. Pfitzner;L. Bindi'
_cell_length_a                     7.8329(6)
_cell_length_b                     12.458(1)
_cell_length_c                     8.5272(1)
_cell_angle_alpha                  90.
_cell_angle_beta                   90.
_cell_angle_gamma                  90.
_cell_volume                       832.1
_cell_formula_units_Z              4
_symmetry_space_group_name_H-M     'C m c 21'
_symmetry_Int_Tables_number        36
_refine_ls_R_factor_all            .0427
loop_
_symmetry_equiv_pos_site_id
_symmetry_equiv_pos_as_xyz
  1	'x, -y, z+.5'
  2	'-x, -y, z+.5'
  3	'-x, y, z'
  4	'x, y, z'
  5	'x+.5, -y+.5, z+.5'
  6	'-x+.5, -y+.5, z+.5'
  7	'-x+.5, y+.5, z'
  8	'x+.5, y+.5, z'
loop_
_atom_type_symbol
_atom_type_oxidation_number
Ag1+	1
S2-	-2
Sb3+	3
loop_
_atom_site_label
_atom_site_type_symbol
_atom_site_symmetry_multiplicity
_atom_site_Wyckoff_symbol
_atom_site_fract_x
_atom_site_fract_y
_atom_site_fract_z
_atom_site_occupancy
_atom_site_attached_hydrogens
_atom_site_U_iso_or_equiv
Sb1 Sb3+ 4 a 0 0.82095(7) 0.5143 1. 0 0.0305(2) 
Ag1 Ag1+ 8 b 0.1856(1) 0.12312(9) 0.6010(2) 1. 0 0.0508(3) 
Ag2 Ag1+ 8 b 0.3139(4) 0.0648(3) 0.2849(3) 1. 0 0.0676(4) 
Ag3 Ag1+ 4 a 0.5 0.8549(1) 0.4456(3) 1. 0 0.0587(5) 
S1 S2- 4 a 0.5 0.0276(3) 0.5917(4) 1. 0 0.0335(8) 
S2 S2- 4 a 0 0.0142(2) 0.4096(4) 1. 0 0.0305(8) 
S3 S2- 8 b 0.7706(3) 0.7670(2) 0.3464(3) 1. 0 0.0326(6) 

loop_
_atom_site_aniso_label
_atom_site_aniso_type_symbol
_atom_site_aniso_U_11
_atom_site_aniso_U_22
_atom_site_aniso_U_33
_atom_site_aniso_U_12
_atom_site_aniso_U_13
_atom_site_aniso_U_23
Sb1 Sb3+ 0.0323(4) 0.0232(4) 0.0268(4) 0 0 0.0009(3)
Ag1 Ag1+ 0.0559(5) 0.0576(6) 0.0389(5) -0.0102(4) -0.0004(3) -0.0109(4)
Ag2 Ag1+ 0.0670(7) 0.0750(8) 0.0609(7) 0.0197(6) 0.0101(5) -0.0239(6)
Ag3 Ag1+ 0.0512(7) 0.0577(8) 0.067(1) 0 0 -0.0184(7)
S1 S2- 0.033(1) 0.038(2) 0.030(2) 0 0 0.005(1)
S2 S2- 0.031(1) 0.030(1) 0.031(2) 0 0 0
S3 S2- 0.0324(9) 0.031(1) 0.034(1) -0.0050(8) -0.0029(9) 0.0020(9)
#End of data_290662-ICSD


