data_408948-ICSD
#?2014 by Fachinformationszentrum Karlsruhe, and the U.S. Secretary of 
#Commerce on behalf of the United States.  All rights reserved.
_database_code_ICSD                408948
_audit_creation_date               1999/06/02
_chemical_name_systematic
;
Silver Hydroxonium Bis(hydrogensulfate(VI))
;
_chemical_formula_structural       'Ag (H3 O) (H S O4)2'
_chemical_formula_sum              'H5 Ag1 O9 S2'
_publ_section_title
;
Synthesis and crystal structure of metal(I) hydrogen sulfates - Ag 
(H3 O) (H S O4)2, Ag2 (H S O4)2 (H2 S O4), Ag H S O4 and Hg2 (H S 
O4)2
;
loop_
_citation_id
_citation_journal_abbrev
_citation_year
_citation_journal_volume
_citation_page_first
_citation_page_last
_citation_journal_id_ASTM
primary 'Zeitschrift fuer Anorganische und Allgemeine Chemie (1950) (DE)'
 1999 625 329 335 ZAACAB
_publ_author_name
;
Stiewe, A.;Kemnitz, E.;Troyanov, S.I.
;
_cell_length_a                     7.017(1)
_cell_length_b                     13.178(3)
_cell_length_c                     8.146(2)
_cell_angle_alpha                  90.
_cell_angle_beta                   105.31(3)
_cell_angle_gamma                  90.
_cell_volume                       726.53
_cell_formula_units_Z              4
_symmetry_space_group_name_H-M     'P 1 21/c 1'
_symmetry_Int_Tables_number        14
_refine_ls_R_factor_all            .0284
loop_
_symmetry_equiv_pos_site_id
_symmetry_equiv_pos_as_xyz
  1	'x, -y+.5, z+.5'
  2	'-x, -y, -z'
  3	'-x, y+.5, -z+.5'
  4	'x, y, z'
loop_
_atom_type_symbol
_atom_type_oxidation_number
Ag1+	1
H1+	1
O2-	-2
S6+	6
loop_
_atom_site_label
_atom_site_type_symbol
_atom_site_symmetry_multiplicity
_atom_site_Wyckoff_symbol
_atom_site_fract_x
_atom_site_fract_y
_atom_site_fract_z
_atom_site_occupancy
_atom_site_attached_hydrogens
_atom_site_U_iso_or_equiv
Ag1 Ag1+ 4 e -.10284(3) 0.536680(15) 0.22034(3) 1. 0 0 
S1 S6+ 4 e 0.39628(9) 0.52121(4) 0.23272(8) 1. 0 0 
S2 S6+ 4 e -.00508(9) 0.19468(4) -.11684(8) 1. 0 0 
O1 O2- 4 e 0.2444(3) 0.4930(2) 0.0849(3) 1. 0 0 
O2 O2- 4 e 0.5024(3) 0.43264(14) 0.3233(3) 1. 0 0 
O3 O2- 4 e 0.5335(3) 0.59650(15) 0.2040(3) 1. 0 0 
O4 O2- 4 e 0.2821(3) 0.5699(2) 0.3524(3) 1. 0 0 
O5 O2- 4 e -.0858(3) 0.15526(15) -.2887(2) 1. 0 0 
O6 O2- 4 e 0.0784(3) 0.11602(14) 0.0030(3) 1. 0 0 
O7 O2- 4 e 0.1355(3) 0.27738(15) -.1118(3) 1. 0 0 
O8 O2- 4 e -.1874(3) 0.2413(2) -.0714(3) 1. 0 0 
O9 O2- 4 e 0.4466(3) 0.2678(2) 0.1348(3) 1. 0 0 
H1 H1+ 4 e 0.3447(66) 0.5687(34) 0.4530(49) 1. 0 0.065(15) 
H2 H1+ 4 e -.1568(48) 0.2742(24) 0.0310(46) 1. 0 0.032(9) 
H3 H1+ 4 e 0.4665(61) 0.3107(34) 0.1937(58) 1. 0 0.053(13) 
H4 H1+ 4 e 0.4496(49) 0.2167(28) 0.1994(48) 1. 0 0.035(9) 
H5 H1+ 4 e 0.3132(92) 0.2699(43) 0.0760(88) 1. 0 0.106(21) 

loop_
_atom_site_aniso_label
_atom_site_aniso_type_symbol
_atom_site_aniso_U_11
_atom_site_aniso_U_22
_atom_site_aniso_U_33
_atom_site_aniso_U_12
_atom_site_aniso_U_13
_atom_site_aniso_U_23
Ag1 Ag1+ 0.02962(13) 0.02516(12) 0.02666(15) 0.00244(8) 0.00422(9) 
-.00327(8)
S1 S6+ 0.0191(3) 0.0189(3) 0.0197(3) -.0001(2) 0.0017(2) -.0018(2)
S2 S6+ 0.0262(3) 0.0178(3) 0.0186(3) -.0035(2) 0.0054(2) -.0003(2)
O1 O2- 0.0391(12) 0.0410(11) 0.0285(12) -.0036(9) -.0074(9) -.0051(9)
O2 O2- 0.0439(12) 0.0241(9) 0.0303(12) 0.0123(8) -.0013(9) -.0010(8)
O3 O2- 0.031(1) 0.0272(9) 0.0520(14) -.0079(8) 0.0184(9) -.0071(9)
O4 O2- 0.0291(10) 0.0396(10) 0.0271(12) 0.0095(9) 0.0103(9) 0.0015(9)
O5 O2- 0.0458(12) 0.0285(9) 0.021(1) -.0085(8) 0.0074(9) -.0056(8)
O6 O2- 0.0455(12) 0.0278(9) 0.0310(11) 0.0049(9) 0.0115(9) 0.0106(9)
O7 O2- 0.0315(10) 0.0264(9) 0.0320(12) -.0091(8) 0.0015(8) 0.0048(8)
O8 O2- 0.0284(10) 0.0387(11) 0.0276(11) 0.0018(8) 0.0042(8) -.0089(9)
O9 O2- 0.0324(11) 0.0192(9) 0.0385(13) 0.0001(8) -.0014(9) 0.0004(9)
#End of data_408948-ICSD


