data_250388-ICSD
#?2014 by Fachinformationszentrum Karlsruhe, and the U.S. Secretary of 
#Commerce on behalf of the United States.  All rights reserved.
_database_code_ICSD                250388
_audit_creation_date               2007/04/01
_chemical_name_systematic          'Potassium Divanadate - Beta'
_chemical_formula_structural       'K4 (V2 O7)'
_chemical_formula_sum              'K4 O7 V2'
_publ_section_title
;
Crystal structure of the pyrovanadate K4 V2 O7
;
loop_
_citation_id
_citation_journal_abbrev
_citation_year
_citation_journal_volume
_citation_journal_issue
_citation_page_first
_citation_page_last
_citation_journal_id_ASTM
primary 'Zhurnal Neorganicheskoi Khimii' 2006 51 5 845 850 ZNOKAQ
_publ_author_name
;
Chernaya, V.V.;Shpanchenko, R.V.;Velikodnyi, Yu.A.;Kovba, 
M.L.;Antipov, E.V.
;
_cell_length_a                     10.222(1)
_cell_length_b                     6.2309(8)
_cell_length_c                     7.282(1)
_cell_angle_alpha                  90
_cell_angle_beta                   101.31(1)
_cell_angle_gamma                  90
_cell_volume                       454.8
_cell_formula_units_Z              2
_symmetry_space_group_name_H-M     'C 1 2/m 1'
_symmetry_Int_Tables_number        12
_refine_ls_R_factor_all            .019
loop_
_symmetry_equiv_pos_site_id
_symmetry_equiv_pos_as_xyz
  1	'-x, y, -z'
  2	'-x, -y, -z'
  3	'x, -y, z'
  4	'x, y, z'
  5	'-x+.5, y+.5, -z'
  6	'-x+.5, -y+.5, -z'
  7	'x+.5, -y+.5, z'
  8	'x+.5, y+.5, z'
loop_
_atom_type_symbol
_atom_type_oxidation_number
K1+	1
O2-	-2
V5+	5
loop_
_atom_site_label
_atom_site_type_symbol
_atom_site_symmetry_multiplicity
_atom_site_Wyckoff_symbol
_atom_site_fract_x
_atom_site_fract_y
_atom_site_fract_z
_atom_site_occupancy
_atom_site_attached_hydrogens
_atom_site_U_iso_or_equiv
K1 K1+ 2 c 0 0 0.5 1 0 0.01 
K2 K1+ 2 a 0 0 0 1 0 0.01 
K3 K1+ 4 i 0.3250(3) 0 0.2878(4) 1 0 0.01 
V1 V5+ 4 i 0.6328(2) 0 0.1986(3) 1 0 0.01 
O1 O2- 2 b 0.5 0 0 1 0 0.01 
O2 O2- 8 j 0.1135(4) 0.2844(8) 0.3265(7) 1 0 0.01 
O3 O2- 4 i 0.7781(6) 0 0.1443(8) 1 0 0.01 

#End of data_250388-ICSD


