data_15546-ICSD
#?2014 by Fachinformationszentrum Karlsruhe, and the U.S. Secretary of 
#Commerce on behalf of the United States.  All rights reserved.
_database_code_ICSD                15546
_audit_creation_date               1981/12/31
_chemical_name_systematic          'Sodium Zirconium Silicate *'
_chemical_formula_structural       'Na4 Zr2 Si3 O12'
_chemical_formula_sum              'Na4 O12 Si3 Zr2'
_publ_section_title
;
Crystal structure and ionic conductivity in Na4 Zr2 Si3 O12
;
loop_
_citation_id
_citation_journal_abbrev
_citation_year
_citation_journal_volume
_citation_page_first
_citation_page_last
_citation_journal_id_ASTM
primary 'Journal of Solid State Chemistry' 1981 39 219 229 JSSCBI
_publ_author_name
;
Duc Tran Qui;Capponi, J.J.;Joubert, J.C.;Shannon, R.D.
;
_cell_length_a                     9.1863(5)
_cell_length_b                     9.1863
_cell_length_c                     22.181(2)
_cell_angle_alpha                  90.
_cell_angle_beta                   90.
_cell_angle_gamma                  120.
_cell_volume                       1621.04
_cell_formula_units_Z              6
_symmetry_space_group_name_H-M     'R -3 c H'
_symmetry_Int_Tables_number        167
_refine_ls_R_factor_all            .026
loop_
_symmetry_equiv_pos_site_id
_symmetry_equiv_pos_as_xyz
  1	'x-y, -y, -z+.5'
  2	'-x, -x+y, -z+.5'
  3	'y, x, -z+.5'
  4	'x-y, x, -z'
  5	'y, -x+y, -z'
  6	'-x, -y, -z'
  7	'-x+y, y, z+.5'
  8	'x, x-y, z+.5'
  9	'-y, -x, z+.5'
 10	'-x+y, -x, z'
 11	'-y, x-y, z'
 12	'x, y, z'
 13	'x-y+.6666, -y+.3333, -z+.8333'
 14	'x-y+.3333, -y+.6666, -z+.1666'
 15	'-x+.6666, -x+y+.3333, -z+.8333'
 16	'-x+.3333, -x+y+.6666, -z+.1666'
 17	'y+.6666, x+.3333, -z+.8333'
 18	'y+.3333, x+.6666, -z+.1666'
 19	'x-y+.6666, x+.3333, -z+.3333'
 20	'x-y+.3333, x+.6666, -z+.6666'
 21	'y+.6666, -x+y+.3333, -z+.3333'
 22	'y+.3333, -x+y+.6666, -z+.6666'
 23	'-x+.6666, -y+.3333, -z+.3333'
 24	'-x+.3333, -y+.6666, -z+.6666'
 25	'-x+y+.6666, y+.3333, z+.8333'
 26	'-x+y+.3333, y+.6666, z+.1666'
 27	'x+.6666, x-y+.3333, z+.8333'
 28	'x+.3333, x-y+.6666, z+.1666'
 29	'-y+.6666, -x+.3333, z+.8333'
 30	'-y+.3333, -x+.6666, z+.1666'
 31	'-x+y+.6666, -x+.3333, z+.3333'
 32	'-x+y+.3333, -x+.6666, z+.6666'
 33	'-y+.6666, x-y+.3333, z+.3333'
 34	'-y+.3333, x-y+.6666, z+.6666'
 35	'x+.6666, y+.3333, z+.3333'
 36	'x+.3333, y+.6666, z+.6666'
loop_
_atom_type_symbol
_atom_type_oxidation_number
Na1+	1
O2-	-2
Si4+	4
Zr4+	4
loop_
_atom_site_label
_atom_site_type_symbol
_atom_site_symmetry_multiplicity
_atom_site_Wyckoff_symbol
_atom_site_fract_x
_atom_site_fract_y
_atom_site_fract_z
_atom_site_occupancy
_atom_site_attached_hydrogens
Zr1 Zr4+ 12 c 0 0 0.14719(3) 1. 0 
Na1 Na1+ 6 b 0 0 0 1. 0 
Na2 Na1+ 18 e -.36033(43) 0 0.25 1. 0 
O1 O2- 36 f 0.18534(32) 0.16651(40) 0.08652(16) 1. 0 
O2 O2- 36 f 0.18214(49) 0.02102(54) 0.19199(20) 1. 0 
Si1 Si4+ 18 e 0.29544(14) 0 0.25 1. 0 

loop_
_atom_site_aniso_label
_atom_site_aniso_type_symbol
_atom_site_aniso_U_11
_atom_site_aniso_U_22
_atom_site_aniso_U_33
_atom_site_aniso_U_12
_atom_site_aniso_U_13
_atom_site_aniso_U_23
Zr1 Zr4+ 0.0088(1) 0.0088 0.0093(2) 0.0044 0 0
Na1 Na1+ 0.0702(32) 0.0702 0.0236 0.0351 0 0
Na2 Na1+ 0.0368(24) 0.0274(25) 0.1314(46) 0.0137 0.01275 0.0255(30)
O1 O2- 0.0148(12) 0.0135(14) 0.0201(13) -.0016(8) 0.0114(9) 0.0082(12)
O2 O2- 0.0278(17) 0.0315(21) 0.0340(17) 0.0199(16) -.0199(18) -.0040(14)
Si1 Si4+ 0.0053(3) 0.0077(4) 0.0096(6) 0.00385 0.00195 0.0039(5)
#End of data_15546-ICSD


