data_200293-ICSD
#?2014 by Fachinformationszentrum Karlsruhe, and the U.S. Secretary of 
#Commerce on behalf of the United States.  All rights reserved.
_database_code_ICSD                200293
_audit_creation_date               1980/01/01
_audit_update_record               2012/08/01
_chemical_name_systematic
;
Dipotassium Dicadmium Tris(sulfate(VI))
;
_chemical_formula_structural       'K2 Cd2 (S O4)3'
_chemical_formula_sum              'Cd2 K2 O12 S3'
_publ_section_title
;
Piezoelectric langbeinite-type K2 Cd2 (S O4)3 structure at four 
temperatures below and one above the 432 K ferroelastic- paraelastic 
transition
;
loop_
_citation_id
_citation_journal_abbrev
_citation_year
_citation_journal_volume
_citation_page_first
_citation_page_last
_citation_journal_id_ASTM
primary 'Journal of Chemical Physics' 1978 68 1926 1935 JCPSA6
2 'Golden Book of Phase Transitions, Wroclaw' 2002 1 1 123 GBOPT5
_publ_author_name
;
Abrahams, S.C.;Lissalde, F.;Bernstein, J.L.
;
_cell_length_a                     10.2386(8)
_cell_length_b                     10.2951(8)
_cell_length_c                     10.1981(8)
_cell_angle_alpha                  90.
_cell_angle_beta                   90.
_cell_angle_gamma                  90.
_cell_volume                       1074.96
_cell_formula_units_Z              4
_symmetry_space_group_name_H-M     'P 21 21 21'
_symmetry_Int_Tables_number        19
_refine_ls_R_factor_all            .0257
loop_
_symmetry_equiv_pos_site_id
_symmetry_equiv_pos_as_xyz
  1	'-x, y+.5, -z+.5'
  2	'x+.5, -y+.5, -z'
  3	'-x+.5, -y, z+.5'
  4	'x, y, z'
loop_
_atom_type_symbol
_atom_type_oxidation_number
Cd2+	2
K1+	1
O2-	-2
S6+	6
loop_
_atom_site_label
_atom_site_type_symbol
_atom_site_symmetry_multiplicity
_atom_site_Wyckoff_symbol
_atom_site_fract_x
_atom_site_fract_y
_atom_site_fract_z
_atom_site_occupancy
_atom_site_attached_hydrogens
K1 K1+ 4 a 0.17104(12) 0.31240(13) 0.69221(12) 1. 0 
K2 K1+ 4 a 0.03993(15) 0.05457(16) 0.06013(12) 1. 0 
Cd1 Cd2+ 4 a 0.30957(3) 0.34058(3) 0.33177(3) 1. 0 
Cd2 Cd2+ 4 a 0.40030(3) 0.08974(3) 0.92451(3) 1. 0 
S1 S6+ 4 a 0.21600(8) 0.37225(9) 0.02394(9) 1. 0 
S2 S6+ 4 a 0.38339(8) 0.00793(9) 0.24467(9) 1. 0 
S3 S6+ 4 a 0.00129(9) 0.21723(9) 0.36943(9) 1. 0 
O1 O2- 4 a 0.3076(5) 0.2638(5) 0.0272(5) 1. 0 
O2 O2- 4 a 0.0832(4) 0.3274(5) 0.9899(5) 1. 0 
O3 O2- 4 a 0.2599(5) 0.4644(5) 0.9250(5) 1. 0 
O4 O2- 4 a 0.2158(4) 0.4333(4) 0.1548(4) 1. 0 
O5 O2- 4 a 0.3028(4) 0.9343(5) 0.3382(4) 1. 0 
O6 O2- 4 a 0.3937(6) 0.1445(5) 0.2843(5) 1. 0 
O7 O2- 4 a 0.5168(4) 0.9531(5) 0.2529(6) 1. 0 
O8 O2- 4 a 0.3278(5) 0.9923(5) 0.1128(4) 1. 0 
O9 O2- 4 a 0.0540(6) 0.0951(5) 0.3184(5) 1. 0 
O10 O2- 4 a 0.9059(5) 0.1903(7) 0.4731(5) 1. 0 
O11 O2- 4 a 0.9376(6) 0.2868(6) 0.2629(5) 1. 0 
O12 O2- 4 a 0.1091(4) 0.2955(5) 0.4235(5) 1. 0 

#End of data_200293-ICSD


