data_31145-ICSD
#?2014 by Fachinformationszentrum Karlsruhe, and the U.S. Secretary of 
#Commerce on behalf of the United States.  All rights reserved.
_database_code_ICSD                31145
_audit_creation_date               1980/12/31
_audit_update_record               1998/06/26
_chemical_name_systematic          'Sodium Sulfate Fluoride'
_chemical_formula_structural       'Na3 (S O4) F'
_chemical_formula_sum              'F1 Na3 O4 S1'
_chemical_name_mineral             Kogarkoite
_publ_section_title
;
The crystal structure of kogarkoite, Na3 S O4 F
;
loop_
_citation_id
_citation_journal_abbrev
_citation_year
_citation_journal_volume
_citation_page_first
_citation_page_last
_citation_journal_id_ASTM
primary 'Mineralogical Magazine (1969-)' 1980 43 753 759 MNLMBB
_publ_author_name
;
Fanfani, L.;Giuseppetti, G.;Tadini, C.;Zanazzi, P.F.
;
_cell_length_a                     18.0790(20)
_cell_length_b                     6.958(1)
_cell_length_c                     11.443(2)
_cell_angle_alpha                  90.
_cell_angle_beta                   107.71
_cell_angle_gamma                  90.
_cell_volume                       1371.24
_cell_formula_units_Z              12
_symmetry_space_group_name_H-M     'P 1 21/m 1'
_symmetry_Int_Tables_number        11
_refine_ls_R_factor_all            .033
loop_
_symmetry_equiv_pos_site_id
_symmetry_equiv_pos_as_xyz
  1	'x, -y+.5, z'
  2	'-x, -y, -z'
  3	'-x, y+.5, -z'
  4	'x, y, z'
loop_
_atom_type_symbol
_atom_type_oxidation_number
F1-	-1
Na1+	1
O2-	-2
S6+	6
loop_
_atom_site_label
_atom_site_type_symbol
_atom_site_symmetry_multiplicity
_atom_site_Wyckoff_symbol
_atom_site_fract_x
_atom_site_fract_y
_atom_site_fract_z
_atom_site_occupancy
_atom_site_attached_hydrogens
Na1 Na1+ 2 d 0.5 0 0.5 1. 0 
Na2 Na1+ 2 e 0.3494(1) 0.25 0.3009(2) 1. 0 
Na3 Na1+ 2 e 0.1166(1) 0.25 0.8732(2) 1. 0 
Na4 Na1+ 2 e 0.6149(1) 0.25 0.3974(1) 1. 0 
Na5 Na1+ 2 e 0.8519(1) 0.25 0.8160(2) 1. 0 
Na6 Na1+ 2 e 0.3934(1) 0.25 0.9058(2) 1. 0 
Na7 Na1+ 2 a 0 0 0 1. 0 
Na8 Na1+ 2 e 0.8932(1) 0.25 0.4380(2) 1. 0 
Na9 Na1+ 4 f 0.2790(1) 0.0274(2) 0.0296(1) 1. 0 
Na10 Na1+ 4 f 0.4651(1) 0.0180(2) 0.1900(1) 1. 0 
Na11 Na1+ 4 f 0.2447(1) 0.0008(2) 0.7330(1) 1. 0 
Na12 Na1+ 4 f 0.7737(1) 0.0222(2) 0.5510(1) 1. 0 
Na13 Na1+ 4 f 0.9700(1) 0.0233(2) 0.7084(1) 1. 0 
S1 S6+ 2 e 0.1619(1) 0.25 0.1931(1) 1. 0 
S2 S6+ 2 e 0.5970(1) 0.25 0.0821(1) 1. 0 
S3 S6+ 2 e 0.6537(1) 0.25 0.7022(1) 1. 0 
S4 S6+ 2 e 0.0849(1) 0.25 0.5429(1) 1. 0 
S5 S6+ 2 e 0.3749(1) 0.25 0.6120(1) 1. 0 
S6 S6+ 2 e 0.8697(1) 0.25 0.1194(1) 1. 0 
F1 F1- 2 e 0.4788(1) 0.25 0.3566(2) 1. 0 
F2 F1- 2 e 0.3776(1) 0.25 0.0935(2) 1. 0 
F3 F1- 2 e 0.2376(1) 0.25 0.8631(2) 1. 0 
F4 F1- 2 e 0.9901(1) 0.25 0.8760(2) 1. 0 
F5 F1- 2 e 0.7427(1) 0.25 0.3945(2) 1. 0 
F6 F1- 2 e 0.8755(1) 0.25 0.6271(2) 1. 0 
O1 O2- 4 f 0.1129(1) 0.0773(2) 0.1787(1) 1. 0 
O2 O2- 4 f 0.6458(1) 0.0768(2) 0.0945(1) 1. 0 
O3 O2- 4 f 0.6532(1) 0.0764(2) 0.7756(1) 1. 0 
O4 O2- 4 f 0.1334(1) 0.0768(2) 0.5535(1) 1. 0 
O5 O2- 2 e 0.2021(1) 0.25 0.0991(2) 1. 0 
O6 O2- 2 e 0.5598(1) 0.25 0.1796(2) 1. 0 
O7 O2- 2 e 0.7242(1) 0.25 0.6632(2) 1. 0 
O8 O2- 2 e 0.0475(1) 0.25 0.6406(2) 1. 0 
O9 O2- 2 e 0.2196(1) 0.25 0.3164(2) 1. 0 
O10 O2- 2 e 0.5369(1) 0.25 0.9616(2) 1. 0 
O11 O2- 2 e 0.5838(1) 0.25 0.5949(2) 1. 0 
O12 O2- 2 e 0.0244(1) 0.25 0.4223(2) 1. 0 
O13 O2- 4 f 0.9181(1) 0.0771(2) 0.1282(1) 1. 0 
O14 O2- 2 e 0.8079(1) 0.25 0.0003(2) 1. 0 
O15 O2- 2 e 0.8344(1) 0.25 0.2195(2) 1. 0 
O16 O2- 4 f 0.3747(1) 0.0782(3) 0.5374(1) 1. 0 
O17 O2- 2 e 0.4430(1) 0.25 0.7203(2) 1. 0 
O18 O2- 2 e 0.3044(1) 0.25 0.6503(3) 1. 0 

#End of data_31145-ICSD


