data_260071-ICSD
#?2014 by Fachinformationszentrum Karlsruhe, and the U.S. Secretary of 
#Commerce on behalf of the United States.  All rights reserved.
_database_code_ICSD                260071
_audit_creation_date               2009/02/01
_audit_update_record               2012/02/01
_chemical_name_systematic
;
Tetrapotassium Di-mue-chlorido-bis(tetrachloridobismuthate(III)) 
Tetrahydrate
;
_chemical_formula_structural       'K4 (Bi2 Cl10) (H2 O)4'
_chemical_formula_sum              'H8 Bi2 Cl10 K4 O4'
_publ_section_title
;
Redermination of K4 [Bi2 Cl10] * 4 H2 O
;
loop_
_citation_id
_citation_journal_abbrev
_citation_year
_citation_journal_volume
_citation_journal_issue
_citation_page_first
_citation_page_last
_citation_journal_id_ASTM
primary 'Acta Crystallographica, Section E. Structure Reports Online'
 2008 64 12 i80 i80 ACSEBH
_publ_author_name
;
Khelifi, M.;Zouari, R.;Ben Salah, A.
;
_cell_length_a                     8.43100(10)
_cell_length_b                     21.8444(3)
_cell_length_c                     12.2561(2)
_cell_angle_alpha                  90
_cell_angle_beta                   90
_cell_angle_gamma                  90
_cell_volume                       2257.21
_cell_formula_units_Z              4
_symmetry_space_group_name_H-M     'P n m a'
_symmetry_Int_Tables_number        62
_refine_ls_R_factor_all            .0165
loop_
_symmetry_equiv_pos_site_id
_symmetry_equiv_pos_as_xyz
  1	'x+.5, y, -z+.5'
  2	'x, -y+.5, z'
  3	'-x+.5, y+.5, z+.5'
  4	'-x, -y, -z'
  5	'-x+.5, -y, z+.5'
  6	'-x, y+.5, -z'
  7	'x+.5, -y+.5, -z+.5'
  8	'x, y, z'
loop_
_atom_type_symbol
_atom_type_oxidation_number
Bi3+	3
Cl1-	-1
H1+	1
K1+	1
O2-	-2
loop_
_atom_site_label
_atom_site_type_symbol
_atom_site_symmetry_multiplicity
_atom_site_Wyckoff_symbol
_atom_site_fract_x
_atom_site_fract_y
_atom_site_fract_z
_atom_site_occupancy
_atom_site_attached_hydrogens
_atom_site_U_iso_or_equiv
Bi1 Bi3+ 8 d 0.367812(10) -0.349919(4) 0.996881(8) 1.0000 0 0.0204 
Cl1 Cl1- 8 d 0.49635(11) -0.35057(4) 0.79938(7) 1.0000 0 0.0394 
Cl2 Cl1- 4 c 0.17101(13) -0.2500 0.92700(9) 1.0000 0 0.0308 
Cl3 Cl1- 8 d 0.15802(11) -0.43464(4) 0.95182(7) 1.0000 0 0.0360 
Cl4 Cl1- 4 c 0.56356(13) -0.2500 0.06223(10) 1.0000 0 0.0308 
Cl5 Cl1- 8 d 0.24213(9) -0.34605(4) 0.20120(6) 1.0000 0 0.0302 
Cl6 Cl1- 8 d 0.57912(10) -0.42888(4) 0.05937(7) 1.0000 0 0.0331 
K1 K1+ 4 c 0.44796(13) -0.2500 0.34052(9) 1.0000 0 0.0349 
K2 K1+ 4 c 0.28965(14) -0.2500 0.66630(9) 1.0000 0 0.0379 
K3 K1+ 8 d 0.02601(12) -0.54772(5) 0.80949(8) 1.0000 0 0.0506 
O1 O2- 8 d 0.3695(3) -0.16188(16) 0.5001(3) 1.0000 0 0.0504 
O2 O2- 8 d 0.2459(5) -0.47915(15) 0.6858(3) 1.0000 0 0.0552 
H1 H1+ 8 d 0.278(9) -0.140(3) 0.487(5) 1.0000 0 0.10(2) 
H2 H1+ 8 d 0.205(8) -0.481(3) 0.629(5) 1.0000 0 0.09(2) 
H3 H1+ 8 d 0.428(8) -0.142(3) 0.535(5) 1.0000 0 0.09(2) 
H4 H1+ 8 d 0.223(5) -0.445(8) 0.707(6) 1.0000 0 0.08(3) 

loop_
_atom_site_aniso_label
_atom_site_aniso_type_symbol
_atom_site_aniso_U_11
_atom_site_aniso_U_22
_atom_site_aniso_U_33
_atom_site_aniso_U_12
_atom_site_aniso_U_13
_atom_site_aniso_U_23
Bi1 Bi3+ 0.02127(5) 0.01939(4) 0.02050(4) 0.00016(3) 0.00160(4) -0.00009(4)
Cl1 Cl1- 0.0440(4) 0.0469(5) 0.0272(3) 0.0084(4) 0.0102(3) 0.0035(3)
Cl2 Cl1- 0.0218(5) 0.0365(6) 0.0342(5) 0.0000 -0.0043(4) 0.0000
Cl3 Cl1- 0.0351(4) 0.0338(4) 0.0392(4) -0.0049(3) -0.0057(3) -0.0086(3)
Cl4 Cl1- 0.0228(5) 0.0305(5) 0.0390(5) 0.0000 -0.0037(4) 0.0000
Cl5 Cl1- 0.0316(3) 0.0338(4) 0.0252(3) -0.0039(3) 0.0044(3) -0.0028(3)
Cl6 Cl1- 0.0338(4) 0.0302(4) 0.0354(4) 0.0042(3) -0.0028(3) 0.0025(3)
K1 K1+ 0.0329(5) 0.0334(5) 0.0383(5) 0.0000 -0.0061(4) 0.0000
K2 K1+ 0.0370(6) 0.0432(6) 0.0335(5) 0.0000 -0.0037(4) 0.0000
K3 K1+ 0.0460(5) 0.0586(5) 0.0472(5) -0.0134(4) 0.0086(4) -0.0190(4)
O1 O2- 0.0291(13) 0.0507(16) 0.071(2) -0.0020(11) -0.0121(15) -0.0093(17)
O2 O2- 0.076(2) 0.0449(17) 0.0446(17) 0.0092(17) 0.0009(17) -0.0044(14)
#End of data_260071-ICSD


