data_409773-ICSD
#?2014 by Fachinformationszentrum Karlsruhe, and the U.S. Secretary of 
#Commerce on behalf of the United States.  All rights reserved.
_database_code_ICSD                409773
_audit_creation_date               2005/10/01
_audit_update_record               2007/04/01
_chemical_name_systematic
;
Potassium Bismuth Dichloride Sulfate(VI)
;
_chemical_formula_structural       'K Bi Cl2 (S O4)'
_chemical_formula_sum              'Bi1 Cl2 K1 O4 S1'
_publ_section_title
;
Crystal structure of potassium sulfate dichlorobismuthate, K Bi Cl2 S 
O4
;
loop_
_citation_id
_citation_journal_abbrev
_citation_year
_citation_journal_volume
_citation_journal_issue
_citation_page_first
_citation_page_last
_citation_journal_id_ASTM
primary 'Zeitschrift fuer Kristallographie - New Crystal Structures'
 2004 219 3 203 204 ZKNSFT
2 'Koordinatsionnaya Khimiya (= Coordination Chemistry (USSR))'
 1985 11- 689 691 KOKHDC
_publ_author_name
;
Khelifi, M.;Loukil, M.;Kabadou, A.;Zouari, R.;Ben Salah, A.E.;Fuess, 
H.
;
_cell_length_a                     6.3814(6)
_cell_length_b                     7.3111(6)
_cell_length_c                     15.3672(14)
_cell_angle_alpha                  90.00
_cell_angle_beta                   90.00
_cell_angle_gamma                  90.00
_cell_volume                       716.96
_cell_formula_units_Z              4
_symmetry_space_group_name_H-M     'P 21 21 21'
_symmetry_Int_Tables_number        19
_refine_ls_R_factor_all            .0352
loop_
_symmetry_equiv_pos_site_id
_symmetry_equiv_pos_as_xyz
  1	'-x, y+.5, -z+.5'
  2	'x+.5, -y+.5, -z'
  3	'-x+.5, -y, z+.5'
  4	'x, y, z'
loop_
_atom_type_symbol
_atom_type_oxidation_number
Bi3+	3
Cl1-	-1
K1+	1
O2-	-2
S6+	6
loop_
_atom_site_label
_atom_site_type_symbol
_atom_site_symmetry_multiplicity
_atom_site_Wyckoff_symbol
_atom_site_fract_x
_atom_site_fract_y
_atom_site_fract_z
_atom_site_occupancy
_atom_site_attached_hydrogens
_atom_site_U_iso_or_equiv
Bi1 Bi3+ 4 a 1.01434(4) 0.63615(4) 0.616431(18) 1 0 0.01699(9) 
K1 K1+ 4 a 0.4707(4) 1.2029(3) 0.65707(15) 1 0 0.0409(5) 
Cl1 Cl1- 4 a 0.9324(3) 0.3320(3) 0.55215(16) 1 0 0.0316(5) 
Cl2 Cl1- 4 a 1.1017(3) 0.4935(3) 0.76497(15) 1 0 0.0293(5) 
S1 S6+ 4 a 1.0064(2) 0.8165(2) 0.38729(12) 1 0 0.0166(3) 
O1 O2- 4 a 0.8556(8) 0.9631(8) 0.4151(4) 1 0 0.0223(13) 
O2 O2- 4 a 1.1548(7) 0.8985(9) 0.3234(4) 1 0 0.0259(14) 
O3 O2- 4 a 1.1316(9) 0.7520(9) 0.4625(4) 1 0 0.0304(16) 
O4 O2- 4 a 0.8818(8) 0.6704(8) 0.3476(5) 1 0 0.0286(15) 

loop_
_atom_site_aniso_label
_atom_site_aniso_type_symbol
_atom_site_aniso_U_11
_atom_site_aniso_U_22
_atom_site_aniso_U_33
_atom_site_aniso_U_12
_atom_site_aniso_U_13
_atom_site_aniso_U_23
Bi1 Bi3+ 0.01314(11) 0.01923(14) 0.01862(13) -0.00005(12) -0.00008(12) 
0.00110(12)
K1 K1+ 0.0675(14) 0.0253(8) 0.0297(11) 0.0060(11) 0.0031(12) 0.0049(9)
Cl1 Cl1- 0.0347(10) 0.0277(11) 0.0324(12) -0.0066(9) 0.0035(9) -0.0077(10)
Cl2 Cl1- 0.0316(10) 0.0309(11) 0.0252(12) -0.0028(9) -0.0060(9) 0.0091(10)
S1 S6+ 0.0124(7) 0.0205(8) 0.0168(8) -0.0004(7) -0.0007(10) 0.0029(7)
O1 O2- 0.015(2) 0.019(3) 0.032(4) 0.001(2) 0.003(2) -0.003(3)
O2 O2- 0.015(2) 0.035(4) 0.028(4) 0.001(3) 0.001(2) 0.001(3)
O3 O2- 0.023(3) 0.041(4) 0.027(4) 0.001(3) -0.003(3) 0.020(3)
O4 O2- 0.021(2) 0.019(3) 0.046(4) -0.003(2) -0.001(3) -0.007(3)
#End of data_409773-ICSD


