data_61165-ICSD
#?2014 by Fachinformationszentrum Karlsruhe, and the U.S. Secretary of 
#Commerce on behalf of the United States.  All rights reserved.
_database_code_ICSD                61165
_audit_creation_date               1986/12/03
_audit_update_record               2012/08/01
_chemical_name_systematic          'Calcium Trisodium Pentaborate'
_chemical_formula_structural       'Ca Na3 B5 O10'
_chemical_formula_sum              'B5 Ca1 Na3 O10'
_publ_section_title
;
Structure of Calcium Trisodium Pentaborate
;
loop_
_citation_id
_citation_journal_abbrev
_citation_year
_citation_journal_volume
_citation_page_first
_citation_page_last
_citation_journal_id_ASTM
primary 'Acta Crystallographica, Section C: Crystal Structure Communications'
 1985 41 1396 1398 ACSCEE
_publ_author_name
;
Fayos, J.;Howie, R.A.;Glasser, F.P.
;
_cell_length_a                     7.460(3)
_cell_length_b                     7.445(4)
_cell_length_c                     11.124(6)
_cell_angle_alpha                  120.58(4)
_cell_angle_beta                   61.94(3)
_cell_angle_gamma                  120.17(3)
_cell_volume                       440.29
_cell_formula_units_Z              2
_symmetry_space_group_name_H-M     'P -1'
_symmetry_Int_Tables_number        2
_refine_ls_R_factor_all            .069
loop_
_symmetry_equiv_pos_site_id
_symmetry_equiv_pos_as_xyz
  1	'-x, -y, -z'
  2	'x, y, z'
loop_
_atom_type_symbol
_atom_type_oxidation_number
B3+	3
Ca2+	2
Na1+	1
O2-	-2
loop_
_atom_site_label
_atom_site_type_symbol
_atom_site_symmetry_multiplicity
_atom_site_Wyckoff_symbol
_atom_site_fract_x
_atom_site_fract_y
_atom_site_fract_z
_atom_site_occupancy
_atom_site_attached_hydrogens
_atom_site_B_iso_or_equiv
Ca1 Ca2+ 2 i 0.7772 0.3711 -.87995 1. 0 0 
Na1 Na1+ 2 i 0.27425 -.0147 0.25011 1. 0 0 
Na2 Na1+ 2 i 0.0108 -.31351 -.54661 1. 0 0 
Na3 Na1+ 2 i 0.82612 -.02069 0.17483 1. 0 0 
O1 O2- 2 i 0.59981 0.67809 -.19076 1. 0 0 
O2 O2- 2 i 0.67468 0.35832 -.24165 1. 0 0 
O3 O2- 2 i 0.35785 0.31479 -.27533 1. 0 0 
O4 O2- 2 i 0.71367 0.43606 -.43624 1. 0 0 
O5 O2- 2 i 0.78822 0.70539 -.05588 1. 0 0 
O6 O2- 2 i 0.41028 0.1835 -.53118 1. 0 0 
O7 O2- 2 i 0.72499 1.0107 -.00263 1. 0 0 
O8 O2- 2 i 0.85722 0.39931 -.09885 1. 0 0 
O9 O2- 2 i 0.07813 0.01842 -.37353 1. 0 0 
O10 O2- 2 i 0.75831 0.331 -.68465 1. 0 0 
B1 B3+ 2 i 0.58755 0.44492 -.28765 1. 0 1.088 
B2 B3+ 2 i 0.69994 0.80456 -.08045 1. 0 1.711 
B3 B3+ 2 i 0.7713 0.48175 -.13182 1. 0 1.263 
B4 B3+ 2 i 0.27336 0.16569 -.39308 1. 0 1.316 
B5 B3+ 2 i 0.63079 0.31823 -.55462 1. 0 1.369 

#End of data_61165-ICSD


