data_174357-ICSD
#?2014 by Fachinformationszentrum Karlsruhe, and the U.S. Secretary of 
#Commerce on behalf of the United States.  All rights reserved.
_database_code_ICSD                174357
_audit_creation_date               2010/08/01
_audit_update_record               2013/08/01
_chemical_name_systematic          'Potassium Zinc Triborate'
_chemical_formula_structural       'K Zn B3 O6'
_chemical_formula_sum              'B3 K1 O6 Zn1'
_publ_section_title                'Potassium zinc borate, K Zn B3 O6'
loop_
_citation_id
_citation_journal_abbrev
_citation_year
_citation_journal_volume
_citation_journal_issue
_citation_page_first
_citation_page_last
_citation_journal_id_ASTM
primary 'Acta Crystallographica, Section E. Structure Reports Online'
 2010 66 5 i45 i45 ACSEBH
_publ_author_name
;
Wu Yang;Yao Ji Yong;Zhang Jianxiu;Fu Pei Zhen;Wu Yi cheng
;
_cell_length_a                     6.7139(13)
_cell_length_b                     6.9301(14)
_cell_length_c                     7.0632(14)
_cell_angle_alpha                  63.12(3)
_cell_angle_beta                   72.02(3)
_cell_angle_gamma                  68.99(3)
_cell_volume                       269.37
_cell_formula_units_Z              2
_symmetry_space_group_name_H-M     'P -1'
_symmetry_Int_Tables_number        2
_refine_ls_R_factor_all            .0198
loop_
_symmetry_equiv_pos_site_id
_symmetry_equiv_pos_as_xyz
  1	'-x, -y, -z'
  2	'x, y, z'
loop_
_atom_type_symbol
_atom_type_oxidation_number
B3+	3
K1+	1
O2-	-2
Zn2+	2
loop_
_atom_site_label
_atom_site_type_symbol
_atom_site_symmetry_multiplicity
_atom_site_Wyckoff_symbol
_atom_site_fract_x
_atom_site_fract_y
_atom_site_fract_z
_atom_site_occupancy
_atom_site_attached_hydrogens
_atom_site_U_iso_or_equiv
K1 K1+ 2 i 0.25708(8) 0.29494(8) 0.57923(7) 1 0 0.00606(12) 
Zn1 Zn2+ 2 i 0.67490(4) 0.35335(4) 0.12712(4) 1 0 0.00346(9) 
B1 B3+ 2 i 0.0964(4) 0.9933(4) 0.0944(4) 1 0 0.0048(5) 
B2 B3+ 2 i 0.2441(4) 0.8171(4) 0.4350(4) 1 0 0.0050(5) 
B3 B3+ 2 i 0.2977(4) 0.1817(4) 0.1685(4) 1 0 0.0052(5) 
O1 O2- 2 i 0.8584(2) 0.0829(3) 0.0849(2) 1 0 0.0046(3) 
O2 O2- 2 i 0.3702(3) 0.3605(3) 0.1211(2) 1 0 0.0054(3) 
O3 O2- 2 i 0.1393(3) 0.8112(3) 0.2984(2) 1 0 0.0055(3) 
O4 O2- 2 i 0.7213(3) 0.3533(3) 0.3794(2) 1 0 0.0065(3) 
O5 O2- 2 i 0.1989(3) 0.1716(3) 0.0323(2) 1 0 0.0056(3) 
O6 O2- 2 i 0.3232(3) 0.0056(3) 0.3678(2) 1 0 0.0058(3) 

loop_
_atom_site_aniso_label
_atom_site_aniso_type_symbol
_atom_site_aniso_U_11
_atom_site_aniso_U_22
_atom_site_aniso_U_33
_atom_site_aniso_U_12
_atom_site_aniso_U_13
_atom_site_aniso_U_23
K1 K1+ 0.0064(3) 0.0064(2) 0.0060(2) -0.00214(19) -0.00063(19) -0.00281(19)
Zn1 Zn2+ 0.00389(15) 0.00353(14) 0.00324(14) -0.00047(10) -0.00134(10) 
-0.00143(10)
B1 B3+ 0.0042(12) 0.0045(12) 0.0061(11) 0.0002(10) -0.0021(9) -0.0027(9)
B2 B3+ 0.0038(12) 0.0070(12) 0.0047(11) -0.0002(10) -0.0002(9) -0.0041(9)
B3 B3+ 0.0027(12) 0.0052(12) 0.0061(11) 0.0011(10) -0.0001(9) -0.0030(9)
O1 O2- 0.0036(8) 0.0068(8) 0.0046(7) -0.0004(6) -0.0018(6) -0.0032(6)
O2 O2- 0.0048(8) 0.0056(8) 0.0062(7) -0.0020(6) -0.0024(6) -0.0013(6)
O3 O2- 0.0058(8) 0.0053(8) 0.0055(7) -0.0013(6) -0.0030(6) -0.0008(6)
O4 O2- 0.0096(9) 0.0056(8) 0.0050(7) -0.0022(7) -0.0034(6) -0.0013(6)
O5 O2- 0.0074(8) 0.0052(7) 0.0044(7) -0.0024(6) -0.0019(6) -0.0008(6)
O6 O2- 0.0071(8) 0.0059(8) 0.0056(7) -0.0022(7) -0.0035(6) -0.0013(6)
#End of data_174357-ICSD


