data_14270-ICSD
#?2014 by Fachinformationszentrum Karlsruhe, and the U.S. Secretary of 
#Commerce on behalf of the United States.  All rights reserved.
_database_code_ICSD                14270
_audit_creation_date               1980/01/01
_audit_update_record               2012/02/01
_chemical_name_systematic          'Calcium Oxide Bis(dialuminate)'
_chemical_formula_structural       'Ca O (Al2 O3)2'
_chemical_formula_sum              'Al4 Ca1 O7'
_publ_section_title
;
The crystal structure of Ca O (Al2 O3)2
;
loop_
_citation_id
_citation_journal_abbrev
_citation_year
_citation_journal_volume
_citation_page_first
_citation_page_last
_citation_journal_id_ASTM
primary 'Acta Crystallographica B (24,1968-38,1982)' 1970 26 1230 1235 ACBCAR
_publ_author_name                  'Goodwin, D.W.;Lindop, A.J.'
_cell_length_a                     12.8398(57)
_cell_length_b                     8.8624(32)
_cell_length_c                     5.4311(18)
_cell_angle_alpha                  90.
_cell_angle_beta                   106.83(3)
_cell_angle_gamma                  90.
_cell_volume                       591.54
_cell_formula_units_Z              4
_symmetry_space_group_name_H-M     'C 1 2/c 1'
_symmetry_Int_Tables_number        15
_refine_ls_R_factor_all            .064
loop_
_symmetry_equiv_pos_site_id
_symmetry_equiv_pos_as_xyz
  1	'x, -y, z+.5'
  2	'-x, -y, -z'
  3	'-x, y, -z+.5'
  4	'x, y, z'
  5	'x+.5, -y+.5, z+.5'
  6	'-x+.5, -y+.5, -z'
  7	'-x+.5, y+.5, -z+.5'
  8	'x+.5, y+.5, z'
loop_
_atom_type_symbol
_atom_type_oxidation_number
Al3+	3
Ca2+	2
O2-	-2
loop_
_atom_site_label
_atom_site_type_symbol
_atom_site_symmetry_multiplicity
_atom_site_Wyckoff_symbol
_atom_site_fract_x
_atom_site_fract_y
_atom_site_fract_z
_atom_site_occupancy
_atom_site_attached_hydrogens
Ca1 Ca2+ 4 e 0 0.8091(10) 0.250(1) 1. 0 
O1 O2- 4 e 0 0.5231(10) 0.250(1) 1. 0 
Al1 Al3+ 8 f 0.1641(10) 0.0867(10) 0.303(1) 1. 0 
Al2 Al3+ 8 f 0.1198(10) 0.4406(10) 0.241(1) 1. 0 
O2 O2- 8 f 0.1155(10) 0.0512(10) 0.5659(10) 1. 0 
O3 O2- 8 f 0.1185(10) 0.2553(10) 0.1491(10) 1. 0 
O4 O2- 8 f 0.1924(10) 0.4436(10) 0.5797(10) 1. 0 

#End of data_14270-ICSD


