data_155308-ICSD
#?2014 by Fachinformationszentrum Karlsruhe, and the U.S. Secretary of 
#Commerce on behalf of the United States.  All rights reserved.
_database_code_ICSD                155308
_audit_creation_date               2007/04/01
_audit_update_record               2013/02/01
_chemical_name_systematic
;
Distrontium Magnesium Tungstate(VI)
;
_chemical_formula_structural       'Sr2 Mg (W O6)'
_chemical_formula_sum              'Mg1 O6 Sr2 W1'
_publ_section_title
;
Anisotropic thermal expansion behavior in tetragonal Sr2 Mg W O6
;
loop_
_citation_id
_citation_journal_abbrev
_citation_year
_citation_journal_volume
_citation_page_first
_citation_page_last
_citation_journal_id_ASTM
primary 'Materials Research Bulletin' 2006 41 674 682 MRBUAC
_publ_author_name
;
Achary, S.N.;Chakraborty, K.R.;Patwe, S.J.;Shinde, A.B.;Krishna, 
P.S.R.;Tyagi, A.K.
;
_cell_length_a                     5.5763(3)
_cell_length_b                     5.5763(3)
_cell_length_c                     7.9471(6)
_cell_angle_alpha                  90.
_cell_angle_beta                   90.
_cell_angle_gamma                  90.
_cell_volume                       247.12
_cell_formula_units_Z              2
_symmetry_space_group_name_H-M     'I 4/m'
_symmetry_Int_Tables_number        87
_refine_ls_R_factor_all            .0307
loop_
_symmetry_equiv_pos_site_id
_symmetry_equiv_pos_as_xyz
  1	'-y, x, -z'
  2	'y, -x, -z'
  3	'x, y, -z'
  4	'-x, -y, -z'
  5	'y, -x, z'
  6	'-y, x, z'
  7	'-x, -y, z'
  8	'x, y, z'
  9	'-y+.5, x+.5, -z+.5'
 10	'y+.5, -x+.5, -z+.5'
 11	'x+.5, y+.5, -z+.5'
 12	'-x+.5, -y+.5, -z+.5'
 13	'y+.5, -x+.5, z+.5'
 14	'-y+.5, x+.5, z+.5'
 15	'-x+.5, -y+.5, z+.5'
 16	'x+.5, y+.5, z+.5'
loop_
_atom_type_symbol
_atom_type_oxidation_number
Mg2+	2
O2-	-2
Sr2+	2
W6+	6
loop_
_atom_site_label
_atom_site_type_symbol
_atom_site_symmetry_multiplicity
_atom_site_Wyckoff_symbol
_atom_site_fract_x
_atom_site_fract_y
_atom_site_fract_z
_atom_site_occupancy
_atom_site_attached_hydrogens
_atom_site_B_iso_or_equiv
Sr1 Sr2+ 4 d 0 0.5 0.250 1. 0 0.18(2) 
Mg1 Mg2+ 2 a 0 0 0 1. 0 0.10(5) 
W1 W6+ 2 b 0 0 0.5 1. 0 0.18(6) 
O1 O2- 8 h 0.2255(8) 0.2898(7) 0 1. 0 0.39(2) 
O2 O2- 4 e 0 0 0.2584(11) 1. 0 0.24(3) 

#End of data_155308-ICSD


