data_150446-ICSD
#?2014 by Fachinformationszentrum Karlsruhe, and the U.S. Secretary of 
#Commerce on behalf of the United States.  All rights reserved.
_database_code_ICSD                150446
_audit_creation_date               2006/04/01
_audit_update_record               2011/02/01
_chemical_name_systematic
;
Tripotassium Phosphato(V)dodecatungstate
;
_chemical_formula_structural       'K3 (P W12 O40)'
_chemical_formula_sum              'K3 O40 P1 W12'
_publ_section_title
;
Synthesis, optical properties and electronic structures of 
polyoxometalates
;
loop_
_citation_id
_citation_journal_abbrev
_citation_year
_citation_journal_volume
_citation_page_first
_citation_page_last
_citation_journal_id_ASTM
primary 'Journal of Solid State Chemistry' 2004 177 4528 4534 JSSCBI
_publ_author_name
;
Goubin, F.;Guenee, L.;Deniard, P.;Koo, H.-J.;Whangbo 
Myunghwan;Montardi, Y.;Jobic, S.
;
_cell_length_a                     11.6020(2)
_cell_length_b                     11.6020(2)
_cell_length_c                     11.6020(2)
_cell_angle_alpha                  90.
_cell_angle_beta                   90.
_cell_angle_gamma                  90.
_cell_volume                       1561.7
_cell_formula_units_Z              2
_symmetry_space_group_name_H-M     'P n -3 m Z'
_symmetry_Int_Tables_number        224
_refine_ls_R_factor_all            .06
loop_
_symmetry_equiv_pos_site_id
_symmetry_equiv_pos_as_xyz
  1	'-y, x+.5, z+.5'
  2	'y+.5, x+.5, -z'
  3	'y+.5, -x, z+.5'
  4	'-y, -x, -z'
  5	'-z, x+.5, y+.5'
  6	'z+.5, x+.5, -y'
  7	'z+.5, -x, y+.5'
  8	'-z, -x, -y'
  9	'z+.5, -y, x+.5'
 10	'-z, y+.5, x+.5'
 11	'z+.5, y+.5, -x'
 12	'-z, -y, -x'
 13	'y+.5, -z, x+.5'
 14	'-y, z+.5, x+.5'
 15	'y+.5, z+.5, -x'
 16	'-y, -z, -x'
 17	'x+.5, z+.5, -y'
 18	'x+.5, -z, y+.5'
 19	'-x, z+.5, y+.5'
 20	'-x, -z, -y'
 21	'x+.5, y+.5, -z'
 22	'x+.5, -y, z+.5'
 23	'-x, y+.5, z+.5'
 24	'-x, -y, -z'
 25	'y, -x+.5, -z+.5'
 26	'-y+.5, -x+.5, z'
 27	'-y+.5, x, -z+.5'
 28	'y, x, z'
 29	'z, -x+.5, -y+.5'
 30	'-z+.5, -x+.5, y'
 31	'-z+.5, x, -y+.5'
 32	'z, x, y'
 33	'-z+.5, y, -x+.5'
 34	'z, -y+.5, -x+.5'
 35	'-z+.5, -y+.5, x'
 36	'z, y, x'
 37	'-y+.5, z, -x+.5'
 38	'y, -z+.5, -x+.5'
 39	'-y+.5, -z+.5, x'
 40	'y, z, x'
 41	'-x+.5, -z+.5, y'
 42	'-x+.5, z, -y+.5'
 43	'x, -z+.5, -y+.5'
 44	'x, z, y'
 45	'-x+.5, -y+.5, z'
 46	'-x+.5, y, -z+.5'
 47	'x, -y+.5, -z+.5'
 48	'x, y, z'
loop_
_atom_type_symbol
_atom_type_oxidation_number
K1+	1
O2-	-2
P5+	5
W6+	6
loop_
_atom_site_label
_atom_site_type_symbol
_atom_site_symmetry_multiplicity
_atom_site_Wyckoff_symbol
_atom_site_fract_x
_atom_site_fract_y
_atom_site_fract_z
_atom_site_occupancy
_atom_site_attached_hydrogens
_atom_site_B_iso_or_equiv
W1 W6+ 24 k 0.4671(2) 0.4671(2) 0.2577(4) 1. 0 0.87(9) 
O1 O2- 24 k 0.649(3) 0.649(3) 0.010(5) 1. 0 0.7(7) 
O2 O2- 24 k 0.068(3) 0.068(3) 0.762(6) 1. 0 0.7(7) 
O3 O2- 24 k 0.126(3) 0.126(3) 0.538(5) 1. 0 0.7(7) 
O4 O2- 8 e 0.323(3) 0.323(3) 0.323(3) 1. 0 0.7(7) 
P1 P5+ 2 a 0.250 0.250 0.250 1. 0 0.7(7) 
K1 K1+ 6 d 0.250 0.750 0.750 1. 0 3.(1) 

#End of data_150446-ICSD


