data_416179-ICSD
#?2014 by Fachinformationszentrum Karlsruhe, and the U.S. Secretary of 
#Commerce on behalf of the United States.  All rights reserved.
_database_code_ICSD                416179
_audit_creation_date               2008/02/01
_chemical_name_systematic
;
Disodium Pentacopper Bis(disilicate)
;
_chemical_formula_structural       'Na2 Cu5 (Si2 O7)2'
_chemical_formula_sum              'Cu5 Na2 O14 Si4'
_publ_section_title
;
Synthesis, crystal structure and magnetic characterization of Na2 Cu5 
(Si2 O7)2: An inorganic ferrimagnetic chain
;
loop_
_citation_id
_citation_journal_abbrev
_citation_year
_citation_journal_volume
_citation_journal_issue
_citation_page_first
_citation_page_last
_citation_journal_id_ASTM
primary 'Journal of Solid State Chemistry' 2007 180 1 16 21 JSSCBI
_publ_author_name
;
dos Santos, A.M.;Brandao, P.;Fitch, A.;Reis, M.S.;Amaral, V.S.;Rocha, 
J.
;
_cell_length_a                     5.710752(19)
_cell_length_b                     7.682266(29)
_cell_length_c                     7.967423(26)
_cell_angle_alpha                  64.29720(20)
_cell_angle_beta                   88.48600(20)
_cell_angle_gamma                  70.59580(20)
_cell_volume                       294.21
_cell_formula_units_Z              1
_symmetry_space_group_name_H-M     'P -1'
_symmetry_Int_Tables_number        2
_refine_ls_R_factor_all            .077
loop_
_symmetry_equiv_pos_site_id
_symmetry_equiv_pos_as_xyz
  1	'-x, -y, -z'
  2	'x, y, z'
loop_
_atom_type_symbol
_atom_type_oxidation_number
Cu2+	2
Na1+	1
O2-	-2
Si4+	4
loop_
_atom_site_label
_atom_site_type_symbol
_atom_site_symmetry_multiplicity
_atom_site_Wyckoff_symbol
_atom_site_fract_x
_atom_site_fract_y
_atom_site_fract_z
_atom_site_occupancy
_atom_site_attached_hydrogens
_atom_site_U_iso_or_equiv
Cu1 Cu2+ 1 h 0.5 0.5 0.5 1.0 0 0.0057(6) 
Cu2 Cu2+ 2 i 0.17473(22) 0.92770(18) 0.22088(17) 1.0 0 0.0069(4) 
Cu3 Cu2+ 2 i 0.58321(22) 0.10203(19) 0.31955(16) 1.0 0 0.0063(4) 
Na1 Na1+ 2 i 0.2345(6) 0.6295(5) 0.0518(5) 1.0 0 0.002(8) 
Si1 Si4+ 2 i 0.9921(5) 0.2617(4) 0.36832(34) 1.0 0 0.0068(11) 
Si2 Si4+ 2 i 0.6954(5) 0.7165(4) 0.0956(4) 1.0 0 0.0068(11) 
O1 O2- 2 i 0.9477(9) 0.4979(7) 0.2082(6) 1.0 0 0.01(2) 
O2 O2- 2 i 0.4897(9) 0.7066(7) 0.2449(7) 1.0 0 0.01(2) 
O3 O2- 2 i 0.5786(9) 0.7029(7) -0.0733(7) 1.0 0 0.01(2) 
O4 O2- 2 i 1.2849(9) 0.1478(7) 0.4492(7) 1.0 0 0.01(2) 
O5 O2- 2 i 0.9058(9) 0.1371(8) 0.2673(7) 1.0 0 0.01(2) 
O6 O2- 2 i 0.8097(9) 0.2789(7) 0.5226(7) 1.0 0 0.01(2) 
O7 O2- 2 i 0.8121(10) 0.8960(8) 0.0360(7) 1.0 0 0.01(2) 

#End of data_416179-ICSD


