data_66079-ICSD
#?2014 by Fachinformationszentrum Karlsruhe, and the U.S. Secretary of 
#Commerce on behalf of the United States.  All rights reserved.
_database_code_ICSD                66079
_audit_creation_date               1992/01/20
_audit_update_record               2006/04/01
_chemical_name_systematic          'Potassium Dihydrogenphosphate(V)'
_chemical_formula_structural       'K (H2 P O4)'
_chemical_formula_sum              'H2 K1 O4 P1'
_publ_section_title
;
Refinement of the crystal structure of K H2 P O4 in the ferroelectric 
phase
;
loop_
_citation_id
_citation_journal_abbrev
_citation_year
_citation_journal_volume
_citation_page_first
_citation_page_last
_citation_journal_id_ASTM
primary 'Physica Status Solidi A - Applications and Materials'
 1990 117 93 96 PSSABA
_publ_author_name                  'Fukami, T.'
_cell_length_a                     10.495(1)
_cell_length_b                     10.495(1)
_cell_length_c                     6.924(1)
_cell_angle_alpha                  90.
_cell_angle_beta                   90.
_cell_angle_gamma                  90.
_cell_volume                       762.64
_cell_formula_units_Z              8
_symmetry_space_group_name_H-M     'F -4 d 2'
_symmetry_Int_Tables_number        122
_refine_ls_R_factor_all            .029
loop_
_symmetry_equiv_pos_site_id
_symmetry_equiv_pos_as_xyz
  1	'-y+.25, -x+.25, -z+.75'
  2	'y+.25, x+.25, -z+.75'
  3	'x+.25, -y+.25, z+.75'
  4	'-x+.25, y+.25, z+.75'
  5	'y, -x, -z'
  6	'-y, x, -z'
  7	'-x, -y, z'
  8	'x, y, z'
  9	'-y+.25, -x+.75, -z+.25'
 10	'-y+.75, -x+.25, -z+.25'
 11	'-y+.75, -x+.75, -z+.75'
 12	'y+.25, x+.75, -z+.25'
 13	'y+.75, x+.25, -z+.25'
 14	'y+.75, x+.75, -z+.75'
 15	'x+.25, -y+.75, z+.25'
 16	'x+.75, -y+.25, z+.25'
 17	'x+.75, -y+.75, z+.75'
 18	'-x+.25, y+.75, z+.25'
 19	'-x+.75, y+.25, z+.25'
 20	'-x+.75, y+.75, z+.75'
 21	'y, -x+.5, -z+.5'
 22	'y+.5, -x, -z+.5'
 23	'y+.5, -x+.5, -z'
 24	'-y, x+.5, -z+.5'
 25	'-y+.5, x, -z+.5'
 26	'-y+.5, x+.5, -z'
 27	'-x, -y+.5, z+.5'
 28	'-x+.5, -y, z+.5'
 29	'-x+.5, -y+.5, z'
 30	'x, y+.5, z+.5'
 31	'x+.5, y, z+.5'
 32	'x+.5, y+.5, z'
loop_
_atom_type_symbol
_atom_type_oxidation_number
H1+	1
K1+	1
O2-	-2
P5+	5
loop_
_atom_site_label
_atom_site_type_symbol
_atom_site_symmetry_multiplicity
_atom_site_Wyckoff_symbol
_atom_site_fract_x
_atom_site_fract_y
_atom_site_fract_z
_atom_site_occupancy
_atom_site_attached_hydrogens
_atom_site_B_iso_or_equiv
K1 K1+ 8 b 0 0 0.5 1. 0 0 
P1 P5+ 8 a 0 0 0 1. 0 0 
O1 O2- 32 e 0.0334(1) 0.1161(1) 0.1267(1) 1. 0 0 
H1 H1+ 16 c -.048(2) 0.202(2) 0.125 1. 0 2.7(4) 

loop_
_atom_site_aniso_label
_atom_site_aniso_type_symbol
_atom_site_aniso_U_11
_atom_site_aniso_U_22
_atom_site_aniso_U_33
_atom_site_aniso_U_12
_atom_site_aniso_U_13
_atom_site_aniso_U_23
K1 K1+ 0.0097(1) 0.0097(1) 0.0068(1) 0 0 0
P1 P5+ 0.0060(1) 0.0060(1) 0.0098(1) 0 0 0
O1 O2- 0.0067(2) 0.0081(2) 0.0098(1) -.0001(2) -.0006(2) -.0031(2)
#End of data_66079-ICSD


