data_183282-ICSD
#?2014 by Fachinformationszentrum Karlsruhe, and the U.S. Secretary of 
#Commerce on behalf of the United States.  All rights reserved.
_database_code_ICSD                183282
_audit_creation_date               2012/08/01
_chemical_name_systematic          'Dipotassium Tricalcium Trisilicate'
_chemical_formula_structural       'K2 Ca3 (Si3 O10)'
_chemical_formula_sum              'Ca3 K2 O10 Si3'
_publ_section_title
;
K2 Ca3 Si3 O10, a novel trisilicate: high-pressure synthesis, 
structural, spectroscopic and computational studies
;
loop_
_citation_id
_citation_journal_abbrev
_citation_year
_citation_journal_volume
_citation_page_first
_citation_page_last
_citation_journal_id_ASTM
primary 'European Journal of Mineralogy' 2011 23 425 435 EJMIER
_publ_author_name
;
Arroyabe, E.;Prechtel, F.;Toebbens, D.M.;Kaindl, R.;Kahlenberg, V.
;
_cell_length_a                     10.3539(19)
_cell_length_b                     10.6013(16)
_cell_length_c                     9.8221(19)
_cell_angle_alpha                  90.
_cell_angle_beta                   118.079(13)
_cell_angle_gamma                  90.
_cell_volume                       951.23
_cell_formula_units_Z              4
_symmetry_space_group_name_H-M     'C 1 2/c 1'
_symmetry_Int_Tables_number        15
_refine_ls_R_factor_all            .0564
loop_
_symmetry_equiv_pos_site_id
_symmetry_equiv_pos_as_xyz
  1	'x, -y, z+.5'
  2	'-x, -y, -z'
  3	'-x, y, -z+.5'
  4	'x, y, z'
  5	'x+.5, -y+.5, z+.5'
  6	'-x+.5, -y+.5, -z'
  7	'-x+.5, y+.5, -z+.5'
  8	'x+.5, y+.5, z'
loop_
_atom_type_symbol
_atom_type_oxidation_number
Ca2+	2
K1+	1
O2-	-2
Si4+	4
loop_
_atom_site_label
_atom_site_type_symbol
_atom_site_symmetry_multiplicity
_atom_site_Wyckoff_symbol
_atom_site_fract_x
_atom_site_fract_y
_atom_site_fract_z
_atom_site_occupancy
_atom_site_attached_hydrogens
_atom_site_U_iso_or_equiv
Ca1 Ca2+ 4 e 0 0.3692(1) 0.750 1. 0 0.011(1) 
Ca2 Ca2+ 8 f 0.8922(1) 0.1185(1) 0.5149(1) 1. 0 0.013(1) 
K1 K1+ 8 f 0.1465(1) 0.3754(1) 0.5111(1) 1. 0 0.015(1) 
Si1 Si4+ 8 f 0.7840(1) 0.3631(1) 0.2915(1) 1. 0 0.010(1) 
Si2 Si4+ 4 e 0 0.1601(2) 0.250 1. 0 0.009(1) 
O1 O2- 8 f 0.8113(4) 0.5031(3) 0.7307(4) 1. 0 0.015(1) 
O2 O2- 8 f 0.1295(4) 0.2542(3) 0.2584(4) 1. 0 0.017(1) 
O3 O2- 8 f 0.8570(4) 0.3565(3) 0.4797(4) 1. 0 0.015(1) 
O4 O2- 8 f 0.1180(4) 0.1867(3) 0.7242(4) 1. 0 0.015(1) 
O5 O2- 8 f 0.9409(4) 0.0848(3) 0.0921(4) 1. 0 0.014(1) 

loop_
_atom_site_aniso_label
_atom_site_aniso_type_symbol
_atom_site_aniso_U_11
_atom_site_aniso_U_22
_atom_site_aniso_U_33
_atom_site_aniso_U_12
_atom_site_aniso_U_13
_atom_site_aniso_U_23
Ca1 Ca2+ 0.011(1) 0.011(1) 0.010(1) 0. 0.005(1) 0.
Ca2 Ca2+ 0.012(1) 0.012(1) 0.016(1) 0.001(1) 0.007(1) 0.002(1)
K1 K1+ 0.014(1) 0.017(1) 0.014(1) 0.000(1) 0.007(1) -0.002(1)
Si1 Si4+ 0.011(1) 0.009(1) 0.010(1) -0.001(1) 0.006(1) 0.000(1)
Si2 Si4+ 0.010(1) 0.008(1) 0.009(1) 0. 0.005(1) 0.
O1 O2- 0.018(2) 0.013(2) 0.015(2) 0.004(1) 0.008(2) 0.000(1)
O2 O2- 0.016(2) 0.017(2) 0.021(2) -0.004(1) 0.010(2) 0.002(1)
O3 O2- 0.017(2) 0.018(2) 0.013(2) -0.001(1) 0.008(1) 0.001(1)
O4 O2- 0.012(2) 0.017(2) 0.017(2) 0.002(1) 0.007(2) -0.001(1)
O5 O2- 0.015(2) 0.016(2) 0.013(2) 0.001(1) 0.007(1) -0.002(1)
#End of data_183282-ICSD


