data_300175-ICSD
#?2014 by Fachinformationszentrum Karlsruhe, and the U.S. Secretary of 
#Commerce on behalf of the United States.  All rights reserved.
_database_code_ICSD                300175
_audit_creation_date               1991/07/10
_audit_update_record               1991/10/30
_chemical_name_systematic          'Pentasodium Tetrathioindate(III)'
_chemical_formula_structural       'Na5 In S4'
_chemical_formula_sum              'In1 Na5 S4'
_publ_section_title
;
Crystal structure of pentasodium tetrathioindate(III)
;
loop_
_citation_id
_citation_journal_abbrev
_citation_year
_citation_journal_volume
_citation_page_first
_citation_page_last
_citation_journal_id_ASTM
primary 'Zeitschrift fuer Kristallographie (1979-2010)' 1991 197 169 170 ZEKRDZ
_publ_author_name                  'Eisenmann, B.;Hofmann, A.'
_cell_length_a                     6.802(4)
_cell_length_b                     8.835(5)
_cell_length_c                     7.806(4)
_cell_angle_alpha                  90.
_cell_angle_beta                   90.606(60)
_cell_angle_gamma                  90.
_cell_volume                       469.08
_cell_formula_units_Z              2
_symmetry_space_group_name_H-M     'P 1 21/m 1'
_symmetry_Int_Tables_number        11
_refine_ls_R_factor_all            .032
loop_
_symmetry_equiv_pos_site_id
_symmetry_equiv_pos_as_xyz
  1	'x, -y+.5, z'
  2	'-x, -y, -z'
  3	'-x, y+.5, -z'
  4	'x, y, z'
loop_
_atom_type_symbol
_atom_type_oxidation_number
In3+	3
Na1+	1
S2-	-2
loop_
_atom_site_label
_atom_site_type_symbol
_atom_site_symmetry_multiplicity
_atom_site_Wyckoff_symbol
_atom_site_fract_x
_atom_site_fract_y
_atom_site_fract_z
_atom_site_occupancy
_atom_site_attached_hydrogens
Na1 Na1+ 4 f 0.3432(3) 0.5202(2) 0.3344(2) 1. 0 
Na2 Na1+ 2 e 0.0251(4) 0.25 0.4751(4) 1. 0 
Na3 Na1+ 2 e 0.3284(5) 0.25 0.8388(4) 1. 0 
Na4 Na1+ 2 a 0 0 0 1. 0 
In1 In3+ 2 e 0.6422(1) 0.25 0.1756(1) 1. 0 
S1 S2- 4 f 0.7681(1) 0.0206(1) 0.3265(1) 1. 0 
S2 S2- 2 e 0.2783(2) 0.25 0.1807(2) 1. 0 
S3 S2- 2 e 0.7643(2) 0.25 0.8787(2) 1. 0 

#End of data_300175-ICSD


