data_201535-ICSD
#?2014 by Fachinformationszentrum Karlsruhe, and the U.S. Secretary of 
#Commerce on behalf of the United States.  All rights reserved.
_database_code_ICSD                201535
_audit_creation_date               1985/07/17
_audit_update_record               2006/04/01
_chemical_name_systematic          'Magnesium Catena-silicate'
_chemical_formula_structural       'Mg (Si O3)'
_chemical_formula_sum              'Mg1 O3 Si1'
_chemical_name_mineral             Clinoenstatite
_publ_section_title
;
Polysynthetically-twinned structures of enstatite and wollastonite
;
loop_
_citation_id
_citation_journal_abbrev
_citation_year
_citation_journal_volume
_citation_page_first
_citation_page_last
_citation_journal_id_ASTM
primary 'Physics and Chemistry of Minerals' 1984 10 217 229 PCMIDU
2 'Golden Book of Phase Transitions, Wroclaw' 2002 1 1 123 GBOPT5
_publ_author_name                  'Ohashi, Y.'
_cell_length_a                     9.606(1)
_cell_length_b                     8.8131(7)
_cell_length_c                     5.170(2)
_cell_angle_alpha                  90.
_cell_angle_beta                   108.35(1)
_cell_angle_gamma                  90.
_cell_volume                       415.43
_cell_formula_units_Z              8
_symmetry_space_group_name_H-M     'P 1 21/c 1'
_symmetry_Int_Tables_number        14
_refine_ls_R_factor_all            .031
loop_
_symmetry_equiv_pos_site_id
_symmetry_equiv_pos_as_xyz
  1	'x, -y+.5, z+.5'
  2	'-x, -y, -z'
  3	'-x, y+.5, -z+.5'
  4	'x, y, z'
loop_
_atom_type_symbol
_atom_type_oxidation_number
Mg2+	2
O2-	-2
Si4+	4
loop_
_atom_site_label
_atom_site_type_symbol
_atom_site_symmetry_multiplicity
_atom_site_Wyckoff_symbol
_atom_site_fract_x
_atom_site_fract_y
_atom_site_fract_z
_atom_site_occupancy
_atom_site_attached_hydrogens
_atom_site_B_iso_or_equiv
Mg1 Mg2+ 4 e 0.25111(7) 0.65330(7) 0.2177(1) 1. 0 0.41(1) 
Mg2 Mg2+ 4 e 0.25581(8) 0.01312(7) 0.2146(1) 1. 0 0.55(1) 
Si1 Si4+ 4 e 0.04331(5) 0.34088(6) 0.29449(9) 1. 0 0.29(1) 
Si2 Si4+ 4 e 0.55339(5) 0.83718(6) 0.23007(9) 1. 0 0.30(1) 
O1 O2- 4 e 0.8667(1) 0.3396(1) 0.1851(2) 1. 0 0.37(2) 
O2 O2- 4 e 0.1228(1) 0.5009(1) 0.3218(3) 1. 0 0.46(2) 
O3 O2- 4 e 0.1066(1) 0.2795(1) 0.6153(3) 1. 0 0.47(2) 
O4 O2- 4 e 0.3762(1) 0.8399(1) 0.1247(3) 1. 0 0.39(2) 
O5 O2- 4 e 0.6340(1) 0.9825(1) 0.3891(3) 1. 0 0.49(2) 
O6 O2- 4 e 0.6053(1) 0.6942(1) 0.4540(3) 1. 0 0.43(2) 

#End of data_201535-ICSD


