data_150696-ICSD
#?2014 by Fachinformationszentrum Karlsruhe, and the U.S. Secretary of 
#Commerce on behalf of the United States.  All rights reserved.
_database_code_ICSD                150696
_audit_creation_date               2006/04/01
_chemical_name_systematic          'Dicalcium Ferro(III)rhenate(V)'
_chemical_formula_structural       'Ca2 (Fe Re O6)'
_chemical_formula_sum              'Ca2 Fe1 O6 Re1'
_publ_section_title
;
Structural distortion on metal-insulator transition in ordered double 
perovskite Ca2 Fe Re O6
;
loop_
_citation_id
_citation_journal_abbrev
_citation_year
_citation_journal_volume
_citation_journal_issue
_citation_page_first
_citation_page_last
_citation_journal_id_ASTM
primary 'Journal of the Physical Society of Japan' 2003 72 6 1411 1417 JUPSAU
_publ_author_name
;
Oikawa, K.;Kamiyama, T.;Kato, H.;Tokura, Y.
;
_cell_length_a                     5.39023(6)
_cell_length_b                     5.51648(6)
_cell_length_c                     7.67191(8)
_cell_angle_alpha                  90.
_cell_angle_beta                   90.2212(6)
_cell_angle_gamma                  90.
_cell_volume                       228.12
_cell_formula_units_Z              2
_symmetry_space_group_name_H-M     'P 1 21/n 1'
_symmetry_Int_Tables_number        14
_refine_ls_R_factor_all            .0157
loop_
_symmetry_equiv_pos_site_id
_symmetry_equiv_pos_as_xyz
  1	'-x+.5, y+.5, -z+.5'
  2	'-x, -y, -z'
  3	'x+.5, -y+.5, z+.5'
  4	'x, y, z'
loop_
_atom_type_symbol
_atom_type_oxidation_number
Ca2+	2
Fe3+	3
O2-	-2
Re5+	5
loop_
_atom_site_label
_atom_site_type_symbol
_atom_site_symmetry_multiplicity
_atom_site_Wyckoff_symbol
_atom_site_fract_x
_atom_site_fract_y
_atom_site_fract_z
_atom_site_occupancy
_atom_site_attached_hydrogens
_atom_site_B_iso_or_equiv
Ca1 Ca2+ 4 e 0.0102(4) 0.04845(18) 0.2471(4) 1. 0 0.293(18) 
Fe1 Fe3+ 2 c 0 0.5 0 1. 0 0.18(2) 
Re1 Re5+ 2 d 0.5 0 0 1. 0 0.13(2) 
O1 O2- 4 e 0.3033(3) 0.2900(4) 0.04420(19) 1. 0 0.30(3) 
O2 O2- 4 e 0.2926(3) 0.2973(4) 0.45617(19) 1. 0 0.34(3) 
O3 O2- 4 e 0.5838(2) -0.02411(18) 0.2463(2) 1. 0 0.247(18) 

#End of data_150696-ICSD


