data_414247-ICSD
#?2014 by Fachinformationszentrum Karlsruhe, and the U.S. Secretary of 
#Commerce on behalf of the United States.  All rights reserved.
_database_code_ICSD                414247
_audit_creation_date               2007/04/01
_audit_update_record               2011/02/01
_chemical_name_systematic
;
Disodium Bis(hydrogenphosphato(V))ferrate(II)
;
_chemical_formula_structural       'Na2 (Fe (H P O3)2)'
_chemical_formula_sum              'H2 Fe1 Na2 O6 P2'
_publ_section_title
;
Two novel transition-metal phosphite compounds with 4-, 6- and 12-
membered rings: hydrothermal syntheses, crystal structures and 
magnetic properties of Na2 [M (H P O3)2] (M= Fe, Co)
;
loop_
_citation_id
_citation_journal_abbrev
_citation_year
_citation_journal_volume
_citation_page_first
_citation_page_last
_citation_journal_id_ASTM
primary 'European Journal of Inorganic Chemistry  (online)'
 2005 2005 946 951 EJICFO
_publ_author_name
;
Liu, W.;Chen, H.-H.;Yang, X.-X.;Zhao, J.-T.
;
_cell_length_a                     12.169(4)
_cell_length_b                     5.441(2)
_cell_length_c                     9.164(3)
_cell_angle_alpha                  90.00
_cell_angle_beta                   90.00
_cell_angle_gamma                  90.00
_cell_volume                       606.76
_cell_formula_units_Z              4
_symmetry_space_group_name_H-M     'P n m a'
_symmetry_Int_Tables_number        62
_refine_ls_R_factor_all            .023
loop_
_symmetry_equiv_pos_site_id
_symmetry_equiv_pos_as_xyz
  1	'x+.5, y, -z+.5'
  2	'x, -y+.5, z'
  3	'-x+.5, y+.5, z+.5'
  4	'-x, -y, -z'
  5	'-x+.5, -y, z+.5'
  6	'-x, y+.5, -z'
  7	'x+.5, -y+.5, -z+.5'
  8	'x, y, z'
loop_
_atom_type_symbol
_atom_type_oxidation_number
Fe2+	2
H1+	1
Na1+	1
O2-	-2
P3+	3
loop_
_atom_site_label
_atom_site_type_symbol
_atom_site_symmetry_multiplicity
_atom_site_Wyckoff_symbol
_atom_site_fract_x
_atom_site_fract_y
_atom_site_fract_z
_atom_site_occupancy
_atom_site_attached_hydrogens
_atom_site_U_iso_or_equiv
Fe1 Fe2+ 4 c 0.15981(3) 0.2500 0.63677(4) 1 0 0.01158(15) 
P1 P3+ 4 c 0.01541(6) -0.2500 0.62811(8) 1 0 0.01149(19) 
P2 P3+ 4 c 0.18449(6) 0.2500 1.00274(8) 1 0 0.01202(19) 
Na1 Na1+ 4 c 0.09639(10) 0.7500 0.22549(15) 1 0 0.0234(3) 
Na2 Na1+ 4 c 0.27949(10) 0.2500 0.32700(15) 1 0 0.0243(3) 
O1 O2- 8 d 0.04821(12) -0.0204(3) 0.71229(17) 1 0 0.0188(3) 
O2 O2- 4 c 0.23096(18) 0.2500 0.8490(2) 1 0 0.0196(5) 
O3 O2- 8 d 0.28633(12) -0.0177(3) 0.58570(18) 1 0 0.0248(4) 
O4 O2- 4 c 0.10423(17) 0.2500 0.4184(2) 1 0 0.0194(5) 
H1 H1+ 4 c 0.0699 0.2500 0.9971 1 0 0.050 
H2 H1+ 4 c 0.075(4) -0.2500 0.510(5) 1 0 0.050 

loop_
_atom_site_aniso_label
_atom_site_aniso_type_symbol
_atom_site_aniso_U_11
_atom_site_aniso_U_22
_atom_site_aniso_U_33
_atom_site_aniso_U_12
_atom_site_aniso_U_13
_atom_site_aniso_U_23
Fe1 Fe2+ 0.0126(2) 0.0122(2) 0.0099(2) 0.000 -0.00075(13) 0.000
P1 P3+ 0.0116(3) 0.0118(3) 0.0111(4) 0.000 -0.0001(2) 0.000
P2 P3+ 0.0126(3) 0.0132(4) 0.0103(4) 0.000 -0.0002(2) 0.000
Na1 Na1+ 0.0185(6) 0.0255(7) 0.0263(7) 0.000 0.0054(5) 0.000
Na2 Na1+ 0.0216(7) 0.0284(7) 0.0229(7) 0.000 0.0056(5) 0.000
O1 O2- 0.0219(7) 0.0159(7) 0.0187(8) -0.0047(6) 0.0012(6) -0.0037(6)
O2 O2- 0.0172(11) 0.0326(13) 0.0090(10) 0.000 0.0000(8) 0.000
O3 O2- 0.0228(8) 0.0235(8) 0.0279(9) 0.0062(6) -0.0080(7) -0.0126(7)
O4 O2- 0.0144(10) 0.0287(12) 0.0152(10) 0.000 -0.0025(8) 0.000
#End of data_414247-ICSD


