data_411068-ICSD
#?2014 by Fachinformationszentrum Karlsruhe, and the U.S. Secretary of 
#Commerce on behalf of the United States.  All rights reserved.
_database_code_ICSD                411068
_audit_creation_date               2002/10/01
_chemical_name_systematic          'Potassium Dioxofluorotellurate(IV)'
_chemical_formula_structural       'K (Te O2 F)'
_chemical_formula_sum              'F1 K1 O2 Te1'
_publ_section_title                'Trimeric anions in K Te O2 F'
loop_
_citation_id
_citation_journal_abbrev
_citation_year
_citation_journal_volume
_citation_page_first
_citation_page_last
_citation_journal_id_ASTM
primary 'European Journal of Inorganic Chemistry  (online)'
 2000 2000 1767 1770 EJICFO
_publ_author_name                  'Jansen, M.;Kessler, U.'
_cell_length_a                     11.7782(18)
_cell_length_b                     14.990(3)
_cell_length_c                     6.1948(13)
_cell_angle_alpha                  90.
_cell_angle_beta                   94.107(11)
_cell_angle_gamma                  90.
_cell_volume                       1090.92
_cell_formula_units_Z              12
_symmetry_space_group_name_H-M     'P 1 21/n 1'
_symmetry_Int_Tables_number        14
_refine_ls_R_factor_all            .0362
loop_
_symmetry_equiv_pos_site_id
_symmetry_equiv_pos_as_xyz
  1	'-x+.5, y+.5, -z+.5'
  2	'-x, -y, -z'
  3	'x+.5, -y+.5, z+.5'
  4	'x, y, z'
loop_
_atom_type_symbol
_atom_type_oxidation_number
F1-	-1
K1+	1
O2-	-2
Te4+	4
loop_
_atom_site_label
_atom_site_type_symbol
_atom_site_symmetry_multiplicity
_atom_site_Wyckoff_symbol
_atom_site_fract_x
_atom_site_fract_y
_atom_site_fract_z
_atom_site_occupancy
_atom_site_attached_hydrogens
Te1 Te4+ 4 e 0.27906(2) 0.05224(1) 1.20051(3) 1. 0 
Te2 Te4+ 4 e 0.19758(2) 0.18344(1) 0.76495(3) 1. 0 
Te3 Te4+ 4 e 0.08912(2) -.03911(1) 0.77278(3) 1. 0 
K1 K1+ 4 e 0.51389(5) 0.18363(4) 0.72072(10) 1. 0 
K2 K1+ 4 e 0.13302(6) -.18564(4) 0.28713(11) 1. 0 
K3 K1+ 4 e 0.10035(6) 0.42897(5) 0.76298(12) 1. 0 
F1 F1- 4 e 0.38546(17) 0.14724(13) 1.3647(3) 1. 0 
F2 F1- 4 e 0.06728(17) 0.25619(14) 0.5985(3) 1. 0 
F3 F1- 4 e 0.11160(19) -.17687(12) 0.7723(4) 1. 0 
O1 O2- 4 e 0.39703(18) -.02414(15) 1.2440(4) 1. 0 
O2 O2- 4 e 0.1782(2) 0.25403(15) 0.9947(4) 1. 0 
O3 O2- 4 e 0.1807(2) -.03152(16) 0.5500(4) 1. 0 
O4 O2- 4 e 0.31954(16) 0.10566(13) 0.9353(3) 1. 0 
O5 O2- 4 e 0.1950(2) -.04736(14) 1.0147(4) 1. 0 
O6 O2- 4 e 0.08228(18) 0.09787(14) 0.8145(4) 1. 0 

loop_
_atom_site_aniso_label
_atom_site_aniso_type_symbol
_atom_site_aniso_U_11
_atom_site_aniso_U_22
_atom_site_aniso_U_33
_atom_site_aniso_U_12
_atom_site_aniso_U_13
_atom_site_aniso_U_23
Te1 Te4+ 0.01653(7) 0.01364(6) 0.01567(7) 0.00086(5) -.00061(5) 0.00043(5)
Te2 Te4+ 0.01779(7) 0.01555(7) 0.01605(7) 0.00124(5) 0.00160(5) 0.00105(5)
Te3 Te4+ 0.01818(7) 0.01519(7) 0.01873(7) -.00243(5) -.00104(5) 0.00020(5)
K1 K1+ 0.0235(3) 0.0201(2) 0.0218(2) 0.00327(19) 0.00033(19) -.00167(19)
K2 K1+ 0.0260(3) 0.0199(3) 0.0307(3) 0.0008(2) -.0018(2) 0.0020(2)
K3 K1+ 0.0257(3) 0.0281(3) 0.0354(3) -.0009(2) 0.0029(2) 0.0021(3)
F1 F1- 0.0335(10) 0.0233(8) 0.0306(9) -.0048(7) -.0090(7) -.0051(7)
F2 F1- 0.0296(9) 0.0353(10) 0.0349(10) 0.0078(8) -.0047(8) 0.0136(8)
F3 F1- 0.0368(11) 0.0164(8) 0.0477(12) -.0047(7) -.0008(9) -.0026(7)
O1 O2- 0.0212(9) 0.0205(9) 0.0403(13) 0.0065(7) -.0056(9) 0.0043(8)
O2 O2- 0.0254(10) 0.0287(11) 0.0291(11) -.0002(8) 0.0034(8) -.0115(9)
O3 O2- 0.0405(13) 0.0299(11) 0.021(1) -.0049(9) 0.0081(9) 0.0014(8)
O4 O2- 0.0181(8) 0.0215(9) 0.0208(8) 0.0028(6) 0.0022(7) 0.0061(7)
O5 O2- 0.0334(11) 0.0174(8) 0.0232(9) -.0053(8) -.0084(8) 0.0012(7)
O6 O2- 0.0191(8) 0.0167(8) 0.0396(12) -.0004(7) 0.0013(8) 0.0025(8)
#End of data_411068-ICSD


