data_262811-ICSD
#?2014 by Fachinformationszentrum Karlsruhe, and the U.S. Secretary of 
#Commerce on behalf of the United States.  All rights reserved.
_database_code_ICSD                262811
_audit_creation_date               2012/08/01
_chemical_name_systematic
;
Dipotassium Divanadium Dioxide Bis(arsenate(V))
;
_chemical_formula_structural       'K2 V2 O2 (As O4)2'
_chemical_formula_sum              'As2 K2 O10 V2'
_publ_section_title                'K2 V2 O2 (As O4)2'
loop_
_citation_id
_citation_journal_abbrev
_citation_year
_citation_journal_volume
_citation_journal_issue
_citation_page_first
_citation_page_last
_citation_journal_id_ASTM
primary 'Acta Crystallographica, Section E. Structure Reports Online'
 2012 68 7 i54 i54 ACSEBH
_publ_author_name
;
Belkhiri, S.;Mezaoui, D.;Roisnel, T.
;
_cell_length_a                     6.5368(2)
_cell_length_b                     10.7228(5)
_cell_length_c                     13.0666(4)
_cell_angle_alpha                  90
_cell_angle_beta                   90
_cell_angle_gamma                  90
_cell_volume                       915.87
_cell_formula_units_Z              4
_symmetry_space_group_name_H-M     'P c 21 n'
_symmetry_Int_Tables_number        33
_refine_ls_R_factor_all            .0276
loop_
_symmetry_equiv_pos_site_id
_symmetry_equiv_pos_as_xyz
  1	'-x+.5, y, z+.5'
  2	'x+.5, y+.5, -z+.5'
  3	'-x, y+.5, -z'
  4	'x, y, z'
loop_
_atom_type_symbol
_atom_type_oxidation_number
As5+	5
K1+	1
O2-	-2
V4+	4
loop_
_atom_site_label
_atom_site_type_symbol
_atom_site_symmetry_multiplicity
_atom_site_Wyckoff_symbol
_atom_site_fract_x
_atom_site_fract_y
_atom_site_fract_z
_atom_site_occupancy
_atom_site_attached_hydrogens
_atom_site_U_iso_or_equiv
As1 As5+ 4 a 0.99887(4) 0.333103 -0.18131(2) 1 0 0.00293(5) 
V1 V4+ 4 a 0.27644(5) 0.59847(6) 0.25107(3) 1 0 0.00255(8) 
V2 V4+ 4 a 0.49984(6) 0.34895(5) -0.12277(3) 1 0 0.00271(8) 
K1 K1+ 4 a -0.22511(9) 0.53150(8) 0.12103(6) 1 0 0.01172(15) 
K2 K1+ 4 a 0.79227(10) 0.77688(8) -0.10496(5) 1 0 0.01127(15) 
O1 O2- 4 a -0.5484(3) 0.4499(2) 0.23637(18) 1 0 0.0058(5) 
O2 O2- 4 a 0.7996(3) 0.3653(2) -0.10470(17) 1 0 0.0060(3) 
O3 O2- 4 a 0.1652(3) 0.6001(3) -0.09922(15) 1 0 0.0060(4) 
O4 O2- 4 a 0.4565(3) 0.4521(2) -0.21415(18) 1 0 0.0060(5) 
O5 O2- 4 a 0.4859(3) 0.7051(2) 0.01550(19) 1 0 0.0061(5) 
O6 O2- 4 a 0.1747(3) 0.5671(2) 0.10771(16) 1 0 0.0053(4) 
O7 O2- 4 a 0.4687(4) 0.4564(2) -0.00520(17) 1 0 0.0063(5) 
O8 O2- 4 a 1.2015(3) 0.2971(2) -0.10749(17) 1 0 0.0060(3) 
O9 O2- 4 a 0.9597(3) 0.2103(2) -0.26290(18) 1 0 0.0062(5) 
O10 O2- 4 a 0.4516(3) 0.7042(2) 0.22272(18) 1 0 0.0061(5) 
As2 As5+ 4 a 0.32206(3) 0.58763(5) 0.00215(2) 1 0 0.00258(5) 

loop_
_atom_site_aniso_label
_atom_site_aniso_type_symbol
_atom_site_aniso_U_11
_atom_site_aniso_U_22
_atom_site_aniso_U_33
_atom_site_aniso_U_12
_atom_site_aniso_U_13
_atom_site_aniso_U_23
As1 As5+ 0.00216(8) 0.00404(10) 0.00258(10) -0.00032(7) -0.00002(9) 
0.00035(10)
V1 V4+ 0.00278(13) 0.00322(15) 0.00164(15) 0.00008(15) 0.00028(13) 
0.00010(14)
V2 V4+ 0.00261(13) 0.00336(17) 0.00216(15) 0.00019(13) -0.00004(13) 
0.00031(14)
K1 K1+ 0.0052(2) 0.0156(3) 0.0144(3) -0.0015(2) -0.0016(2) 0.0047(3)
K2 K1+ 0.0104(2) 0.0171(3) 0.0063(2) -0.0012(2) 0.00160(19) -0.0001(3)
O1 O2- 0.0065(7) 0.0053(8) 0.0057(9) 0.0026(6) 0.0020(7) 0.0030(7)
O2 O2- 0.0028(4) 0.0093(5) 0.0060(5) -0.0001(4) -0.0006(5) 0.0005(6)
O3 O2- 0.0046(6) 0.0114(9) 0.0020(7) 0.0014(7) -0.0015(5) 0.0004(8)
O4 O2- 0.0046(7) 0.0073(8) 0.0063(9) 0.0009(6) -0.0009(6) 0.0011(7)
O5 O2- 0.0062(8) 0.0071(8) 0.0049(9) -0.0031(7) 0.0010(6) -0.0017(7)
O6 O2- 0.0044(7) 0.0088(9) 0.0026(7) 0.0013(6) 0.0005(6) 0.0012(7)
O7 O2- 0.0069(8) 0.0079(8) 0.0043(9) 0.0035(7) -0.0020(6) -0.0017(7)
O8 O2- 0.0028(4) 0.0093(5) 0.0060(5) -0.0001(4) -0.0006(5) 0.0005(6)
O9 O2- 0.0066(7) 0.0067(8) 0.0052(9) -0.0025(7) 0.0018(7) -0.0018(8)
O10 O2- 0.0075(8) 0.0070(8) 0.0039(8) -0.0012(7) 0.0011(7) 0.0012(7)
As2 As5+ 0.00244(8) 0.00385(9) 0.00144(9) -0.00024(9) -0.00003(8) 
-0.00044(9)
#End of data_262811-ICSD


