data_419571-ICSD
#?2014 by Fachinformationszentrum Karlsruhe, and the U.S. Secretary of 
#Commerce on behalf of the United States.  All rights reserved.
_database_code_ICSD                419571
_audit_creation_date               2009/08/01
_chemical_name_systematic
;
Disamarium Dipotassium Iridium Heptaoxide
;
_chemical_formula_structural       'Sm2 K2 Ir O7'
_chemical_formula_sum              'Ir1 K2 O7 Sm2'
_publ_section_title
;
Nd2 K2 Ir O7 and Sm2 K2 Ir O7: iridium(VI) oxides prepared under 
ambient pressure
;
loop_
_citation_id
_citation_journal_abbrev
_citation_year
_citation_journal_volume
_citation_journal_issue
_citation_page_first
_citation_page_last
_citation_journal_id_ASTM
primary 'Angewandte Chemie. International Edition' 2009 48 1 215 218 ACIEF5
_publ_author_name
;
Mugavero, S.J.;Smith, M.D.;Yoon Wonsub;zur Loye, H.C.
;
_cell_length_a                     5.7031(1)
_cell_length_b                     5.7031(1)
_cell_length_c                     37.8521(9)
_cell_angle_alpha                  90.00
_cell_angle_beta                   90.00
_cell_angle_gamma                  120.00
_cell_volume                       1066.21
_cell_formula_units_Z              6
_symmetry_space_group_name_H-M     'R -3 c H'
_symmetry_Int_Tables_number        167
_refine_ls_R_factor_all            .0285
loop_
_symmetry_equiv_pos_site_id
_symmetry_equiv_pos_as_xyz
  1	'x-y, -y, -z+.5'
  2	'-x, -x+y, -z+.5'
  3	'y, x, -z+.5'
  4	'x-y, x, -z'
  5	'y, -x+y, -z'
  6	'-x, -y, -z'
  7	'-x+y, y, z+.5'
  8	'x, x-y, z+.5'
  9	'-y, -x, z+.5'
 10	'-x+y, -x, z'
 11	'-y, x-y, z'
 12	'x, y, z'
 13	'x-y+.6666, -y+.3333, -z+.8333'
 14	'x-y+.3333, -y+.6666, -z+.1666'
 15	'-x+.6666, -x+y+.3333, -z+.8333'
 16	'-x+.3333, -x+y+.6666, -z+.1666'
 17	'y+.6666, x+.3333, -z+.8333'
 18	'y+.3333, x+.6666, -z+.1666'
 19	'x-y+.6666, x+.3333, -z+.3333'
 20	'x-y+.3333, x+.6666, -z+.6666'
 21	'y+.6666, -x+y+.3333, -z+.3333'
 22	'y+.3333, -x+y+.6666, -z+.6666'
 23	'-x+.6666, -y+.3333, -z+.3333'
 24	'-x+.3333, -y+.6666, -z+.6666'
 25	'-x+y+.6666, y+.3333, z+.8333'
 26	'-x+y+.3333, y+.6666, z+.1666'
 27	'x+.6666, x-y+.3333, z+.8333'
 28	'x+.3333, x-y+.6666, z+.1666'
 29	'-y+.6666, -x+.3333, z+.8333'
 30	'-y+.3333, -x+.6666, z+.1666'
 31	'-x+y+.6666, -x+.3333, z+.3333'
 32	'-x+y+.3333, -x+.6666, z+.6666'
 33	'-y+.6666, x-y+.3333, z+.3333'
 34	'-y+.3333, x-y+.6666, z+.6666'
 35	'x+.6666, y+.3333, z+.3333'
 36	'x+.3333, y+.6666, z+.6666'
loop_
_atom_type_symbol
_atom_type_oxidation_number
Ir6+	6
K1+	1
O2-	-2
Sm3+	3
loop_
_atom_site_label
_atom_site_type_symbol
_atom_site_symmetry_multiplicity
_atom_site_Wyckoff_symbol
_atom_site_fract_x
_atom_site_fract_y
_atom_site_fract_z
_atom_site_occupancy
_atom_site_attached_hydrogens
_atom_site_U_iso_or_equiv
Ir1 Ir6+ 6 b 0.0000 0.0000 0.0000 1 0 0.00748(12) 
Sm1 Sm3+ 12 c 0.0000 0.0000 0.184806(12) 1 0 0.00936(12) 
K1 K1+ 12 c 0.0000 0.0000 0.08636(6) 1 0 0.0258(5) 
O1 O2- 36 f 0.2534(11) 0.3218(11) 0.02749(12) 1 0 0.0182(9) 
O2 O2- 6 a 0.0000 0.0000 0.2500 1 0 0.022(2) 

loop_
_atom_site_aniso_label
_atom_site_aniso_type_symbol
_atom_site_aniso_U_11
_atom_site_aniso_U_22
_atom_site_aniso_U_33
_atom_site_aniso_U_12
_atom_site_aniso_U_13
_atom_site_aniso_U_23
Ir1 Ir6+ 0.00651(14) 0.00651(14) 0.00942(18) 0.00325(7) 0.000 0.000
Sm1 Sm3+ 0.00910(15) 0.00910(15) 0.00987(18) 0.00455(7) 0.000 0.000
K1 K1+ 0.0334(9) 0.0334(9) 0.0107(8) 0.0167(4) 0.000 0.000
O1 O2- 0.022(3) 0.015(2) 0.0157(18) 0.007(2) -0.0020(19) -0.0032(17)
O2 O2- 0.029(4) 0.029(4) 0.008(4) 0.015(2) 0.000 0.000
#End of data_419571-ICSD


