data_15414-ICSD
#?2014 by Fachinformationszentrum Karlsruhe, and the U.S. Secretary of 
#Commerce on behalf of the United States.  All rights reserved.
_database_code_ICSD                15414
_audit_creation_date               1980/01/01
_audit_update_record               2012/02/01
_chemical_name_systematic          'Dilithium Phyllo-disilicate'
_chemical_formula_structural       'Li2 (Si2 O5)'
_chemical_formula_sum              'Li2 O5 Si2'
_publ_section_title
;
Untersuchungen an Schichtsilikaten des Formeltyps Am (Si2 O5)n. I. 
Die Kristallstruktur der Zimmertemperaturform des Li2 Si2 O5
;
loop_
_citation_id
_citation_journal_abbrev
_citation_year
_citation_journal_volume
_citation_page_first
_citation_page_last
_citation_journal_id_ASTM
primary 'Acta Crystallographica (1,1948-23,1967)' 1961 14 389 395 ACCRA9
_publ_author_name                  'Liebau, F.'
_cell_length_a                     5.82
_cell_length_b                     14.66
_cell_length_c                     4.79
_cell_angle_alpha                  90.
_cell_angle_beta                   90.
_cell_angle_gamma                  90.
_cell_volume                       408.69
_cell_formula_units_Z              4
_symmetry_space_group_name_H-M     'C 1 c 1'
_symmetry_Int_Tables_number        9
_refine_ls_R_factor_all            .088
loop_
_symmetry_equiv_pos_site_id
_symmetry_equiv_pos_as_xyz
  1	'x, -y, z+.5'
  2	'x, y, z'
  3	'x+.5, -y+.5, z+.5'
  4	'x+.5, y+.5, z'
loop_
_atom_type_symbol
_atom_type_oxidation_number
Li1+	1
O2-	-2
Si4+	4
loop_
_atom_site_label
_atom_site_type_symbol
_atom_site_symmetry_multiplicity
_atom_site_Wyckoff_symbol
_atom_site_fract_x
_atom_site_fract_y
_atom_site_fract_z
_atom_site_occupancy
_atom_site_attached_hydrogens
Li1 Li1+ 4 a 0.334 0.055 0.525 1. 0 
Li2 Li1+ 4 a 0.666 0.055 0.025 1. 0 
Si1 Si4+ 4 a 0.1572 0.1485 0.879 1. 0 
Si2 Si4+ 4 a 0.8455 0.1485 0.379 1. 0 
O1 O2- 4 a 0.276 0.25 0.943 1. 0 
O2 O2- 4 a 0.1 0.14 0.54 1. 0 
O3 O2- 4 a 0.9 0.14 0.04 1. 0 
O4 O2- 4 a 0.3325 0.071 0.948 1. 0 
O5 O2- 4 a 0.6675 0.071 0.448 1. 0 

#End of data_15414-ICSD


