data_182536-ICSD
#?2014 by Fachinformationszentrum Karlsruhe, and the U.S. Secretary of 
#Commerce on behalf of the United States.  All rights reserved.
_database_code_ICSD                182536
_audit_creation_date               2012/02/01
_chemical_name_systematic          'Aluminium Trihydride - Gamma'
_chemical_formula_structural       'Al H3'
_chemical_formula_sum              'H3 Al1'
_publ_section_title
;
Stability enhancement by particle size reduction in Al H3
;
loop_
_citation_id
_citation_journal_abbrev
_citation_year
_citation_journal_volume
_citation_page_first
_citation_page_last
_citation_journal_id_ASTM
primary 'Journal of Alloys and Compounds' 2011 509 S662 S666 JALCEU
_publ_author_name
;
Vajeeston, P.;Ravindran, P.;Fjellvag, H.
;
_cell_length_a                     5.4560
_cell_length_b                     7.424
_cell_length_c                     5.8075
_cell_angle_alpha                  90.
_cell_angle_beta                   90.
_cell_angle_gamma                  90.
_cell_volume                       235.23
_cell_formula_units_Z              6
_symmetry_space_group_name_H-M     'P n n m'
_symmetry_Int_Tables_number        58
loop_
_symmetry_equiv_pos_site_id
_symmetry_equiv_pos_as_xyz
  1	'x+.5, -y+.5, z+.5'
  2	'-x+.5, y+.5, z+.5'
  3	'x, y, -z'
  4	'-x, -y, -z'
  5	'-x+.5, y+.5, -z+.5'
  6	'x+.5, -y+.5, -z+.5'
  7	'-x, -y, z'
  8	'x, y, z'
loop_
_atom_type_symbol
_atom_type_oxidation_number
Al3+	3
H1-	-1
loop_
_atom_site_label
_atom_site_type_symbol
_atom_site_symmetry_multiplicity
_atom_site_Wyckoff_symbol
_atom_site_fract_x
_atom_site_fract_y
_atom_site_fract_z
_atom_site_occupancy
_atom_site_attached_hydrogens
Al1 Al3+ 2 b 0 0 0.5 1. 0 
Al2 Al3+ 4 g 0.7887 0.085 0 1. 0 
H1 H1- 2 d 0 0.5 0.5 1. 0 
H2 H1- 4 g 0.6737 0.2998 0 1. 0 
H3 H1- 4 g 0.0977 0.1383 0 1. 0 
H4 H1- 8 h 0.7992 0.0834 0.2979 1. 0 

#End of data_182536-ICSD


