data_93409-ICSD
#?2014 by Fachinformationszentrum Karlsruhe, and the U.S. Secretary of 
#Commerce on behalf of the United States.  All rights reserved.
_database_code_ICSD                93409
_audit_creation_date               2003/04/01
_chemical_name_systematic
;
Dicopper(I) Zinc Germanium Selenide
;
_chemical_formula_structural       'Cu2 Zn Ge Se4'
_chemical_formula_sum              'Cu2 Ge1 Se4 Zn1'
_publ_section_title
;
Phase diagram of the Cu2 Ge Se3 - Zn Se system and crystal structure 
of the Cu2 Zn Ge Se4 compound
;
loop_
_citation_id
_citation_journal_abbrev
_citation_year
_citation_journal_volume
_citation_page_first
_citation_page_last
_citation_journal_id_ASTM
primary 'Journal of Alloys and Compounds' 2001 329 202 207 JALCEU
_publ_author_name
;
Parasyuk, O.V.;Gulay, L.D.;Romanyuk, Ya.E.;Piskach, L.V.
;
_cell_length_a                     5.61043(8)
_cell_length_b                     5.61043(8)
_cell_length_c                     11.0457(3)
_cell_angle_alpha                  90
_cell_angle_beta                   90
_cell_angle_gamma                  90
_cell_volume                       347.68
_cell_formula_units_Z              2
_symmetry_space_group_name_H-M     'I -4 2 m'
_symmetry_Int_Tables_number        121
_refine_ls_R_factor_all            .067
loop_
_symmetry_equiv_pos_site_id
_symmetry_equiv_pos_as_xyz
  1	'-y, -x, z'
  2	'y, x, z'
  3	'y, -x, -z'
  4	'-y, x, -z'
  5	'x, -y, -z'
  6	'-x, y, -z'
  7	'-x, -y, z'
  8	'x, y, z'
  9	'-y+.5, -x+.5, z+.5'
 10	'y+.5, x+.5, z+.5'
 11	'y+.5, -x+.5, -z+.5'
 12	'-y+.5, x+.5, -z+.5'
 13	'x+.5, -y+.5, -z+.5'
 14	'-x+.5, y+.5, -z+.5'
 15	'-x+.5, -y+.5, z+.5'
 16	'x+.5, y+.5, z+.5'
loop_
_atom_type_symbol
_atom_type_oxidation_number
Cu1+	1
Ge4+	4
Se2-	-2
Zn2+	2
loop_
_atom_site_label
_atom_site_type_symbol
_atom_site_symmetry_multiplicity
_atom_site_Wyckoff_symbol
_atom_site_fract_x
_atom_site_fract_y
_atom_site_fract_z
_atom_site_occupancy
_atom_site_attached_hydrogens
_atom_site_B_iso_or_equiv
Cu1 Cu1+ 4 d 0.5 0 0.250 1. 0 1.0(2) 
Zn1 Zn2+ 2 a 0 0 0 1. 0 0.4(3) 
Ge1 Ge4+ 2 b 0 0 0.5 1. 0 0.8(3) 
Se1 Se2- 8 i 0.2557(3) 0.2557(3) 0.1237(6) 1. 0 0.16(5) 

#End of data_93409-ICSD


