data_73664-ICSD
#?2014 by Fachinformationszentrum Karlsruhe, and the U.S. Secretary of 
#Commerce on behalf of the United States.  All rights reserved.
_database_code_ICSD                73664
_audit_creation_date               1994/06/30
_audit_update_record               2006/04/01
_chemical_name_systematic          'Potassium Tecto-alumodisilicate'
_chemical_formula_structural       'K (Al Si2 O6)'
_chemical_formula_sum              'Al1 K1 O6 Si2'
_chemical_name_mineral             'Leucite low'
_publ_section_title
;
On the role of Al-Si ordering in the cubic-tetragonal phase 
transition of leucite
;
loop_
_citation_id
_citation_journal_abbrev
_citation_year
_citation_journal_volume
_citation_page_first
_citation_page_last
_citation_journal_id_ASTM
primary 'American Mineralogist' 1993 78 486 492 AMMIAY
2 'Golden Book of Phase Transitions, Wroclaw' 2002 1 1 123 GBOPT5
_publ_author_name
;
Dove, M.T.;Cool, T.;Palmer, D.C.;Putnis, A.;Salje, E.K.H.;Winkler, B.
;
_cell_length_a                     12.931
_cell_length_b                     12.931
_cell_length_c                     13.812
_cell_angle_alpha                  90.
_cell_angle_beta                   90.
_cell_angle_gamma                  90.
_cell_volume                       2309.52
_cell_formula_units_Z              16
_symmetry_space_group_name_H-M     'I 41/a Z'
_symmetry_Int_Tables_number        88
loop_
_symmetry_equiv_pos_site_id
_symmetry_equiv_pos_as_xyz
  1	'-y+.75, x+.75, -z+.75'
  2	'y+.25, -x+.75, -z+.75'
  3	'x, y+.5, -z'
  4	'-x, -y, -z'
  5	'y+.25, -x+.25, z+.25'
  6	'-y+.75, x+.25, z+.25'
  7	'-x, -y+.5, z'
  8	'x, y, z'
  9	'-y+.25, x+.25, -z+.25'
 10	'y+.75, -x+.25, -z+.25'
 11	'x+.5, y, -z+.5'
 12	'-x+.5, -y+.5, -z+.5'
 13	'y+.75, -x+.75, z+.75'
 14	'-y+.25, x+.75, z+.75'
 15	'-x+.5, -y, z+.5'
 16	'x+.5, y+.5, z+.5'
loop_
_atom_type_symbol
_atom_type_oxidation_number
Al3+	3
K1+	1
O2-	-2
Si4+	4
loop_
_atom_site_label
_atom_site_type_symbol
_atom_site_symmetry_multiplicity
_atom_site_Wyckoff_symbol
_atom_site_fract_x
_atom_site_fract_y
_atom_site_fract_z
_atom_site_occupancy
_atom_site_attached_hydrogens
K1 K1+ 16 f 0.3713 0.3568 0.1129 1. 0 
Si1 Si4+ 16 f 0.0556 0.396 0.1681 1. 0 
Al1 Al3+ 16 f 0.1698 0.6098 0.1267 1. 0 
Si2 Si4+ 16 f 0.3978 0.6361 0.0844 1. 0 
O1 O2- 16 f 0.1296 0.3154 0.1097 1. 0 
O2 O2- 16 f 0.0867 0.5076 0.1328 1. 0 
O3 O2- 16 f 0.1429 0.6857 0.2281 1. 0 
O4 O2- 16 f 0.1299 0.6868 0.032 1. 0 
O5 O2- 16 f 0.2994 0.57 0.1183 1. 0 
O6 O2- 16 f 0.4899 0.6167 0.1636 1. 0 

#End of data_73664-ICSD


