data_72643-ICSD
#?2014 by Fachinformationszentrum Karlsruhe, and the U.S. Secretary of 
#Commerce on behalf of the United States.  All rights reserved.
_database_code_ICSD                72643
_audit_creation_date               1994/01/19
_chemical_name_systematic
;
Potassium Tetramanganese Manganese(III) Hexakis(selenate(IV))
;
_chemical_formula_structural       'K Mn4 Mn (Se O3)6'
_chemical_formula_sum              'K1 Mn5 O18 Se6'
_publ_section_title
;
Synthesis and crystal structures of the new alkaline-Mn(II)Mn(III) 
selenites KMn(II)4Mn(III)(SeO3)6 and Li5Mn(II)4Mn(III)(SeO3)8
;
loop_
_citation_id
_citation_journal_abbrev
_citation_year
_citation_journal_volume
_citation_page_first
_citation_page_last
_citation_journal_id_ASTM
primary 'Journal of Solid State Chemistry' 1993 103 341 352 JSSCBI
_publ_author_name                  'Wildner, M.'
_cell_length_a                     17.660(3)
_cell_length_b                     10.240(1)
_cell_length_c                     9.582(1)
_cell_angle_alpha                  90.
_cell_angle_beta                   91.32(1)
_cell_angle_gamma                  90.
_cell_volume                       1732.33
_cell_formula_units_Z              4
_symmetry_space_group_name_H-M     'C 1 2/c 1'
_symmetry_Int_Tables_number        15
_refine_ls_R_factor_all            .043
loop_
_symmetry_equiv_pos_site_id
_symmetry_equiv_pos_as_xyz
  1	'x, -y, z+.5'
  2	'-x, -y, -z'
  3	'-x, y, -z+.5'
  4	'x, y, z'
  5	'x+.5, -y+.5, z+.5'
  6	'-x+.5, -y+.5, -z'
  7	'-x+.5, y+.5, -z+.5'
  8	'x+.5, y+.5, z'
loop_
_atom_type_symbol
_atom_type_oxidation_number
K1+	1
Mn2+	2
Mn3+	3
O2-	-2
Se4+	4
loop_
_atom_site_label
_atom_site_type_symbol
_atom_site_symmetry_multiplicity
_atom_site_Wyckoff_symbol
_atom_site_fract_x
_atom_site_fract_y
_atom_site_fract_z
_atom_site_occupancy
_atom_site_attached_hydrogens
K1 K1+ 4 e 0 0.00113(20) 0.75 1. 0 
Mn1 Mn2+ 8 f 0.66917(5) 0.00026(7) 0.16195(8) 1. 0 
Mn2 Mn2+ 8 f 0.31459(5) 0.68748(7) 0.25137(9) 1. 0 
Mn3 Mn3+ 4 e 0 0.38456(10) 0.75 1. 0 
Se1 Se4+ 8 f 0.19213(3) 0.11541(5) 0.58464(5) 1. 0 
Se2 Se4+ 8 f 0.03519(3) 0.64949(5) 0.91515(5) 1. 0 
Se3 Se4+ 8 f 0.34961(3) 0.26337(5) 0.09084(5) 1. 0 
O1 O2- 8 f 0.2283(2) 0.6220(3) 0.8129(4) 1. 0 
O2 O2- 8 f 0.1470(2) 0.0199(4) 0.1375(4) 1. 0 
O3 O2- 8 f 0.7710(2) 0.9257(4) 0.5723(4) 1. 0 
O4 O2- 8 f 0.9294(2) 0.4766(4) 0.1859(4) 1. 0 
O5 O2- 8 f 0.9236(2) 0.6098(3) 0.4290(4) 1. 0 
O6 O2- 8 f 0.0826(2) 0.2207(3) 0.3570(4) 1. 0 
O7 O2- 8 f 0.3027(2) 0.1543(3) 0.1881(4) 1. 0 
O8 O2- 8 f 0.3492(3) 0.8105(4) 0.4326(4) 1. 0 
O9 O2- 8 f 0.9414(2) 0.2483(4) 0.6527(4) 1. 0 

loop_
_atom_site_aniso_label
_atom_site_aniso_type_symbol
_atom_site_aniso_U_11
_atom_site_aniso_U_22
_atom_site_aniso_U_33
_atom_site_aniso_U_12
_atom_site_aniso_U_13
_atom_site_aniso_U_23
K1 K1+ 0.0263(11) 0.0278(9) 0.0524(14) 0 -.0006(9) 0
Mn1 Mn2+ 0.0169(4) 0.0166(3) 0.0179(4) 0.0000(3) -.0031(3) -.0001(3)
Mn2 Mn2+ 0.0177(4) 0.0172(3) 0.0139(4) -.0006(3) -.0017(3) -.0003(2)
Mn3 Mn3+ 0.0154(5) 0.0176(5) 0.0127(5) 0 -.0022(4) 0
Se1 Se4+ 0.0167(2) 0.0163(2) 0.0136(2) 0.0013(2) -.0022(2) -.0003(2)
Se2 Se4+ 0.0161(2) 0.0170(2) 0.0128(2) 0.0008(2) -.0023(2) -.0004(2)
Se3 Se4+ 0.0170(3) 0.0156(2) 0.0142(2) 0.0000(2) -.0005(2) -.0007(2)
O1 O2- 0.0171(19) 0.0191(17) 0.0219(19) 0.0017(14) -.0085(15) -.0006(13)
O2 O2- 0.0176(20) 0.0193(17) 0.0272(22) 0.0021(14) 0.0023(15) -.0032(14)
O3 O2- 0.0228(21) 0.0237(18) 0.0166(19) 0.0065(15) 0.0040(15) 0.0001(13)
O4 O2- 0.0182(20) 0.0203(17) 0.0202(19) -.0013(14) 0.0011(14) -.0044(13)
O5 O2- 0.0195(20) 0.0238(17) 0.0145(17) -.0041(15) -.0030(14) -.0020(13)
O6 O2- 0.0244(21) 0.0187(17) 0.0200(19) -.0024(15) -.0003(15) -.0037(13)
O7 O2- 0.0236(22) 0.0207(17) 0.0178(18) 0.0038(15) 0.0045(15) 0.0061(13)
O8 O2- 0.0294(23) 0.0186(16) 0.0153(18) -.0017(15) -.0059(16) 0.0039(13)
O9 O2- 0.0202(21) 0.0239(18) 0.0208(19) 0.0051(15) -.0022(15) 0.0009(14)
#End of data_72643-ICSD


