data_31941-ICSD
#?2014 by Fachinformationszentrum Karlsruhe, and the U.S. Secretary of 
#Commerce on behalf of the United States.  All rights reserved.
_database_code_ICSD                31941
_audit_creation_date               1980/01/01
_audit_update_record               2007/04/01
_chemical_name_systematic          'Dilithium Zirconium Oxide'
_chemical_formula_structural       'Li2 Zr O3'
_chemical_formula_sum              'Li2 O3 Zr1'
_publ_section_title
;
Die Kristallstruktur von Li2 Zr O3 und Li2 Hf O3
;
loop_
_citation_id
_citation_journal_abbrev
_citation_year
_citation_journal_volume
_citation_page_first
_citation_page_last
_citation_journal_id_ASTM
primary 'Zeitschrift fuer Anorganische und Allgemeine Chemie (1950) (DE)'
 1969 371 306 317 ZAACAB
2 'Journal of Solid State Chemistry' 1982 45 170 179 JSSCBI
_publ_author_name                  'Dittrich, G.;Hoppe, R.'
_cell_length_a                     5.427
_cell_length_b                     9.025
_cell_length_c                     5.427
_cell_angle_alpha                  90.
_cell_angle_beta                   112.75
_cell_angle_gamma                  90.
_cell_volume                       245.13
_cell_formula_units_Z              4
_symmetry_space_group_name_H-M     'C 1 c 1'
_symmetry_Int_Tables_number        9
_refine_ls_R_factor_all            .068
loop_
_symmetry_equiv_pos_site_id
_symmetry_equiv_pos_as_xyz
  1	'x, -y, z+.5'
  2	'x, y, z'
  3	'x+.5, -y+.5, z+.5'
  4	'x+.5, y+.5, z'
loop_
_atom_type_symbol
_atom_type_oxidation_number
Li1+	1
O2-	-2
Zr4+	4
loop_
_atom_site_label
_atom_site_type_symbol
_atom_site_symmetry_multiplicity
_atom_site_Wyckoff_symbol
_atom_site_fract_x
_atom_site_fract_y
_atom_site_fract_z
_atom_site_occupancy
_atom_site_attached_hydrogens
_atom_site_B_iso_or_equiv
Zr1 Zr4+ 4 a 0 0.0916(4) 0 1. 0 0.873 
O1 O2- 4 a 0.216(6) 0.261(8) 0.230(7) 1. 0 0.37 
O2 O2- 4 a 0.265(6) 0.555(4) 0.216(5) 1. 0 -.297 
O3 O2- 4 a 0.216(6) 0.908(4) 0.250(6) 1. 0 0.358 
Li1 Li1+ 4 a 0 0.42 0 1. 0 0 
Li2 Li1+ 4 a 0 0.75 0 1. 0 0 

#End of data_31941-ICSD


