data_248316-ICSD
#?2014 by Fachinformationszentrum Karlsruhe, and the U.S. Secretary of 
#Commerce on behalf of the United States.  All rights reserved.
_database_code_ICSD                248316
_audit_creation_date               2014/08/01
_chemical_name_systematic
;
Nonapotassium Triyttrium Dodecasilicate Difluoride
;
_chemical_formula_structural       'K9 Y3 (Si12 O32) F2'
_chemical_formula_sum              'F2 K9 O32 Si12 Y3'
_publ_section_title                'K9 Y3 [Si12 O32] F2'
loop_
_citation_id
_citation_journal_abbrev
_citation_year
_citation_journal_volume
_citation_journal_issue
_citation_page_first
_citation_page_last
_citation_journal_id_ASTM
primary 'Acta Crystallographica, Section E. Structure Reports Online'
 2014 70 2 i11 i11 ACSEBH
_publ_author_name                  'V. Kahlenberg;T. Manninger'
_cell_length_a                     6.8187(3)
_cell_length_b                     11.3345(4)
_cell_length_c                     11.3727(5)
_cell_angle_alpha                  87.846(3)
_cell_angle_beta                   89.747(4)
_cell_angle_gamma                  80.524(3)
_cell_volume                       866.34
_cell_formula_units_Z              1
_symmetry_space_group_name_H-M     'P -1'
_symmetry_Int_Tables_number        2
_refine_ls_R_factor_all            .0392
loop_
_symmetry_equiv_pos_site_id
_symmetry_equiv_pos_as_xyz
  1	'-x, -y, -z'
  2	'x, y, z'
loop_
_atom_type_symbol
_atom_type_oxidation_number
F1-	-1
K1+	1
O2-	-2
Si4+	4
Y3+	3
loop_
_atom_site_label
_atom_site_type_symbol
_atom_site_symmetry_multiplicity
_atom_site_Wyckoff_symbol
_atom_site_fract_x
_atom_site_fract_y
_atom_site_fract_z
_atom_site_occupancy
_atom_site_attached_hydrogens
_atom_site_U_iso_or_equiv
K1 K1+ 2 i 0.2651(3) -0.38667(12) 0.01644(15) 1 0 0.0222(4) 
K2 K1+ 2 i 0.1715(2) -0.19454(12) -0.22364(14) 1 0 0.0184(4) 
K3 K1+ 2 i 0.1624(3) -0.15506(14) 0.21410(15) 1 0 0.0277(4) 
K4 K1+ 1 d 0.5 0 0 1 0 0.0334(6) 
K5 K1+ 2 i 0.0227(2) 0.33078(11) 0.51133(13) 1 0 0.0161(3) 
F1 F1- 2 i 0.2472(7) -0.1589(3) -0.0048(4) 1 0 0.0256(10) 
Y1 Y3+ 1 b 0 0 0.5 1 0 0.0068(2) 
Y2 Y3+ 2 i 0.48856(9) 0.48851(5) 0.33734(5) 1 0 0.00691(17) 
Si1 Si4+ 2 i 0.5571(3) 0.23257(13) 0.51056(15) 1 0 0.0072(4) 
Si2 Si4+ 2 i 0.3376(3) 0.13524(14) 0.31036(16) 1 0 0.0077(4) 
Si3 Si4+ 2 i 0.6564(3) -0.09115(13) 0.30291(15) 1 0 0.0071(4) 
Si4 Si4+ 2 i 0.6897(3) -0.30506(13) 0.15893(16) 1 0 0.0076(4) 
Si5 Si4+ 2 i -0.0138(3) -0.51249(14) 0.25833(15) 1 0 0.0077(4) 
Si6 Si4+ 2 i 0.2872(3) -0.66727(14) 0.12015(16) 1 0 0.0079(4) 
O1 O2- 2 i 0.5290(7) 0.3756(3) 0.5151(4) 1 0 0.0115(10) 
O2 O2- 2 i 0.4907(6) 0.2083(3) 0.3742(4) 1 0 0.0113(10) 
O3 O2- 2 i 0.3903(6) 0.1857(3) 0.5954(4) 1 0 0.0097(9) 
O4 O2- 2 i 0.7743(6) 0.1627(3) 0.5395(4) 1 0 0.0107(10) 
O5 O2- 2 i 0.1448(7) 0.1240(3) 0.3837(4) 1 0 0.0125(10) 
O6 O2- 2 i 0.2791(7) 0.2030(3) 0.1831(4) 1 0 0.0129(10) 
O7 O2- 2 i 0.4575(7) 0.0054(3) 0.2739(4) 1 0 0.0132(10) 
O8 O2- 2 i 0.6920(7) -0.1638(3) 0.1818(4) 1 0 0.0102(10) 
O9 O2- 2 i 0.8444(7) -0.0336(3) 0.3338(4) 1 0 0.0114(10) 
O10 O2- 2 i 0.9033(7) -0.3743(3) 0.2102(4) 1 0 0.0139(10) 
O11 O2- 2 i 0.6983(7) -0.3156(3) 0.0189(4) 1 0 0.0169(11) 
O12 O2- 2 i 0.5030(7) -0.3527(3) 0.2148(4) 1 0 0.0123(10) 
O13 O2- 2 i 0.1635(7) -0.5084(3) 0.3462(4) 1 0 0.0114(10) 
O14 O2- 2 i -0.1887(6) -0.5722(3) 0.3149(4) 1 0 0.0121(10) 
O15 O2- 2 i 0.0686(7) -0.5849(3) 0.1393(4) 1 0 0.0131(10) 
O16 O2- 2 i 0.4610(7) -0.6045(3) 0.1658(4) 1 0 0.0123(10) 

loop_
_atom_site_aniso_label
_atom_site_aniso_type_symbol
_atom_site_aniso_U_11
_atom_site_aniso_U_22
_atom_site_aniso_U_33
_atom_site_aniso_U_12
_atom_site_aniso_U_13
_atom_site_aniso_U_23
K1 K1+ 0.0222(9) 0.0215(8) 0.0233(10) -0.0056(6) 0.0004(7) 0.0030(6)
K2 K1+ 0.0165(9) 0.0192(7) 0.0197(9) -0.0036(6) 0.0005(7) 0.0013(6)
K3 K1+ 0.0204(10) 0.0421(10) 0.0197(9) -0.0011(7) 0.0057(8) -0.0068(7)
K4 K1+ 0.0395(17) 0.0363(13) 0.0280(15) -0.0195(11) -0.0105(12) 0.0117(10)
K5 K1+ 0.0190(9) 0.0132(7) 0.0158(9) -0.0020(6) 0.0035(7) -0.0012(5)
F1 F1- 0.030(3) 0.026(2) 0.022(2) -0.0079(18) 0.004(2) -0.0013(17)
Y1 Y3+ 0.0038(5) 0.0078(4) 0.0086(5) -0.0007(3) 0.0021(4) -0.0001(3)
Y2 Y3+ 0.0032(3) 0.0093(3) 0.0082(3) -0.0010(2) 0.0010(2) 0.0001(2)
Si1 Si4+ 0.0056(10) 0.0072(8) 0.0087(10) -0.0010(6) 0.0009(7) 0.0006(6)
Si2 Si4+ 0.0053(10) 0.0080(8) 0.0099(9) -0.0017(6) 0.0002(7) -0.0003(6)
Si3 Si4+ 0.0038(9) 0.0078(8) 0.0101(10) -0.0015(6) 0.0015(7) -0.0010(6)
Si4 Si4+ 0.0064(10) 0.0076(8) 0.0089(9) -0.0012(6) 0.0010(7) -0.0011(6)
Si5 Si4+ 0.0035(9) 0.0104(8) 0.0087(9) 0.0002(6) 0.0009(7) -0.0005(6)
Si6 Si4+ 0.0072(10) 0.0084(8) 0.0081(10) -0.0014(6) 0.0014(7) -0.0006(6)
O1 O2- 0.017(3) 0.006(2) 0.011(3) -0.0005(17) 0.002(2) -0.0002(16)
O2 O2- 0.008(3) 0.014(2) 0.014(3) -0.0057(17) -0.001(2) -0.0002(17)
O3 O2- 0.009(3) 0.012(2) 0.008(2) -0.0029(17) 0.0027(19) -0.0004(17)
O4 O2- 0.005(2) 0.016(2) 0.011(3) -0.0002(17) 0.0034(19) 0.0001(17)
O5 O2- 0.010(3) 0.013(2) 0.016(3) -0.0037(17) 0.000(2) -0.0016(17)
O6 O2- 0.018(3) 0.012(2) 0.010(3) -0.0063(18) 0.001(2) 0.0035(17)
O7 O2- 0.008(3) 0.009(2) 0.021(3) 0.0039(17) -0.001(2) -0.0031(18)
O8 O2- 0.015(3) 0.007(2) 0.008(2) -0.0011(17) 0.003(2) 0.0002(16)
O9 O2- 0.008(3) 0.016(2) 0.011(3) -0.0053(18) -0.0006(19) 0.0005(17)
O10 O2- 0.004(2) 0.012(2) 0.025(3) -0.0003(17) -0.003(2) 0.0032(18)
O11 O2- 0.022(3) 0.014(2) 0.015(3) -0.0024(19) 0.004(2) -0.0052(18)
O12 O2- 0.009(3) 0.010(2) 0.017(3) -0.0022(17) 0.004(2) 0.0013(17)
O13 O2- 0.006(2) 0.017(2) 0.011(3) -0.0028(17) 0.002(2) 0.0005(17)
O14 O2- 0.004(2) 0.013(2) 0.019(3) -0.0020(17) -0.001(2) 0.0021(18)
O15 O2- 0.007(3) 0.018(2) 0.013(3) 0.0015(18) 0.002(2) -0.0040(18)
O16 O2- 0.006(3) 0.017(2) 0.015(3) -0.0054(17) 0.003(2) -0.0045(17)
#End of data_248316-ICSD


