data_72472-ICSD
#?2014 by Fachinformationszentrum Karlsruhe, and the U.S. Secretary of 
#Commerce on behalf of the United States.  All rights reserved.
_database_code_ICSD                72472
_audit_creation_date               1994/01/19
_chemical_name_systematic
;
Potassium Catena-fluorostannate(II)
;
_chemical_formula_structural       'K (Sn F3)'
_chemical_formula_sum              'F3 K1 Sn1'
_publ_section_title
;
Crystal structures of MSnF3 for M=K, Rb, Tl; ionic mobility
;
loop_
_citation_id
_citation_journal_abbrev
_citation_year
_citation_journal_volume
_citation_page_first
_citation_page_last
_citation_journal_id_ASTM
primary 'European Journal of Solid State Inorganic Chemistry'
 1993 30 87 99 EJSCE5
_publ_author_name
;
Foulon, J.D.;Durand, J.;Larbot, A.;Cot, L.;Soufiane, A.
;
_cell_length_a                     8.080(1)
_cell_length_b                     9.975(2)
_cell_length_c                     10.321(2)
_cell_angle_alpha                  80.02(1)
_cell_angle_beta                   72.39(1)
_cell_angle_gamma                  74.50(1)
_cell_volume                       760.15
_cell_formula_units_Z              8
_symmetry_space_group_name_H-M     'P -1'
_symmetry_Int_Tables_number        2
_refine_ls_R_factor_all            .031
loop_
_symmetry_equiv_pos_site_id
_symmetry_equiv_pos_as_xyz
  1	'-x, -y, -z'
  2	'x, y, z'
loop_
_atom_type_symbol
_atom_type_oxidation_number
F1-	-1
K1+	1
Sn2+	2
loop_
_atom_site_label
_atom_site_type_symbol
_atom_site_symmetry_multiplicity
_atom_site_Wyckoff_symbol
_atom_site_fract_x
_atom_site_fract_y
_atom_site_fract_z
_atom_site_occupancy
_atom_site_attached_hydrogens
_atom_site_U_iso_or_equiv
Sn1 Sn2+ 2 i 0.2094(1) 0.7782(1) 0.7396(1) 1. 0 0.0210(2) 
Sn2 Sn2+ 2 i 0.7225(1) 0.7510(1) 0.7500(1) 1. 0 0.0200(2) 
Sn3 Sn2+ 2 i 0.9729(1) 0.3569(1) 0.8693(1) 1. 0 0.0180(2) 
Sn4 Sn2+ 2 i 0.4608(1) 0.3773(1) 0.8559(1) 1. 0 0.0190(2) 
K1 K1+ 2 i 0.2605(2) 0.9767(1) 0.0099(1) 1. 0 0.024(1) 
K2 K1+ 2 i 0.2536(2) 0.4885(1) 0.5087(1) 1. 0 0.023(1) 
K3 K1+ 2 i 0.9475(2) 0.1496(1) 0.6069(2) 1. 0 0.024(1) 
K4 K1+ 2 i 0.4568(2) 0.1230(2) 0.6300(2) 1. 0 0.034(1) 
F1 F1- 2 i 0.0566(5) 0.7045(4) 0.6439(4) 1. 0 0.032(2) 
F2 F1- 2 i 0.4575(5) 0.8718(2) 0.7666(4) 1. 0 0.031(2) 
F3 F1- 2 i 0.2319(6) 0.9222(4) 0.5759(4) 1. 0 0.033(2) 
F4 F1- 2 i 0.4180(5) 0.6433(4) 0.6320(5) 1. 0 0.035(2) 
F5 F1- 2 i 0.7438(5) 0.7783(4) 0.5470(4) 1. 0 0.029(2) 
F6 F1- 2 i 0.7801(6) 0.9391(4) 0.7433(4) 1. 0 0.033(2) 
F7 F1- 2 i 0.7182(5) 0.2905(4) 0.9064(5) 1. 0 0.039(3) 
F8 F1- 2 i 0.2547(5) 0.3579(4) 0.7539(4) 1. 0 0.032(2) 
F9 F1- 2 i -.0528(5) 0.4024(4) 0.6757(4) 1. 0 0.025(2) 
F10 F1- 2 i 0.0616(6) 0.1480(4) 0.8424(4) 1. 0 0.034(3) 
F11 F1- 2 i 0.4355(5) 0.1773(4) 0.9272(4) 1. 0 0.033(2) 
F12 F1- 2 i 0.6121(5) 0.3101(4) 0.6743(4) 1. 0 0.025(2) 

#End of data_72472-ICSD


