data_627799-ICSD
#?2014 by Fachinformationszentrum Karlsruhe, and the U.S. Secretary of 
#Commerce on behalf of the United States.  All rights reserved.
_database_code_ICSD                627799
_audit_creation_date               2013/02/01
_chemical_name_systematic
;
Dicopper(I) Zinc Tetrathiogermanate
;
_chemical_formula_structural       'Cu2 Zn (Ge S4)'
_chemical_formula_sum              'Cu2 Ge1 S4 Zn1'
_publ_section_title
;
Tetrahedral quaternary chalcogenides of the type Cu2-II-IV-S4 (Se4)
;
loop_
_citation_id
_citation_journal_abbrev
_citation_year
_citation_journal_volume
_citation_page_first
_citation_page_last
_citation_journal_id_ASTM
primary 'Materials Research Bulletin' 1974 9 645 654 MRBUAC
2 'Materials Research Bulletin' 1977 12 111 114 MRBUAC
3 'Materials Research Bulletin' 1979 14 463 467 MRBUAC
4 'Materials Research Bulletin' 1988 23 307 312 MRBUAC
_publ_author_name                  'Schaefer, W.;Nitsche, R.'
_cell_length_a                     7.504
_cell_length_b                     6.474
_cell_length_c                     6.185
_cell_angle_alpha                  90.0
_cell_angle_beta                   90.0
_cell_angle_gamma                  90.0
_cell_volume                       300.47
_cell_formula_units_Z              2
_symmetry_space_group_name_H-M     'P m n 21'
_symmetry_Int_Tables_number        31
loop_
_symmetry_equiv_pos_site_id
_symmetry_equiv_pos_as_xyz
  1	'x+.5, -y, z+.5'
  2	'-x+.5, -y, z+.5'
  3	'-x, y, z'
  4	'x, y, z'
loop_
_atom_type_symbol
_atom_type_oxidation_number
Cu1+	1
Ge4+	4
S2-	-2
Zn2+	2
loop_
_atom_site_label
_atom_site_type_symbol
_atom_site_symmetry_multiplicity
_atom_site_Wyckoff_symbol
_atom_site_fract_x
_atom_site_fract_y
_atom_site_fract_z
_atom_site_occupancy
_atom_site_attached_hydrogens
Zn1 Zn2+ 2 a 0 0.153 0.500 1. 0 
Cu1 Cu1+ 4 b 0.248 0.326 0.992 1. 0 
Ge1 Ge4+ 2 a 0 0.828 0 1. 0 
S1 S2- 2 a 0 0.822 0.641 1. 0 
S2 S2- 2 a 0 0.147 0.126 1. 0 
S3 S2- 4 b 0.256 0.335 0.620 1. 0 

#End of data_627799-ICSD


