data_172992-ICSD
#?2014 by Fachinformationszentrum Karlsruhe, and the U.S. Secretary of 
#Commerce on behalf of the United States.  All rights reserved.
_database_code_ICSD                172992
_audit_creation_date               2008/02/01
_chemical_name_systematic          'Magnesium Dichloride Dihydrate'
_chemical_formula_structural       '(Mg Cl2) (H2 O)2'
_chemical_formula_sum              'H4 Cl2 Mg1 O2'
_publ_section_title
;
Structures of three dehydration products of bischofite from in situ 
synchrotron powder diffraction data, (Mg Cl2.nH2 O; n = 1, 2, 4)
;
loop_
_citation_id
_citation_journal_abbrev
_citation_year
_citation_journal_volume
_citation_journal_issue
_citation_page_first
_citation_page_last
_citation_journal_id_ASTM
primary 'Acta Crystallographica, Section B: Structural Science'
 2007 63 2 235 242 ASBSDK
_publ_author_name
;
Sugimoto, K.;Dinnebier, R.E.;Hanson, J.C.
;
_cell_length_a                     7.4279(4)
_cell_length_b                     8.5736(4)
_cell_length_c                     3.65065(16)
_cell_angle_alpha                  90.0
_cell_angle_beta                   98.580(2)
_cell_angle_gamma                  90.0
_cell_volume                       229.89
_cell_formula_units_Z              2
_symmetry_space_group_name_H-M     'C 1 2/m 1'
_symmetry_Int_Tables_number        12
_refine_ls_R_factor_all            .01
loop_
_symmetry_equiv_pos_site_id
_symmetry_equiv_pos_as_xyz
  1	'-x, y, -z'
  2	'-x, -y, -z'
  3	'x, -y, z'
  4	'x, y, z'
  5	'-x+.5, y+.5, -z'
  6	'-x+.5, -y+.5, -z'
  7	'x+.5, -y+.5, z'
  8	'x+.5, y+.5, z'
loop_
_atom_type_symbol
_atom_type_oxidation_number
Cl1-	-1
H1+	1
Mg2+	2
O2-	-2
loop_
_atom_site_label
_atom_site_type_symbol
_atom_site_symmetry_multiplicity
_atom_site_Wyckoff_symbol
_atom_site_fract_x
_atom_site_fract_y
_atom_site_fract_z
_atom_site_occupancy
_atom_site_attached_hydrogens
_atom_site_U_iso_or_equiv
Mg1 Mg2+ 2 a 0.0 0.0 0.0 1.0 0 0.0329(13) 
Cl1 Cl1- 4 i 0.23723(18) 0.0 0.5588(4) 1.0 0 0.0393(9) 
O1 O2- 4 g 0.0 0.2342(4) 0.0 1.0 0 0.0310(11) 
H1 H1+ 8 j 0.10575(5) 0.3038(4) 0.023(6) 1.0 0 0.0312(14) 

#End of data_172992-ICSD


