data_35652-ICSD
#?2014 by Fachinformationszentrum Karlsruhe, and the U.S. Secretary of 
#Commerce on behalf of the United States.  All rights reserved.
_database_code_ICSD                35652
_audit_creation_date               1983/12/31
_audit_update_record               2012/02/01
_chemical_name_systematic
;
Zinc Silver Tris(catena-phosphate(V))
;
_chemical_formula_structural       'Zn Ag (P O3)3'
_chemical_formula_sum              'Ag1 O9 P3 Zn1'
_publ_section_title
;
Crystal chemistry of M(II) Ag (P O3)3 polyphosphates for M(II)= Zn, 
Co, Ni, Mg and M(II)4 Na4 (P4 O12)3 tetrametaphosphates for M(II)= 
Zn, Co, Ni: Crystal structures of Zn Ag (P O3)3 and Zn4 Na4 (P4 O12)3
;
loop_
_citation_id
_citation_journal_abbrev
_citation_year
_citation_journal_volume
_citation_page_first
_citation_page_last
_citation_journal_id_ASTM
primary 'Journal of Solid State Chemistry' 1983 49 341 352 JSSCBI
_publ_author_name                  'Averbuch-Pouchot, M.T.;Durif, A.'
_cell_length_a                     13.95
_cell_length_b                     10.735
_cell_length_c                     9.951
_cell_angle_alpha                  90.
_cell_angle_beta                   90.
_cell_angle_gamma                  90.
_cell_volume                       1490.19
_cell_formula_units_Z              8
_symmetry_space_group_name_H-M     'P c c a'
_symmetry_Int_Tables_number        54
_refine_ls_R_factor_all            .024
loop_
_symmetry_equiv_pos_site_id
_symmetry_equiv_pos_as_xyz
  1	'x, -y, z+.5'
  2	'-x+.5, y, z+.5'
  3	'x+.5, y, -z'
  4	'-x, -y, -z'
  5	'-x, y, -z+.5'
  6	'x+.5, -y, -z+.5'
  7	'-x+.5, -y, z'
  8	'x, y, z'
loop_
_atom_type_symbol
_atom_type_oxidation_number
Ag1+	1
O2-	-2
P5+	5
Zn2+	2
loop_
_atom_site_label
_atom_site_type_symbol
_atom_site_symmetry_multiplicity
_atom_site_Wyckoff_symbol
_atom_site_fract_x
_atom_site_fract_y
_atom_site_fract_z
_atom_site_occupancy
_atom_site_attached_hydrogens
Ag1 Ag1+ 8 f 0.37690(3) 0.24870(4) 0.02445(4) 1. 0 
Zn1 Zn2+ 4 e 0.25 0.5 0.46555(5) 1. 0 
Zn2 Zn2+ 4 a 0 0 0 1. 0 
P1 P5+ 8 f 0.14898(6) 0.04610(8) 0.23865(9) 1. 0 
P2 P5+ 8 f 0.12635(7) 0.25085(8) 0.04840(8) 1. 0 
P3 P5+ 8 f 0.10061(6) 0.47006(7) 0.21442(9) 1. 0 
O1 O2- 4 d 0.25 0 0.2937(3) 1. 0 
O2 O2- 8 f 0.0919(2) 0.0833(2) 0.3579(3) 1. 0 
O3 O2- 8 f 0.3927(2) 0.0443(2) 0.1420(3) 1. 0 
O4 O2- 8 f 0.1808(2) 0.1692(2) 0.1590(3) 1. 0 
O5 O2- 8 f 0.2980(2) 0.3173(2) 0.4726(3) 1. 0 
O6 O2- 8 f 0.0558(2) 0.1740(2) 0.9737(3) 1. 0 
O7 O2- 8 f 0.0660(2) 0.3476(2) 0.1355(3) 1. 0 
O8 O2- 8 f 0.3487(2) 0.4451(2) 0.1200(3) 1. 0 
O9 O2- 8 f 0.1499(2) 0.4312(3) 0.3380(3) 1. 0 
O10 O2- 4 c 0.5 0.4686(3) 0.25 1. 0 

#End of data_35652-ICSD


