data_170043-ICSD
#?2014 by Fachinformationszentrum Karlsruhe, and the U.S. Secretary of 
#Commerce on behalf of the United States.  All rights reserved.
_database_code_ICSD                170043
_audit_creation_date               2005/10/01
_chemical_name_systematic          'Dipotassium Selenate Tellurate'
_chemical_formula_structural       'K2 Se O4 Te (O H)6'
_chemical_formula_sum              'H6 K2 O10 Se1 Te1'
_publ_section_title                'Dipotassium selenate tellurate'
loop_
_citation_id
_citation_journal_abbrev
_citation_year
_citation_journal_volume
_citation_page_first
_citation_page_last
_citation_journal_id_ASTM
primary 'Acta Crystallographica, Section E. Structure Reports Online'
 2005 61 i55 i57 ACSEBH
_publ_author_name
;
Dammak, M.;Cousson, A.;Nierlich, M.
;
_cell_length_a                     11.536(2)
_cell_length_b                     6.4270(10)
_cell_length_c                     13.898(3)
_cell_angle_alpha                  90
_cell_angle_beta                   105.95(3)
_cell_angle_gamma                  90
_cell_volume                       990.75
_cell_formula_units_Z              4
_symmetry_space_group_name_H-M     'C 1 2/c 1'
_symmetry_Int_Tables_number        15
_refine_ls_R_factor_all            .019
loop_
_symmetry_equiv_pos_site_id
_symmetry_equiv_pos_as_xyz
  1	'x, -y, z+.5'
  2	'-x, -y, -z'
  3	'-x, y, -z+.5'
  4	'x, y, z'
  5	'x+.5, -y+.5, z+.5'
  6	'-x+.5, -y+.5, -z'
  7	'-x+.5, y+.5, -z+.5'
  8	'x+.5, y+.5, z'
loop_
_atom_type_symbol
_atom_type_oxidation_number
H1+	1
K1+	1
O2-	-2
Se6+	6
Te6+	6
loop_
_atom_site_label
_atom_site_type_symbol
_atom_site_symmetry_multiplicity
_atom_site_Wyckoff_symbol
_atom_site_fract_x
_atom_site_fract_y
_atom_site_fract_z
_atom_site_occupancy
_atom_site_attached_hydrogens
_atom_site_U_iso_or_equiv
Te1 Te6+ 4 c 0.2500 0.2500 0.0000 1.0000 0 0.0147 
Se1 Se6+ 4 e 0.0000 0.28752(6) 0.2500 1.0000 0 0.0155 
K1 K1+ 8 f 0.64897(6) 0.69960(10) 0.64109(5) 1.0000 0 0.0320 
O1 O2- 8 f 0.23268(19) 0.2153(3) 0.13253(14) 1.0000 0 0.0245 
O2 O2- 8 f 0.09939(16) 0.1107(3) -0.05302(14) 1.0000 0 0.0259 
O3 O2- 8 f 0.16966(17) 0.5130(3) -0.01024(13) 1.0000 0 0.0254 
O4 O2- 8 f 0.11687(17) 0.1409(3) 0.29889(14) 1.0000 0 0.0313 
O5 O2- 8 f -0.03331(16) 0.4322(3) 0.33604(13) 1.0000 0 0.0279 
H1 H1+ 8 f 0.167(4) 0.275(5) 0.135(2) 1.0000 0 0.033(9) 
H2 H1+ 8 f 0.112(3) 0.027(6) -0.095(3) 1.0000 0 0.050(10) 
H3 H1+ 8 f 0.100(4) 0.514(6) -0.059(3) 1.0000 0 0.055(11) 

loop_
_atom_site_aniso_label
_atom_site_aniso_type_symbol
_atom_site_aniso_U_11
_atom_site_aniso_U_22
_atom_site_aniso_U_33
_atom_site_aniso_U_12
_atom_site_aniso_U_13
_atom_site_aniso_U_23
Te1 Te6+ 0.01564(18) 0.01477(17) 0.01401(16) -0.00066(7) 0.00440(10) 
0.00009(6)
Se1 Se6+ 0.0155(2) 0.01606(19) 0.0148(2) 0.0000 0.00393(14) 0.0000
K1 K1+ 0.0268(3) 0.0235(3) 0.0447(4) 0.0011(3) 0.0083(3) -0.0007(3)
O1 O2- 0.0279(11) 0.0287(9) 0.0184(8) 0.0028(8) 0.0091(7) 0.0019(7)
O2 O2- 0.0212(9) 0.0276(9) 0.0301(9) -0.0050(7) 0.0091(7) -0.0095(8)
O3 O2- 0.0290(10) 0.0182(9) 0.0265(9) 0.0069(7) 0.0029(8) -0.0007(7)
O4 O2- 0.0280(10) 0.0340(10) 0.0330(10) 0.0107(8) 0.0104(8) 0.0126(8)
O5 O2- 0.0300(10) 0.0278(9) 0.0284(9) -0.0003(7) 0.0115(7) -0.0114(7)
#End of data_170043-ICSD


