data_245567-ICSD
#?2014 by Fachinformationszentrum Karlsruhe, and the U.S. Secretary of 
#Commerce on behalf of the United States.  All rights reserved.
_database_code_ICSD                245567
_audit_creation_date               2008/02/01
_chemical_name_systematic          'Lithium Tetrahydridoborate'
_chemical_formula_structural       'Li (B H4)'
_chemical_formula_sum              'H4 B1 Li1'
_publ_section_title
;
Structure and vibrational dynamics of isotypically labeled lithium 
borohydride using neutron diffraction and spectroscopy
;
loop_
_citation_id
_citation_journal_abbrev
_citation_year
_citation_journal_volume
_citation_journal_issue
_citation_page_first
_citation_page_last
_citation_journal_id_ASTM
primary 'Journal of Solid State Chemistry' 2007 180 4 1298 1305 JSSCBI
_publ_author_name
;
Hartman, M.R.;Rush, J.J.;Udovic, T.J.;Bowman, R.C.jr.;Hwang Song-Jong
;
_cell_length_a                     7.1213(2)
_cell_length_b                     4.4060(1)
_cell_length_c                     6.6744(2)
_cell_angle_alpha                  90.
_cell_angle_beta                   90.
_cell_angle_gamma                  90.
_cell_volume                       209.42
_cell_formula_units_Z              4
_symmetry_space_group_name_H-M     'P n m a'
_symmetry_Int_Tables_number        62
_refine_ls_R_factor_all            .021
loop_
_symmetry_equiv_pos_site_id
_symmetry_equiv_pos_as_xyz
  1	'x+.5, y, -z+.5'
  2	'x, -y+.5, z'
  3	'-x+.5, y+.5, z+.5'
  4	'-x, -y, -z'
  5	'-x+.5, -y, z+.5'
  6	'-x, y+.5, -z'
  7	'x+.5, -y+.5, -z+.5'
  8	'x, y, z'
loop_
_atom_type_symbol
_atom_type_oxidation_number
B3+	3
H1-	-1
Li1+	1
loop_
_atom_site_label
_atom_site_type_symbol
_atom_site_symmetry_multiplicity
_atom_site_Wyckoff_symbol
_atom_site_fract_x
_atom_site_fract_y
_atom_site_fract_z
_atom_site_occupancy
_atom_site_attached_hydrogens
Li1 Li1+ 4 c 0.1597(10) 0.25 0.1106(10) 1. 0 
B1 B3+ 4 c 0.3054(3) 0.25 0.4301(5) 1. 0 
H1 H1- 4 c 0.4072(6) 0.25 0.5759(10) 1. 0 
H2 H1- 4 c 0.3995(6) 0.25 0.2766(6) 1. 0 
H3 H1- 8 d 0.2048(4) 0.0293(5) 0.4268(7) 1. 0 

loop_
_atom_site_aniso_label
_atom_site_aniso_type_symbol
_atom_site_aniso_U_11
_atom_site_aniso_U_22
_atom_site_aniso_U_33
_atom_site_aniso_U_12
_atom_site_aniso_U_13
_atom_site_aniso_U_23
Li1 Li1+ 0.0074(35) 0.0176(33) 0.0217(49) 0.0000 -0.0041(25) 0.0000
B1 B3+ 0.0102(13) 0.0024(10) 0.0152(13) 0.0000 -0.0007(16) 0.0000
H1 H1- 0.0212(22) 0.0186(19) 0.0080(19) 0.0000 0.0021(24) 0.0000
H2 H1- 0.0102(26) 0.0344(26) 0.0094(23) 0.0000 0.0039(19) 0.0000
H3 H1- 0.0308(18) 0.0175(13) 0.0278(17) -0.0045(14) 0.0033(23) 0.0022(17)
#End of data_245567-ICSD


