data_200518-ICSD
#?2014 by Fachinformationszentrum Karlsruhe, and the U.S. Secretary of 
#Commerce on behalf of the United States.  All rights reserved.
_database_code_ICSD                200518
_audit_creation_date               1980/01/01
_audit_update_record               2005/10/01
_chemical_name_systematic
;
Tetrapotassium Zinc Tris(tungstate)
;
_chemical_formula_structural       'K4 Zn (W O4)3'
_chemical_formula_sum              'K4 O12 W3 Zn1'
_publ_section_title
;
Crystal structure and polymorphism of potassium-zinc tungstate K4 Zn 
(W O4)3
;
loop_
_citation_id
_citation_journal_abbrev
_citation_year
_citation_journal_volume
_citation_page_first
_citation_page_last
_citation_journal_id_ASTM
primary Kristallografiya 1979 24 257 264 KRISAJ
2 'Soviet Physics, Crystallography (= Kristallografiya)'
 1979 24 145 150 SPHCA6
3 'Golden Book of Phase Transitions, Wroclaw' 2002 1 1 123 GBOPT5
_publ_author_name
;
Klevtsova, R.F.;Ivannikova, N.V.;Klevtsov, P.V.
;
_cell_length_a                     9.957(7)
_cell_length_b                     9.891(10)
_cell_length_c                     7.807(5)
_cell_angle_alpha                  105.55
_cell_angle_beta                   106.16
_cell_angle_gamma                  94.13
_cell_volume                       702.47
_cell_formula_units_Z              2
_symmetry_space_group_name_H-M     'P -1'
_symmetry_Int_Tables_number        2
_refine_ls_R_factor_all            .065
loop_
_symmetry_equiv_pos_site_id
_symmetry_equiv_pos_as_xyz
  1	'-x, -y, -z'
  2	'x, y, z'
loop_
_atom_type_symbol
_atom_type_oxidation_number
K1+	1
O2-	-2
W6+	6
Zn2+	2
loop_
_atom_site_label
_atom_site_type_symbol
_atom_site_symmetry_multiplicity
_atom_site_Wyckoff_symbol
_atom_site_fract_x
_atom_site_fract_y
_atom_site_fract_z
_atom_site_occupancy
_atom_site_attached_hydrogens
_atom_site_B_iso_or_equiv
W1 W6+ 2 i 0.1537(1) 0.3900(1) 0.3852(1) 1. 0 0 
W2 W6+ 2 i 0.3611(1) 0.1825(1) 0.8778(1) 1. 0 0 
W3 W6+ 2 i 0.8186(1) 0.2654(1) 0.7684(1) 1. 0 0 
Zn1 Zn2+ 2 i 0.1339(2) 0.4437(2) 0.8361(3) 1. 0 0 
K1 K1+ 2 i 0.4334(4) 0.1137(5) 0.3574(6) 1. 0 1.48 
K2 K1+ 2 i 0.7624(4) 0.2230(4) 0.2161(6) 1. 0 1.27 
K3 K1+ 1 a 0 0 0 1. 0 2. 
K4 K1+ 1 b 0 0 0.5 1. 0 2.22 
K5 K1+ 2 i 0.5252(5) 0.4742(5) 0.7478(7) 1. 0 1.78 
O1 O2- 2 i 0.327(2) 0.370(2) 0.393(2) 1. 0 2.39 
O2 O2- 2 i 0.156(2) 0.491(2) 0.610(2) 1. 0 1.82 
O3 O2- 2 i 0.047(2) 0.223(2) 0.318(2) 1. 0 1.52 
O4 O2- 2 i 0.084(2) 0.477(2) 0.209(2) 1. 0 2.34 
O5 O2- 2 i 0.488(2) 0.202(2) 0.099(3) 1. 0 2.53 
O6 O2- 2 i 0.216(2) 0.052(2) 0.833(3) 1. 0 2.46 
O7 O2- 2 i 0.441(2) 0.130(2) 0.701(3) 1. 0 3.2 
O8 O2- 2 i 0.314(2) 0.355(2) 0.877(3) 1. 0 2.92 
O9 O2- 2 i 0.781(2) 0.376(2) 0.967(2) 1. 0 1.79 
O10 O2- 2 i 0.703(2) 0.270(2) 0.559(2) 1. 0 1.62 
O11 O2- 2 i -.001(2) 0.275(2) 0.764(2) 1. 0 2.11 
O12 O2- 2 i 0.784(2) 0.094(2) 0.792(3) 1. 0 2.75 

loop_
_atom_site_aniso_label
_atom_site_aniso_type_symbol
_atom_site_aniso_B_11
_atom_site_aniso_B_22
_atom_site_aniso_B_33
_atom_site_aniso_B_12
_atom_site_aniso_B_13
_atom_site_aniso_B_23
W1 W6+ 0.19 0.1 0.135 0.07 0.08 0.05
W2 W6+ 0.22 0.11 0.17 0.15 0.09 0.07
W3 W6+ 0.19 0.125 0.14 0.085 0.1 0.08
Zn1 Zn2+ 0.33 0.1 0.21 0.145 0.12 0.005
#End of data_200518-ICSD


