data_158959-ICSD
#?2014 by Fachinformationszentrum Karlsruhe, and the U.S. Secretary of 
#Commerce on behalf of the United States.  All rights reserved.
_database_code_ICSD                158959
_audit_creation_date               2008/08/01
_chemical_name_systematic          'Magnesium Catena-silicate - Hp'
_chemical_formula_structural       'Mg (Si O3)'
_chemical_formula_sum              'Mg1 O3 Si1'
_publ_section_title
;
Post-perovskite phase transition in Mg Si O3
;
loop_
_citation_id
_citation_journal_abbrev
_citation_year
_citation_journal_volume
_citation_page_first
_citation_page_last
_citation_journal_id_ASTM
primary Science 2004 304 855 858 SCIEAS
_publ_author_name
;
Murakami, M.;Hirose, K.;Kawamura, K.;Sata, N.;Ohishi, Y.
;
_cell_length_a                     2.456(0)
_cell_length_b                     8.042(1)
_cell_length_c                     6.093(0)
_cell_angle_alpha                  90.
_cell_angle_beta                   90.
_cell_angle_gamma                  90.
_cell_volume                       120.34
_cell_formula_units_Z              4
_symmetry_space_group_name_H-M     'C m c m'
_symmetry_Int_Tables_number        63
loop_
_symmetry_equiv_pos_site_id
_symmetry_equiv_pos_as_xyz
  1	'-x, y, -z+.5'
  2	'-x, -y, z+.5'
  3	'-x, y, z'
  4	'-x, -y, -z'
  5	'x, -y, z+.5'
  6	'x, y, -z+.5'
  7	'x, -y, -z'
  8	'x, y, z'
  9	'-x+.5, y+.5, -z+.5'
 10	'-x+.5, -y+.5, z+.5'
 11	'-x+.5, y+.5, z'
 12	'-x+.5, -y+.5, -z'
 13	'x+.5, -y+.5, z+.5'
 14	'x+.5, y+.5, -z+.5'
 15	'x+.5, -y+.5, -z'
 16	'x+.5, y+.5, z'
loop_
_atom_type_symbol
_atom_type_oxidation_number
Mg2+	2
O2-	-2
Si4+	4
loop_
_atom_site_label
_atom_site_type_symbol
_atom_site_symmetry_multiplicity
_atom_site_Wyckoff_symbol
_atom_site_fract_x
_atom_site_fract_y
_atom_site_fract_z
_atom_site_occupancy
_atom_site_attached_hydrogens
Mg1 Mg2+ 4 c 0 0.253 0.250 1. 0 
Si1 Si4+ 4 a 0 0 0 1. 0 
O1 O2- 4 c 0 0.923 0.250 1. 0 
O2 O2- 8 f 0 0.631 0.436 1. 0 

#End of data_158959-ICSD


