data_261927-ICSD
#?2014 by Fachinformationszentrum Karlsruhe, and the U.S. Secretary of 
#Commerce on behalf of the United States.  All rights reserved.
_database_code_ICSD                261927
_audit_creation_date               2012/02/01
_audit_update_record               2012/08/01
_chemical_name_systematic          'Potassium Pentaborate'
_chemical_formula_structural       'K (B5 O7 (O H)2)'
_chemical_formula_sum              'H2 B5 K1 O9'
_publ_section_title                'Potassium pentaborate'
loop_
_citation_id
_citation_journal_abbrev
_citation_year
_citation_journal_volume
_citation_journal_issue
_citation_page_first
_citation_page_last
_citation_journal_id_ASTM
primary 'Acta Crystallographica, Section E. Structure Reports Online'
 2011 67 11 i67 i67 ACSEBH
_publ_author_name                  'Wu Qi'
_cell_length_a                     7.6690(3)
_cell_length_b                     9.0445(3)
_cell_length_c                     12.2304(4)
_cell_angle_alpha                  90.00
_cell_angle_beta                   119.132(2)
_cell_angle_gamma                  90.00
_cell_volume                       741.02
_cell_formula_units_Z              4
_symmetry_space_group_name_H-M     'P 1 21/c 1'
_symmetry_Int_Tables_number        14
_refine_ls_R_factor_all            .0297
loop_
_symmetry_equiv_pos_site_id
_symmetry_equiv_pos_as_xyz
  1	'x, -y+.5, z+.5'
  2	'-x, -y, -z'
  3	'-x, y+.5, -z+.5'
  4	'x, y, z'
loop_
_atom_type_symbol
_atom_type_oxidation_number
B3+	3
H1+	1
K1+	1
O2-	-2
loop_
_atom_site_label
_atom_site_type_symbol
_atom_site_symmetry_multiplicity
_atom_site_Wyckoff_symbol
_atom_site_fract_x
_atom_site_fract_y
_atom_site_fract_z
_atom_site_occupancy
_atom_site_attached_hydrogens
_atom_site_U_iso_or_equiv
O1 O2- 4 e -0.2494(2) -0.13046(15) -0.14778(13) 1 0 0.0093(3) 
O2 O2- 4 e -0.0757(2) -0.32468(15) -0.19460(13) 1 0 0.0095(3) 
O3 O2- 4 e 0.0327(2) -0.25360(15) 0.01760(12) 1 0 0.0096(3) 
O4 O2- 4 e -0.4011(2) -0.14669(15) -0.50951(12) 1 0 0.0097(3) 
O5 O2- 4 e 0.1858(2) -0.45303(15) -0.01975(13) 1 0 0.0091(3) 
O6 O2- 4 e -0.4141(2) -0.26660(15) -0.33902(12) 1 0 0.0095(3) 
O7 O2- 4 e -0.6325(2) -0.33377(16) -0.55281(13) 1 0 0.0111(3) 
H1 H1+ 4 e -0.7360 -0.3223 -0.5465 1 0 0.017 
O8 O2- 4 e -0.1489(2) -0.08947(15) -0.30142(13) 1 0 0.0101(3) 
O9 O2- 4 e -0.1416(2) -0.06260(16) 0.05911(13) 1 0 0.0108(3) 
H2 H1+ 4 e -0.0286 -0.0380 0.1172 1 0 0.016 
B1 B3+ 4 e 0.0458(3) -0.3419(2) -0.0712(2) 1 0 0.0088(4) 
B2 B3+ 4 e -0.1192(3) -0.1489(2) -0.0252(2) 1 0 0.0094(4) 
B3 B3+ 4 e -0.4815(3) -0.2516(2) -0.4635(2) 1 0 0.0095(4) 
B4 B3+ 4 e -0.2217(3) -0.2019(2) -0.2457(2) 1 0 0.0093(4) 
B5 B3+ 4 e 0.2421(3) -0.5629(2) -0.0753(2) 1 0 0.0091(4) 
K1 K1+ 4 e 0.34799(7) -0.07665(5) -0.26481(4) 1 0 0.01448(14) 

loop_
_atom_site_aniso_label
_atom_site_aniso_type_symbol
_atom_site_aniso_U_11
_atom_site_aniso_U_22
_atom_site_aniso_U_33
_atom_site_aniso_U_12
_atom_site_aniso_U_13
_atom_site_aniso_U_23
O1 O2- 0.0097(7) 0.0089(7) 0.0088(7) 0.0014(5) 0.0040(6) 0.0006(5)
O2 O2- 0.0104(7) 0.0097(7) 0.0085(7) 0.0015(5) 0.0047(6) 0.0002(5)
O3 O2- 0.0104(7) 0.0098(7) 0.0080(7) 0.0016(5) 0.0041(6) -0.0002(5)
O4 O2- 0.0109(7) 0.0097(7) 0.0080(6) -0.0017(6) 0.0040(6) -0.0001(5)
O5 O2- 0.0102(7) 0.0092(7) 0.0077(6) 0.0014(5) 0.0043(6) 0.0001(5)
O6 O2- 0.0093(7) 0.0100(7) 0.0089(7) -0.0010(5) 0.0041(6) 0.0008(5)
O7 O2- 0.0096(7) 0.0126(7) 0.0112(7) -0.0027(6) 0.0051(6) -0.0009(6)
O8 O2- 0.0092(7) 0.0112(7) 0.0085(7) -0.0021(5) 0.0032(6) 0.0009(5)
O9 O2- 0.0098(7) 0.0115(7) 0.0095(7) 0.0018(5) 0.0035(6) -0.0015(5)
B1 B3+ 0.0095(10) 0.0070(10) 0.0105(10) -0.0015(8) 0.0052(9) -0.0004(8)
B2 B3+ 0.0101(10) 0.0073(10) 0.0124(11) -0.0014(8) 0.0067(9) 0.0003(8)
B3 B3+ 0.0097(10) 0.0074(10) 0.0118(11) 0.0016(8) 0.0054(9) -0.0003(8)
B4 B3+ 0.0098(10) 0.0083(10) 0.0092(10) 0.0000(8) 0.0043(9) 0.0005(8)
B5 B3+ 0.0100(10) 0.0082(10) 0.0111(10) -0.0005(8) 0.0067(9) 0.0000(8)
K1 K1+ 0.0143(2) 0.0188(3) 0.0091(2) 0.00475(18) 0.00474(18) 0.00124(17)
#End of data_261927-ICSD


