data_92470-ICSD
#?2014 by Fachinformationszentrum Karlsruhe, and the U.S. Secretary of 
#Commerce on behalf of the United States.  All rights reserved.
_database_code_ICSD                92470
_audit_creation_date               2002/10/01
_chemical_name_systematic          'Potassium Copper Hafnium Fluoride'
_chemical_formula_structural       'K Cu Hf F7'
_chemical_formula_sum              'Cu1 F7 Hf1 K1'
_publ_section_title
;
K Cu M(IV) F7 (M(IV) = Zr(4+), Hf(4+)), ein neuer Strukturtyp
;
loop_
_citation_id
_citation_journal_abbrev
_citation_year
_citation_journal_volume
_citation_page_first
_citation_page_last
_citation_journal_id_ASTM
primary 'Zeitschrift fuer Anorganische und Allgemeine Chemie (1950) (DE)'
 2000 626 1929 1933 ZAACAB
_publ_author_name                  'Kraus, M.;Mueller, B.G.'
_cell_length_a                     8.2894
_cell_length_b                     12.7742
_cell_length_c                     10.0999
_cell_angle_alpha                  90.
_cell_angle_beta                   90.
_cell_angle_gamma                  90.
_cell_volume                       1069.48
_cell_formula_units_Z              8
_symmetry_space_group_name_H-M     'C m c m'
_symmetry_Int_Tables_number        63
_refine_ls_R_factor_all            .027
loop_
_symmetry_equiv_pos_site_id
_symmetry_equiv_pos_as_xyz
  1	'-x, y, -z+.5'
  2	'-x, -y, z+.5'
  3	'-x, y, z'
  4	'-x, -y, -z'
  5	'x, -y, z+.5'
  6	'x, y, -z+.5'
  7	'x, -y, -z'
  8	'x, y, z'
  9	'-x+.5, y+.5, -z+.5'
 10	'-x+.5, -y+.5, z+.5'
 11	'-x+.5, y+.5, z'
 12	'-x+.5, -y+.5, -z'
 13	'x+.5, -y+.5, z+.5'
 14	'x+.5, y+.5, -z+.5'
 15	'x+.5, -y+.5, -z'
 16	'x+.5, y+.5, z'
loop_
_atom_type_symbol
_atom_type_oxidation_number
Cu2+	2
F1-	-1
Hf4+	4
K1+	1
loop_
_atom_site_label
_atom_site_type_symbol
_atom_site_symmetry_multiplicity
_atom_site_Wyckoff_symbol
_atom_site_fract_x
_atom_site_fract_y
_atom_site_fract_z
_atom_site_occupancy
_atom_site_attached_hydrogens
K1 K1+ 8 g 0.76092(22) 0.60275(21) 0.25 1. 0 
Cu1 Cu2+ 8 f 0.5 0.86543(7) 0.07042(8) 1. 0 
Hf1 Hf4+ 8 f 0.5 0.63375(2) 0.56951(2) 1. 0 
F1 F1- 4 b 0.5 0 0 1. 0 
F2 F1- 4 c 0.5 0.91912(48) 0.25 1. 0 
F3 F1- 8 f 0.5 0.47468(29) 0.61225(38) 1. 0 
F4 F1- 8 f 0.5 0.72203(31) 0.11175(41) 1. 0 
F5 F1- 8 f 0.5 0.79266(30) 0.61176(39) 1. 0 
F6 F1- 8 g 0.36078(52) 0.63465(31) 0.75 1. 0 
F7 F1- 16 h 0.26786(39) 0.62711(23) 0.51612(35) 1. 0 

loop_
_atom_site_aniso_label
_atom_site_aniso_type_symbol
_atom_site_aniso_U_11
_atom_site_aniso_U_22
_atom_site_aniso_U_33
_atom_site_aniso_U_12
_atom_site_aniso_U_13
_atom_site_aniso_U_23
K1 K1+ 0.02145(99) 0.0547(13) 0.01197(48) -.01738(86) 0 0
Cu1 Cu2+ 0.01360(53) 0.00509(45) 0.00748(48) 0 0 0.00057(27)
Hf1 Hf4+ 0.00736(20) 0.00661(19) 0.00667(19) 0 0 0.00016(9)
F1 F1- 0.0249(36) 0.0099(31) 0.0364(39) 0 0 0.0127(28)
F2 F1- 0.0214(32) 0.0142(31) 0.0060(24) 0 0 0
F3 F1- 0.0160(20) 0.0040(18) 0.0063(16) 0 0 0.0023(15)
F4 F1- 0.0248(23) 0.0049(18) 0.0068(17) 0 0 -0.0008(15)
F5 F1- 0.0150(21) 0.0040(17) 0.0075(17) 0 0 0.0012(14)
F6 F1- 0.0053(21) 0.0236(23) 0.0051(18) 0.0000(14) 0 0
F7 F1- 0.0080(16) 0.0250(19) 0.0072(17) 0.0009(11) -0.0037(11) -0.0032(11)
#End of data_92470-ICSD


