data_14307-ICSD
#?2014 by Fachinformationszentrum Karlsruhe, and the U.S. Secretary of 
#Commerce on behalf of the United States.  All rights reserved.
_database_code_ICSD                14307
_audit_creation_date               1980/01/01
_audit_update_record               2003/04/01
_chemical_name_systematic
;
Disodium Tetrafluoroberyllate - Gamma
;
_chemical_formula_structural       'Na2 (Be F4)'
_chemical_formula_sum              'Be1 F4 Na2'
_publ_section_title
;
The crystal structure of - gamma-sodium beryllium tetrafluoride, Na2 
Be F4
;
loop_
_citation_id
_citation_journal_abbrev
_citation_year
_citation_journal_volume
_citation_page_first
_citation_page_last
_citation_journal_id_ASTM
primary 'Acta Crystallographica B (24,1968-38,1982)' 1973 29 2593 2598 ACBCAR
2 'Phase Transition' 1992 38 127 220 PHTRDP
_publ_author_name                  'Deganello, S.'
_cell_length_a                     5.5590(9)
_cell_length_b                     8.0703(5)
_cell_length_c                     7.9098(5)
_cell_angle_alpha                  90.
_cell_angle_beta                   99.35(5)
_cell_angle_gamma                  90.
_cell_volume                       350.14
_cell_formula_units_Z              4
_symmetry_space_group_name_H-M     'P 1 21/n 1'
_symmetry_Int_Tables_number        14
_refine_ls_R_factor_all            .054
loop_
_symmetry_equiv_pos_site_id
_symmetry_equiv_pos_as_xyz
  1	'-x+.5, y+.5, -z+.5'
  2	'-x, -y, -z'
  3	'x+.5, -y+.5, z+.5'
  4	'x, y, z'
loop_
_atom_type_symbol
_atom_type_oxidation_number
Be2+	2
F1-	-1
Na1+	1
loop_
_atom_site_label
_atom_site_type_symbol
_atom_site_symmetry_multiplicity
_atom_site_Wyckoff_symbol
_atom_site_fract_x
_atom_site_fract_y
_atom_site_fract_z
_atom_site_occupancy
_atom_site_attached_hydrogens
Na1 Na1+ 4 e -.2847(2) -.1565(1) -.3753(1) 1. 0 
Na2 Na1+ 4 e 0.2185(2) -.0136(1) -.1369(1) 1. 0 
Be1 Be2+ 4 e -.2926(6) -.3020(4) -.0386(4) 1. 0 
F1 F1- 4 e -.0834(3) -.1818(2) -.0686(2) 1. 0 
F2 F1- 4 e 0.4942(3) 0.1950(2) -.0200(2) 1. 0 
F3 F1- 4 e -.3847(3) -.3923(2) -.2070(2) 1. 0 
F4 F1- 4 e 0.1871(3) 0.4295(2) -.1002(2) 1. 0 

#End of data_14307-ICSD


