data_24087-ICSD
#?2014 by Fachinformationszentrum Karlsruhe, and the U.S. Secretary of 
#Commerce on behalf of the United States.  All rights reserved.
_database_code_ICSD                24087
_audit_creation_date               1980/01/01
_audit_update_record               2010/08/01
_chemical_name_systematic          'Tetrasodium Catena-nonagermanate'
_chemical_formula_structural       'Na4 (Ge9 O20)'
_chemical_formula_sum              'Ge9 Na4 O20'
_publ_section_title
;
The crystal structure of Na4 Ge9 O20
;
loop_
_citation_id
_citation_journal_abbrev
_citation_year
_citation_journal_volume
_citation_page_first
_citation_page_last
_citation_journal_id_ASTM
primary 'Acta Chemica Scandinavica (1-27,1973-42,1988)' 1963 17 617 633 ACSAA4
_publ_author_name                  'Ingri, N.;Lundgren, G.'
_cell_length_a                     14.98(1)
_cell_length_b                     14.98(1)
_cell_length_c                     7.384(5)
_cell_angle_alpha                  90.
_cell_angle_beta                   90.
_cell_angle_gamma                  90.
_cell_volume                       1656.97
_cell_formula_units_Z              4
_symmetry_space_group_name_H-M     'I 41/a Z'
_symmetry_Int_Tables_number        88
_refine_ls_R_factor_all            .135
loop_
_symmetry_equiv_pos_site_id
_symmetry_equiv_pos_as_xyz
  1	'-y+.75, x+.75, -z+.75'
  2	'y+.25, -x+.75, -z+.75'
  3	'x, y+.5, -z'
  4	'-x, -y, -z'
  5	'y+.25, -x+.25, z+.25'
  6	'-y+.75, x+.25, z+.25'
  7	'-x, -y+.5, z'
  8	'x, y, z'
  9	'-y+.25, x+.25, -z+.25'
 10	'y+.75, -x+.25, -z+.25'
 11	'x+.5, y, -z+.5'
 12	'-x+.5, -y+.5, -z+.5'
 13	'y+.75, -x+.75, z+.75'
 14	'-y+.25, x+.75, z+.75'
 15	'-x+.5, -y, z+.5'
 16	'x+.5, y+.5, z+.5'
loop_
_atom_type_symbol
_atom_type_oxidation_number
Ge4+	4
Na1+	1
O2-	-2
loop_
_atom_site_label
_atom_site_type_symbol
_atom_site_symmetry_multiplicity
_atom_site_Wyckoff_symbol
_atom_site_fract_x
_atom_site_fract_y
_atom_site_fract_z
_atom_site_occupancy
_atom_site_attached_hydrogens
_atom_site_B_iso_or_equiv
Na1 Na1+ 16 f 0.0878(6) 0.0544(6) 0.1702(14) 1. 0 0.84 
Ge1 Ge4+ 4 a 0 0.25 0.125 1. 0 0.474 
Ge2 Ge4+ 16 f 0.1366(2) 0.0460(2) 0.7009(3) 1. 0 0.299 
Ge3 Ge4+ 16 f 0.0956(2) 0.2180(2) 0.4912(3) 1. 0 0.262 
O1 O2- 16 f 0.0928(10) 0.2127(10) 0.2448(19) 1. 0 -.003 
O2 O2- 16 f 0.0824(10) 0.2227(10) 0.7476(21) 1. 0 0.227 
O3 O2- 16 f 0.1889(10) 0.0739(10) 0.9074(21) 1. 0 0.199 
O4 O2- 16 f 0.0253(11) 0.0446(11) 0.7555(23) 1. 0 0.609 
O5 O2- 16 f 0.1554(10) 0.1088(10) 0.5070(21) 1. 0 0.302 

#End of data_24087-ICSD


