data_78949-ICSD
#?2014 by Fachinformationszentrum Karlsruhe, and the U.S. Secretary of 
#Commerce on behalf of the United States.  All rights reserved.
_database_code_ICSD                78949
_audit_creation_date               1998/06/26
_audit_update_record               2010/08/01
_chemical_name_systematic
;
Tripotassium Nonaselenidotricupro(I)triphosphate(IV)
;
_chemical_formula_structural       'K3 (Cu3 P3 Se9)'
_chemical_formula_sum              'Cu3 K3 P3 Se9'
_publ_section_title
;
A three-dimensional network structure built from 
selenodiphosphate(IV) and copper selenide tetrahedral building 
blocks: K3 Cu3 P3 Se9
;
loop_
_citation_id
_citation_journal_abbrev
_citation_year
_citation_journal_volume
_citation_page_first
_citation_page_last
_citation_journal_id_ASTM
primary 'Zeitschrift fuer Anorganische und Allgemeine Chemie (1950) (DE)'
 1996 622 385 391 ZAACAB
_publ_author_name                  'Dorhout, P.K.;Malo, T.M.'
_cell_length_a                     8.741(2)
_cell_length_b                     10.774(2)
_cell_length_c                     20.0330(30)
_cell_angle_alpha                  90.
_cell_angle_beta                   92.96(2)
_cell_angle_gamma                  90.
_cell_volume                       1884.1
_cell_formula_units_Z              4
_symmetry_space_group_name_H-M     'P 1 21/c 1'
_symmetry_Int_Tables_number        14
_refine_ls_R_factor_all            .042
loop_
_symmetry_equiv_pos_site_id
_symmetry_equiv_pos_as_xyz
  1	'x, -y+.5, z+.5'
  2	'-x, -y, -z'
  3	'-x, y+.5, -z+.5'
  4	'x, y, z'
loop_
_atom_type_symbol
_atom_type_oxidation_number
Cu1+	1
K1+	1
P4+	4
Se2-	-2
loop_
_atom_site_label
_atom_site_type_symbol
_atom_site_symmetry_multiplicity
_atom_site_Wyckoff_symbol
_atom_site_fract_x
_atom_site_fract_y
_atom_site_fract_z
_atom_site_occupancy
_atom_site_attached_hydrogens
_atom_site_U_iso_or_equiv
Se1 Se2- 4 e 0.4382(1) 0.5523(1) 0.3196(1) 1. 0 0.0022(1) 
Se2 Se2- 4 e 0.1342(1) 0.3135(1) 0.4338(1) 1. 0 0.0024(1) 
Se3 Se2- 4 e 0.4689(2) 0.3633(1) 0.1498(1) 1. 0 0.0027(1) 
Se4 Se2- 4 e 0.7992(1) 0.2885(1) 0.2713(1) 1. 0 0.0023(1) 
Se5 Se2- 4 e 0.4205(2) 0.1942(1) 0.3495(1) 1. 0 0.0026(1) 
Se6 Se2- 4 e 0.0773(2) 0.4651(1) 0.2412(1) 1. 0 0.0026(1) 
Se7 Se2- 4 e 0.7714(2) 0.0992(1) 0.4394(1) 1. 0 0.0028(1) 
Se8 Se2- 4 e 0.0827(2) 0.6802(1) 0.4140(1) 1. 0 0.0026(1) 
Se9 Se2- 4 e 0.7368(2) 0.4933(1) 0.4240(1) 1. 0 0.0026(1) 
Cu1 Cu1+ 4 e 0.8643(2) 0.2940(1) 0.3914(1) 1. 0 0.0035(1) 
Cu2 Cu1+ 4 e 0.5312(2) 0.3579(1) 0.2745(1) 1. 0 0.0033(1) 
Cu3 Cu1+ 4 e 0.1743(2) 0.4904(1) 0.3643(1) 1. 0 0.0045(1) 
P1 P4+ 4 e 0.3947(4) 0.5567(2) 0.1434(1) 1. 0 0.0019(1) 
P2 P4+ 4 e 0.2701(4) 0.5926(2) 0.2363(1) 1. 0 0.0019(1) 
P3 P4+ 4 e 0.0689(4) 0.4202(2) 0.5215(1) 1. 0 0.0020(1) 
K1 K1+ 4 e 0.1927(4) 0.1745(2) 0.2078(1) 1. 0 0.0039(1) 
K2 K1+ 4 e 0.1478(2) 0.9896(3) 0.3987(1) 1. 0 0.0048(1) 
K3 K1+ 4 e 0.5209(4) 0.2033(2) 0.0093(1) 1. 0 0.0042(1) 

#End of data_78949-ICSD


