data_24199-ICSD
#?2014 by Fachinformationszentrum Karlsruhe, and the U.S. Secretary of 
#Commerce on behalf of the United States.  All rights reserved.
_database_code_ICSD                24199
_audit_creation_date               1980/01/01
_audit_update_record               2006/04/01
_chemical_name_systematic          'Dipotassium Dichromate'
_chemical_formula_structural       'K2 Cr2 O7'
_chemical_formula_sum              'Cr2 K2 O7'
_publ_section_title
;
An accurate determination of the crystal structure of triclinic 
potassium dichromate, K2 Cr2 O7
;
loop_
_citation_id
_citation_journal_abbrev
_citation_year
_citation_journal_volume
_citation_page_first
_citation_page_last
_citation_journal_id_ASTM
primary 'Canadian Journal of Chemistry' 1968 46 933 941 CJCHAG
2 'Golden Book of Phase Transitions, Wroclaw' 2002 1 1 123 GBOPT5
_publ_author_name                  'Brandon, J.K.;Brown, I.D.'
_cell_length_a                     13.367(11)
_cell_length_b                     7.376(5)
_cell_length_c                     7.445(6)
_cell_angle_alpha                  90.75(5)
_cell_angle_beta                   96.21(7)
_cell_angle_gamma                  97.96(5)
_cell_volume                       722.41
_cell_formula_units_Z              4
_symmetry_space_group_name_H-M     'P -1'
_symmetry_Int_Tables_number        2
_refine_ls_R_factor_all            .054
loop_
_symmetry_equiv_pos_site_id
_symmetry_equiv_pos_as_xyz
  1	'-x, -y, -z'
  2	'x, y, z'
loop_
_atom_type_symbol
_atom_type_oxidation_number
Cr6+	6
K1+	1
O2-	-2
loop_
_atom_site_label
_atom_site_type_symbol
_atom_site_symmetry_multiplicity
_atom_site_Wyckoff_symbol
_atom_site_fract_x
_atom_site_fract_y
_atom_site_fract_z
_atom_site_occupancy
_atom_site_attached_hydrogens
K1 K1+ 2 i 0.15845(8) 0.16251(12) 0.91463(18) 1. 0 
K2 K1+ 2 i -.13591(8) 0.19591(12) 0.65275(18) 1. 0 
K3 K1+ 2 i 0.64056(8) 0.60346(12) 0.66946(18) 1. 0 
K4 K1+ 2 i 0.34939(8) 0.75019(12) 0.76701(18) 1. 0 
Cr1 Cr6+ 2 i 0.11332(5) 0.31682(7) 0.42619(11) 1. 0 
Cr2 Cr6+ 2 i -.08334(5) 0.31361(7) 0.15240(11) 1. 0 
Cr3 Cr6+ 2 i 0.60718(5) 0.09201(7) 0.76914(11) 1. 0 
Cr4 Cr6+ 2 i 0.41379(5) 0.29304(7) 0.80714(11) 1. 0 
O1 O2- 2 i 0.0228(3) 0.4295(4) 0.2948(6) 1. 0 
O2 O2- 2 i 0.1997(3) 0.4763(4) 0.5166(6) 1. 0 
O3 O2- 2 i 0.1636(3) 0.1861(4) 0.2948(6) 1. 0 
O4 O2- 2 i 0.0605(3) 0.1941(4) 0.5766(6) 1. 0 
O5 O2- 2 i -.1489(3) 0.4584(4) 0.0627(6) 1. 0 
O6 O2- 2 i -.1517(3) 0.1752(4) 0.2754(6) 1. 0 
O7 O2- 2 i -.0431(3) 0.1926(4) -.0018(6) 1. 0 
O8 O2- 2 i 0.5275(3) 0.2095(4) 0.8919(6) 1. 0 
O9 O2- 2 i 0.7014(3) 0.0535(4) 0.9120(6) 1. 0 
O10 O2- 2 i 0.6487(3) 0.2201(4) 0.6103(6) 1. 0 
O11 O2- 2 i 0.5449(3) -.0982(4) 0.6835(6) 1. 0 
O12 O2- 2 i 0.3603(3) 0.3660(4) 0.9728(6) 1. 0 
O13 O2- 2 i 0.3366(3) 0.1370(4) 0.6926(6) 1. 0 
O14 O2- 2 i 0.4427(3) 0.4606(4) 0.6726(6) 1. 0 

#End of data_24199-ICSD


