data_290375-ICSD
#?2014 by Fachinformationszentrum Karlsruhe, and the U.S. Secretary of 
#Commerce on behalf of the United States.  All rights reserved.
_database_code_ICSD                290375
_audit_creation_date               2014/02/01
_audit_update_record               2014/08/01
_chemical_name_systematic          'Silver Sulfate(VI)'
_chemical_formula_structural       'Ag (S O4)'
_chemical_formula_sum              'Ag1 O4 S1'
_publ_section_title
;
Redetermination of crystal structure of Ag(II) S O4 and its high-
pressure behavior up to 30 GPa
;
loop_
_citation_id
_citation_journal_abbrev
_citation_year
_citation_journal_volume
_citation_journal_issue
_citation_page_first
_citation_page_last
_citation_journal_id_ASTM
primary CrystEngComm 2013 15 1 192 198 CRECF4
_publ_author_name
;
Derzsi, Mariana;Budzianowski, Armand;Struzhkin, Viktor V.;Malinowski, 
Przemyslaw J.;Leszczynski, Piotr J.;Mazej, Zoran;Grochala, Wojciech
;
_cell_length_a                     12.329
_cell_length_b                     12.204
_cell_length_c                     8.533
_cell_angle_alpha                  90
_cell_angle_beta                   45.41
_cell_angle_gamma                  90
_cell_volume                       914.33
_cell_formula_units_Z              16
_symmetry_space_group_name_H-M     'C 1 2/c 1'
_symmetry_Int_Tables_number        15
loop_
_symmetry_equiv_pos_site_id
_symmetry_equiv_pos_as_xyz
  1	'x, -y, z+.5'
  2	'-x, -y, -z'
  3	'-x, y, -z+.5'
  4	'x, y, z'
  5	'x+.5, -y+.5, z+.5'
  6	'-x+.5, -y+.5, -z'
  7	'-x+.5, y+.5, -z+.5'
  8	'x+.5, y+.5, z'
loop_
_atom_type_symbol
_atom_type_oxidation_number
Ag2+	2
O2-	-2
S6+	6
loop_
_atom_site_label
_atom_site_type_symbol
_atom_site_symmetry_multiplicity
_atom_site_Wyckoff_symbol
_atom_site_fract_x
_atom_site_fract_y
_atom_site_fract_z
_atom_site_occupancy
_atom_site_attached_hydrogens
Ag1 Ag2+ 4 a 0 0 0 1. 0 
Ag2 Ag2+ 4 b 0 0.5 0.5 1. 0 
Ag3 Ag2+ 4 c 0.25 0.25 0 1. 0 
Ag4 Ag2+ 4 d 0.25 0.25 0.5 1. 0 
S1 S6+ 8 f 0.99068 0.25086 0.03975 1 0 
S2 S6+ 8 f 0.25421 0.51726 0.00713 1 0 
O1 O2- 8 f 0.07352 0.83664 0.79665 1 0 
O2 O2- 8 f -0.1241 0.2584 0.5714 1 0 
O3 O2- 8 f 0.0597 0.2395 0.5626 1 0 
O4 O2- 8 f 0.0818 0.3640 0.3589 1 0 
O5 O2- 8 f 0.2997 0.1034 0.3983 1 0 
O6 O2- 8 f 0.1544 -0.0409 0.5100 1 0 
O7 O2- 8 f 0.3307 -0.0385 0.5200 1 0 
O8 O2- 8 f 0.1314 0.0714 0.7309 1 0 

#End of data_290375-ICSD


