data_87498-ICSD
#?2014 by Fachinformationszentrum Karlsruhe, and the U.S. Secretary of 
#Commerce on behalf of the United States.  All rights reserved.
_database_code_ICSD                87498
_audit_creation_date               2000/12/16
_chemical_name_systematic          'Calcium Disilicate - Alpha'
_chemical_formula_structural       'Ca (Si2 O5)'
_chemical_formula_sum              'Ca1 O5 Si2'
_publ_section_title
;
A new high pressure calcium silicate with five-coordinated 
silicon,alpha-(Ca Si2 O5) synthesized at 1500 C and 10 GPa
;
loop_
_citation_id
_citation_journal_abbrev
_citation_year
_citation_journal_volume
_citation_page_first
_citation_page_last
_citation_journal_id_ASTM
primary 'Rev. High Pressure Sci. Technol.' 1998 7 131 133 KKGIE2
_publ_author_name                  'Kudoh, Y.;Kanzaki, M.'
_cell_length_a                     7.243(2)
_cell_length_b                     7.546(4)
_cell_length_c                     6.501(4)
_cell_angle_alpha                  81.43(5)
_cell_angle_beta                   84.82(4)
_cell_angle_gamma                  69.60(3)
_cell_volume                       329.03
_cell_formula_units_Z              4
_symmetry_space_group_name_H-M     'P -1'
_symmetry_Int_Tables_number        2
_refine_ls_R_factor_all            .078
loop_
_symmetry_equiv_pos_site_id
_symmetry_equiv_pos_as_xyz
  1	'-x, -y, -z'
  2	'x, y, z'
loop_
_atom_type_symbol
_atom_type_oxidation_number
Ca2+	2
O2-	-2
Si4+	4
loop_
_atom_site_label
_atom_site_type_symbol
_atom_site_symmetry_multiplicity
_atom_site_Wyckoff_symbol
_atom_site_fract_x
_atom_site_fract_y
_atom_site_fract_z
_atom_site_occupancy
_atom_site_attached_hydrogens
_atom_site_B_iso_or_equiv
Ca1 Ca2+ 2 i 0.5420(2) 0.6804(2) 0.1820(2) 1. 0 0.55(2) 
Ca2 Ca2+ 2 i -.0290(2) 0.7858(2) 0.3891(2) 1. 0 0.63(2) 
Si1 Si4+ 1 f 0.5 0 0.5 1. 0 0.44(5) 
Si2 Si4+ 1 c 0 0.5 0 1. 0 0.45(5) 
Si3 Si4+ 2 i 0.7526(3) 0.2223(3) 0.1993(3) 1. 0 0.43(3) 
Si4 Si4+ 2 i 0.8017(3) -.0704(3) 0.8747(3) 1. 0 0.36(3) 
Si5 Si4+ 2 i 0.3165(3) 0.4205(3) 0.3414(3) 1. 0 0.42(3) 
O1 O2- 2 i 0.0027(7) 0.0986(7) 0.2844(7) 1. 0 0.56(8) 
O2 O2- 2 i 0.5004(7) 0.3669(7) 0.1723(8) 1. 0 0.53(8) 
O3 O2- 2 i 0.8433(7) 0.7434(7) 0.0508(7) 1. 0 0.46(8) 
O4 O2- 2 i 0.3012(8) 0.6121(8) 0.4295(8) 1. 0 0.84(9) 
O5 O2- 2 i 0.8118(7) 0.4168(7) 0.1157(8) 1. 0 0.56(8) 
O6 O2- 2 i 0.7757(8) 0.1221(8) -.0230(8) 1. 0 0.72(9) 
O7 O2- 2 i 0.8986(7) 0.5407(8) 0.7493(8) 1. 0 0.75(9) 
O8 O2- 2 i 0.6954(7) 0.0665(7) 0.3799(7) 1. 0 0.52(8) 
O9 O2- 2 i 0.3487(7) 0.2405(7) 0.5250(7) 1. 0 0.48(8) 
O10 O2- 2 i 0.4000(8) 0.0161(8) 0.2447(8) 1. 0 0.68(9) 

#End of data_87498-ICSD


