data_420478-ICSD
#?2014 by Fachinformationszentrum Karlsruhe, and the U.S. Secretary of 
#Commerce on behalf of the United States.  All rights reserved.
_database_code_ICSD                420478
_audit_creation_date               2010/02/01
_chemical_name_systematic          'Calcium Iridate(IV)'
_chemical_formula_structural       'Ca (Ir O3)'
_chemical_formula_sum              'Ca1 Ir1 O3'
_publ_section_title
;
The crystal structure of Ca Ir O3 post-perovskite revisited
;
loop_
_citation_id
_citation_journal_abbrev
_citation_year
_citation_journal_volume
_citation_journal_issue
_citation_page_first
_citation_page_last
_citation_journal_id_ASTM
primary 'Zeitschrift fuer Kristallographie (1979-2010)' 2009 224 7 345 350 ZEKRDZ
_publ_author_name
;
Hirai, S.;Welch, M.D.;Aguado, F.;Redfern, S.A.T.
;
_cell_length_a                     3.1430(2)
_cell_length_b                     9.8569(13)
_cell_length_c                     7.2924(6)
_cell_angle_alpha                  90.00
_cell_angle_beta                   90.00
_cell_angle_gamma                  90.00
_cell_volume                       225.92
_cell_formula_units_Z              4
_symmetry_space_group_name_H-M     'C m c m'
_symmetry_Int_Tables_number        63
_refine_ls_R_factor_all            .0131
loop_
_symmetry_equiv_pos_site_id
_symmetry_equiv_pos_as_xyz
  1	'-x, y, -z+.5'
  2	'-x, -y, z+.5'
  3	'-x, y, z'
  4	'-x, -y, -z'
  5	'x, -y, z+.5'
  6	'x, y, -z+.5'
  7	'x, -y, -z'
  8	'x, y, z'
  9	'-x+.5, y+.5, -z+.5'
 10	'-x+.5, -y+.5, z+.5'
 11	'-x+.5, y+.5, z'
 12	'-x+.5, -y+.5, -z'
 13	'x+.5, -y+.5, z+.5'
 14	'x+.5, y+.5, -z+.5'
 15	'x+.5, -y+.5, -z'
 16	'x+.5, y+.5, z'
loop_
_atom_type_symbol
_atom_type_oxidation_number
Ca2+	2
Ir4+	4
O2-	-2
loop_
_atom_site_label
_atom_site_type_symbol
_atom_site_symmetry_multiplicity
_atom_site_Wyckoff_symbol
_atom_site_fract_x
_atom_site_fract_y
_atom_site_fract_z
_atom_site_occupancy
_atom_site_attached_hydrogens
_atom_site_U_iso_or_equiv
Ir1 Ir4+ 4 a 0.0000 0.0000 0.0000 1 0 0.00315(6) 
Ca1 Ca2+ 4 c 0.0000 0.75025(9) 0.2500 1 0 0.00563(11) 
O1 O2- 4 c 0.0000 0.0757(3) 0.2500 1 0 0.0048(4) 
O2 O2- 8 f 0.0000 0.3724(2) 0.4493(3) 1 0 0.0058(3) 

loop_
_atom_site_aniso_label
_atom_site_aniso_type_symbol
_atom_site_aniso_U_11
_atom_site_aniso_U_22
_atom_site_aniso_U_33
_atom_site_aniso_U_12
_atom_site_aniso_U_13
_atom_site_aniso_U_23
Ir1 Ir4+ 0.00304(8) 0.00291(7) 0.00349(7) 0.000 0.000 0.00013(3)
Ca1 Ca2+ 0.0049(2) 0.0049(2) 0.0071(2) 0.000 0.000 0.000
O1 O2- 0.0065(10) 0.0043(8) 0.0037(8) 0.000 0.000 0.000
O2 O2- 0.0047(7) 0.0050(6) 0.0077(7) 0.000 0.000 -0.0006(6)
#End of data_420478-ICSD


