data_159925-ICSD
#?2014 by Fachinformationszentrum Karlsruhe, and the U.S. Secretary of 
#Commerce on behalf of the United States.  All rights reserved.
_database_code_ICSD                159925
_audit_creation_date               2008/08/01
_chemical_name_systematic          'Calcium Dialuminate'
_chemical_formula_structural       'Ca (Al2 O4)'
_chemical_formula_sum              'Al2 Ca1 O4'
_publ_section_title
;
Structure of gallium-doped mayenite and its reduction behaviour
;
loop_
_citation_id
_citation_journal_abbrev
_citation_year
_citation_journal_volume
_citation_journal_issue
_citation_page_first
_citation_page_last
_citation_journal_id_ASTM
primary 'Physica Status Solidi B - Basic Solid State Physics'
 2008 245 4 666 672 PSSBBD
2 'Journal of Inorganic and Nuclear Chemistry' 1976 38- 983 984 JINCAO
_publ_author_name
;
Palacios, L.;Bruque, S.;Aranda, M.A.G.
;
_cell_length_a                     8.69417(20)
_cell_length_b                     8.09299(19)
_cell_length_c                     15.20965(32)
_cell_angle_alpha                  90.0
_cell_angle_beta                   90.1665(19)
_cell_angle_gamma                  90.0
_cell_volume                       1070.17
_cell_formula_units_Z              12
_symmetry_space_group_name_H-M     'P 1 21/n 1'
_symmetry_Int_Tables_number        14
loop_
_symmetry_equiv_pos_site_id
_symmetry_equiv_pos_as_xyz
  1	'-x+.5, y+.5, -z+.5'
  2	'-x, -y, -z'
  3	'x+.5, -y+.5, z+.5'
  4	'x, y, z'
loop_
_atom_type_symbol
_atom_type_oxidation_number
Al3+	3
Ca2+	2
O2-	-2
loop_
_atom_site_label
_atom_site_type_symbol
_atom_site_symmetry_multiplicity
_atom_site_Wyckoff_symbol
_atom_site_fract_x
_atom_site_fract_y
_atom_site_fract_z
_atom_site_occupancy
_atom_site_attached_hydrogens
_atom_site_U_iso_or_equiv
Ca1 Ca2+ 4 e 0.2388 0.0343 0.0893 1.0 0 0.007 
Ca2 Ca2+ 4 e 0.2686 0.4702 0.0709 1.0 0 0.007 
Ca3 Ca2+ 4 e 0.7396 0.5286 0.247 1.0 0 0.01 
Al1 Al3+ 4 e 0.4241 0.3268 0.2385 1.0 0 0.006 
Al2 Al3+ 4 e 0.4192 0.7244 0.2329 1.0 0 0.006 
Al3 Al3+ 4 e 0.5987 0.8289 0.0781 1.0 0 0.006 
Al4 Al3+ 4 e 0.6126 0.2193 0.0806 1.0 0 0.007 
Al5 Al3+ 4 e 0.9352 0.7276 0.0917 1.0 0 0.006 
Al6 Al3+ 4 e 0.94 0.3341 0.0921 1.0 0 0.007 
O1 O2- 4 e 0.077 0.24 0.023 1.0 0 0.006 
O2 O2- 4 e 0.016 0.532 0.111 1.0 0 0.007 
O3 O2- 4 e 0.054 0.863 0.149 1.0 0 0.007 
O4 O2- 4 e 0.246 0.246 0.204 1.0 0 0.004 
O5 O2- 4 e 0.436 0.26 0.027 1.0 0 0.006 
O6 O2- 4 e 0.43 0.853 0.141 1.0 0 0.006 
O7 O2- 4 e 0.433 0.524 0.189 1.0 0 0.007 
O8 O2- 4 e 0.583 0.227 0.195 1.0 0 0.006 
O9 O2- 4 e 0.679 0.024 0.055 1.0 0 0.006 
O10 O2- 4 e 0.756 0.355 0.047 1.0 0 0.005 
O11 O2- 4 e 0.748 0.727 0.134 1.0 0 0.007 
O12 O2- 4 e 0.922 0.245 0.197 1.0 0 0.005 

#End of data_159925-ICSD


