data_290705-ICSD
#?2014 by Fachinformationszentrum Karlsruhe, and the U.S. Secretary of 
#Commerce on behalf of the United States.  All rights reserved.
_database_code_ICSD                290705
_audit_creation_date               2014/08/01
_chemical_name_systematic          'Silver Chlorate(VII)'
_chemical_formula_structural       'Ag (Cl O4)'
_chemical_formula_sum              'Ag1 Cl1 O4'
_publ_section_title
;
Pressure-induced phase transition of Ag Cl O4: A first - principles 
study
;
loop_
_citation_id
_citation_journal_abbrev
_citation_year
_citation_journal_volume
_citation_page_first
_citation_page_last
_citation_journal_id_ASTM
primary 'Solid State Communications' 2013 165 1 5 SSCOA4
_publ_author_name
;
Cui, Shouxin;Huang, Lin;Li, Quanyi;Hu, Haiquan;Feng, Wenxia
;
_cell_length_a                     4.723
_cell_length_b                     6.855
_cell_length_c                     4.704
_cell_angle_alpha                  90.
_cell_angle_beta                   90.
_cell_angle_gamma                  90.
_cell_volume                       152.3
_cell_formula_units_Z              2
_symmetry_space_group_name_H-M     'P 1 21/m 1'
_symmetry_Int_Tables_number        11
loop_
_symmetry_equiv_pos_site_id
_symmetry_equiv_pos_as_xyz
  1	'x, -y+.5, z'
  2	'-x, -y, -z'
  3	'-x, y+.5, -z'
  4	'x, y, z'
loop_
_atom_type_symbol
_atom_type_oxidation_number
Ag1+	1
Cl7+	7
O2-	-2
loop_
_atom_site_label
_atom_site_type_symbol
_atom_site_symmetry_multiplicity
_atom_site_Wyckoff_symbol
_atom_site_fract_x
_atom_site_fract_y
_atom_site_fract_z
_atom_site_occupancy
_atom_site_attached_hydrogens
Ag1 Ag1+ 2 e 0.2069 0.25 1.145 1. 0 
Cl1 Cl7+ 2 e 0.2990 0.25 0.3594 1. 0 
O1 O2- 4 f 0.1664 0.5811 0.2360 1. 0 
O2 O2- 2 e 0.5973 0.25 0.3054 1. 0 
O3 O2- 2 e 0.2684 0.25 0.6625 1. 0 

#End of data_290705-ICSD


