data_171933-ICSD
#?2014 by Fachinformationszentrum Karlsruhe, and the U.S. Secretary of 
#Commerce on behalf of the United States.  All rights reserved.
_database_code_ICSD                171933
_audit_creation_date               2007/04/01
_chemical_name_systematic
;
Trimanganese Zinc Calcium Catena-pentasiliacte
;
_chemical_formula_structural       'Mn3 Zn Ca Si5 O15'
_chemical_formula_sum              'Ca1 Mn3 O15 Si5 Zn1'
_chemical_name_mineral             Fowlerite
_publ_section_title
;
Crystal chemistry of Zn-rich rhodonite ("fowlerite")
;
loop_
_citation_id
_citation_journal_abbrev
_citation_year
_citation_journal_volume
_citation_page_first
_citation_page_last
_citation_journal_id_ASTM
primary 'American Mineralogist' 2005 90 969 983 AMMIAY
_publ_author_name                  'Nelson, W.R.;Griffen, D.T.'
_cell_length_a                     9.8640(7)
_cell_length_b                     10.5237(4)
_cell_length_c                     12.2180(9)
_cell_angle_alpha                  108.727(6)
_cell_angle_beta                   103.705(5)
_cell_angle_gamma                  82.082(6)
_cell_volume                       1164.33
_cell_formula_units_Z              4
_symmetry_space_group_name_H-M     'C -1'
_symmetry_Int_Tables_number        2
_refine_ls_R_factor_all            .043
loop_
_symmetry_equiv_pos_site_id
_symmetry_equiv_pos_as_xyz
  1	'-x, -y, -z'
  2	'x, y, z'
  3	'-x+.5, -y+.5, -z'
  4	'x+.5, y+.5, z'
loop_
_atom_type_symbol
_atom_type_oxidation_number
Ca2+	2
Mn2+	2
O2-	-2
Si4+	4
Zn2+	2
loop_
_atom_site_label
_atom_site_type_symbol
_atom_site_symmetry_multiplicity
_atom_site_Wyckoff_symbol
_atom_site_fract_x
_atom_site_fract_y
_atom_site_fract_z
_atom_site_occupancy
_atom_site_attached_hydrogens
_atom_site_U_iso_or_equiv
Mn1 Mn2+ 4 i -0.00128(4) 0.03111(4) 0.14683(3) 1. 0 0.0066(1) 
Mn2 Mn2+ 4 i 0.00093(4) 0.12617(4) 0.44421(3) 1. 0 0.0066(1) 
Mn3 Mn2+ 4 i 0.01673(4) 0.20418(4) 0.72918(3) 1. 0 0.0066(1) 
Zn1 Zn2+ 4 i 0.06598(4) 0.26339(4) 0.02164(3) 1. 0 0.0102(1) 
Ca1 Ca2+ 4 i 0.99395(5) 0.35807(5) 0.30592(4) 1. 0 0.0102(1) 
Si1 Si4+ 4 i 0.20500(7) 0.44935(6) 0.91108(6) 1. 0 0.0051(1) 
Si2 Si4+ 4 i 0.21304(7) 0.36632(6) 0.65348(6) 1. 0 0.0047(1) 
Si3 Si4+ 4 i 0.21770(7) 0.57982(6) 0.52867(6) 1. 0 0.0047(1) 
Si4 Si4+ 4 i 0.21395(7) 0.50607(7) 0.2594(6) 1. 0 0.0054(1) 
Si5 Si4+ 4 i 0.20285(7) 0.70063(6) 0.12388(6) 1. 0 0.0054(1) 
O1 O2- 4 i 0.1270(2) 0.0722(2) 0.0397(2) 1. 0 0.0075(3) 
O2 O2- 4 i 0.1188(2) 0.1577(2) 0.3225(2) 1. 0 0.0074(3) 
O3 O2- 4 i 0.1135(2) 0.9230(2) 0.4365(2) 1. 0 0.0076(3) 
O4 O2- 4 i 0.1194(2) 0.0131(2) 0.7325(2) 1. 0 0.0078(3) 
O5 O2- 4 i 0.1329(2) 0.7901(2) 0.8529(2) 1. 0 0.0078(3) 
O6 O2- 4 i 0.0957(2) 0.8320(2) 0.1284(2) 1. 0 0.0088(3) 
O7 O2- 4 i 0.1298(2) 0.3200(2) 0.9015(2) 1. 0 0.0092(3) 
O8 O2- 4 i 0.1254(2) 0.2360(2) 0.6102(2) 1. 0 0.0080(3) 
O9 O2- 4 i 0.1310(2) 0.7122(2) 0.5872(2) 1. 0 0.0104(3) 
O10 O2- 4 i 0.1258(2) 0.3807(2) 0.1804(2) 1. 0 0.0102(3) 
O11 O2- 4 i 0.1706(2) 0.4686(2) 0.7777(2) 1. 0 0.0075(3) 
O12 O2- 4 i 0.1597(2) 0.4592(2) 0.5635(2) 1. 0 0.0093(3) 
O13 O2- 4 i 0.1662(2) 0.5354(2) 0.3855(2) 1. 0 0.0092(3) 
O14 O2- 4 i 0.1571(2) 0.6423(2) 0.2203(2) 1. 0 0.0078(3) 
O15 O2- 4 i 0.1457(2) 0.5907(2) 0.99514(2) 1. 0 0.0081(3) 

loop_
_atom_site_aniso_label
_atom_site_aniso_type_symbol
_atom_site_aniso_U_11
_atom_site_aniso_U_22
_atom_site_aniso_U_33
_atom_site_aniso_U_12
_atom_site_aniso_U_13
_atom_site_aniso_U_23
Mn1 Mn2+ 0.0056 0.0067 0.0080 0.0024 0.0026 0.0000
Mn2 Mn2+ 0.0056 0.0079 0.0069 0.0024 0.0022 -0.0001
Mn3 Mn2+ 0.0061 0.0073 0.0068 0.0016 0.0027 -0.0003
Zn1 Zn2+ 0.0152 0.0083 0.0061 0.0020 -0.0008 -0.0028
Ca1 Ca2+ 0.0078 0.0114 0.0145 0.0062 0.0053 -0.0005
Si1 Si4+ 0.0037 0.0067 0.0044 0.0010 0.0010 -0.0008
Si2 Si4+ 0.0036 0.0062 0.0049 0.0022 0.0017 -0.0003
Si3 Si4+ 0.0031 0.0069 0.0044 0.0017 0.0014 -0.0001
Si4 Si4+ 0.0036 0.0078 0.0054 0.0026 0.0015 0.0000
Si5 Si4+ 0.0043 0.0063 0.0060 0.0019 0.0022 0.0008
O1 O2- 0.0037 0.0101 0.0085 0.0024 0.0016 0.0001
O2 O2- 0.0020 0.0108 0.0101 0.0038 0.0022 .000
O3 O2- 0.0045 0.0097 0.0084 0.0027 0.0007 -0.0011
O4 O2- 0.0039 0.0098 0.0112 0.0044 0.0027 0.0003
O5 O2- 0.0050 0.0089 0.0090 0.0016 0.0022 -0.0006
O6 O2- 0.0082 0.0070 0.0122 0.0038 0.0040 0.0015
O7 O2- 0.0097 0.0093 0.0094 0.0024 0.0026 -0.0036
O8 O2- 0.0081 0.0082 0.0078 0.0020 0.0008 -0.0039
O9 O2- 0.0086 0.0096 0.0117 0.0017 0.0032 0.0023
O10 O2- 0.0082 0.0118 0.0094 0.0007 0.0017 -0.0038
O11 O2- 0.0078 0.0091 0.0061 0.0018 0.0037 0.0011
O12 O2- 0.0076 0.0136 0.0100 0.0074 0.0020 -0.0019
O13 O2- 0.0085 0.0153 0.0046 0.0031 0.0019 -0.0020
O14 O2- 0.0076 0.0102 0.0081 0.0058 0.0030 0.0013
O15 O2- 0.0064 0.0097 0.0057 -0.0009 0.0014 0.0001
#End of data_171933-ICSD


