data_245398-ICSD
#?2014 by Fachinformationszentrum Karlsruhe, and the U.S. Secretary of 
#Commerce on behalf of the United States.  All rights reserved.
_database_code_ICSD                245398
_audit_creation_date               2008/02/01
_chemical_name_systematic          'Tetralithium Tetraoxocarbonate'
_chemical_formula_structural       'Li4 (C O4)'
_chemical_formula_sum              'C1 Li4 O4'
_publ_section_title
;
Possible existence of alkali metal orthocarbonates at high pressure
;
loop_
_citation_id
_citation_journal_abbrev
_citation_year
_citation_journal_volume
_citation_journal_issue
_citation_page_first
_citation_page_last
_citation_journal_id_ASTM
primary 'Chemistry - A European Journal' 2007 13 26 7330 7348 CEUJED
_publ_author_name
;
Cancarevic, Z.;Schoen, J.C.;Jansen, M.
;
_cell_length_a                     5.23401
_cell_length_b                     5.97460
_cell_length_c                     3.95016
_cell_angle_alpha                  90
_cell_angle_beta                   96.94540
_cell_angle_gamma                  90
_cell_volume                       122.62
_cell_formula_units_Z              2
_symmetry_space_group_name_H-M     'C 1 m 1'
_symmetry_Int_Tables_number        8
loop_
_symmetry_equiv_pos_site_id
_symmetry_equiv_pos_as_xyz
  1	'x, -y, z'
  2	'x, y, z'
  3	'x+.5, -y+.5, z'
  4	'x+.5, y+.5, z'
loop_
_atom_type_symbol
_atom_type_oxidation_number
C4+	4
Li1+	1
O2-	-2
loop_
_atom_site_label
_atom_site_type_symbol
_atom_site_symmetry_multiplicity
_atom_site_Wyckoff_symbol
_atom_site_fract_x
_atom_site_fract_y
_atom_site_fract_z
_atom_site_occupancy
_atom_site_attached_hydrogens
C1 C4+ 2 a 0.99962 0 0.60672 1. 0 
O1 O2- 4 b 0.51033 0.29793 0.38925 1. 0 
O2 O2- 2 a 0.75346 0 0.75886 1. 0 
O3 O2- 2 a 0.21916 0 0.88522 1. 0 
Li1 Li1+ 2 a 0.31680 0 0.40552 1. 0 
Li2 Li1+ 4 b 0.43371 0.24098 0.87994 1. 0 
Li3 Li1+ 2 a 0.72041 0 0.26351 1. 0 

#End of data_245398-ICSD


