data_280069-ICSD
#?2014 by Fachinformationszentrum Karlsruhe, and the U.S. Secretary of 
#Commerce on behalf of the United States.  All rights reserved.
_database_code_ICSD                280069
_audit_creation_date               2000/07/15
_chemical_name_systematic          'Silver Cesium Bis(nitrate(V))'
_chemical_formula_structural       'Ag Cs (N O3)2'
_chemical_formula_sum              'Ag1 Cs1 N2 O6'
_publ_section_title
;
Nitrate d'argent et de cesium: Ag Cs (N O3)2
;
loop_
_citation_id
_citation_journal_abbrev
_citation_year
_citation_journal_volume
_citation_page_first
_citation_page_last
_citation_journal_id_ASTM
primary 'Acta Crystallographica, Section C: Crystal Structure Communications'
 1999 55 281 282 ACSCEE
_publ_author_name
;
Ben Amor, F.;Hellali, D.;Zamali, H.
;
_cell_length_a                     20.4300(40)
_cell_length_b                     5.591(4)
_cell_length_c                     5.2880(6)
_cell_angle_alpha                  90.
_cell_angle_beta                   93.26(1)
_cell_angle_gamma                  90.
_cell_volume                       603.04
_cell_formula_units_Z              4
_symmetry_space_group_name_H-M     'C 1 2/m 1'
_symmetry_Int_Tables_number        12
_refine_ls_R_factor_all            .045
loop_
_symmetry_equiv_pos_site_id
_symmetry_equiv_pos_as_xyz
  1	'-x, y, -z'
  2	'-x, -y, -z'
  3	'x, -y, z'
  4	'x, y, z'
  5	'-x+.5, y+.5, -z'
  6	'-x+.5, -y+.5, -z'
  7	'x+.5, -y+.5, z'
  8	'x+.5, y+.5, z'
loop_
_atom_type_symbol
_atom_type_oxidation_number
Ag1+	1
Cs1+	1
N5+	5
O2-	-2
loop_
_atom_site_label
_atom_site_type_symbol
_atom_site_symmetry_multiplicity
_atom_site_Wyckoff_symbol
_atom_site_fract_x
_atom_site_fract_y
_atom_site_fract_z
_atom_site_occupancy
_atom_site_attached_hydrogens
Ag1 Ag1+ 4 i 0.18055(4) 0 0.8113(2) 1. 0 
Cs1 Cs1+ 4 i 0.09010(3) 0.5 0.2686(1) 1. 0 
N1 N5+ 4 i 0.0393(4) 0 0.7576(13) 1. 0 
N2 N5+ 4 i 0.2411(4) 0 0.3217(15) 1. 0 
O1 O2- 4 i -.0219(4) 0 0.7449(13) 1. 0 
O2 O2- 8 j 0.0715(3) -.1929(11) 0.7686(9) 1. 0 
O3 O2- 4 i 0.2642(4) 0 0.5329(14) 1. 0 
O4 O2- 4 i 0.1805(4) 0 0.2764(16) 1. 0 
O5 O2- 4 i 0.2778(5) 0 0.1476(18) 1. 0 

loop_
_atom_site_aniso_label
_atom_site_aniso_type_symbol
_atom_site_aniso_U_11
_atom_site_aniso_U_22
_atom_site_aniso_U_33
_atom_site_aniso_U_12
_atom_site_aniso_U_13
_atom_site_aniso_U_23
Ag1 Ag1+ 0.0328(5) 0.0586(6) 0.0333(5) 0 -.0004(3) 0
Cs1 Cs1+ 0.0336(4) 0.0284(4) 0.0320(4) 0 -.0039(2) 0
N1 N5+ 0.026(3) 0.027(3) 0.019(3) 0 0.000(2) 0
N2 N5+ 0.028(3) 0.024(3) 0.031(3) 0 -.001(3) 0
O1 O2- 0.023(3) 0.049(4) 0.025(3) 0 0.004(2) 0
O2 O2- 0.046(3) 0.036(3) 0.034(2) 0.016(2) 0.000(2) -.001(2)
O3 O2- 0.033(3) 0.037(4) 0.033(3) 0 -.007(3) 0
O4 O2- 0.024(3) 0.046(4) 0.042(4) 0 -.010(3) 0
O5 O2- 0.059(6) 0.058(6) 0.045(5) 0 0.018(4) 0
#End of data_280069-ICSD


