data_160356-ICSD
#?2014 by Fachinformationszentrum Karlsruhe, and the U.S. Secretary of 
#Commerce on behalf of the United States.  All rights reserved.
_database_code_ICSD                160356
_audit_creation_date               2008/08/01
_chemical_name_systematic          'Dicalcium Magnesium Disilicate'
_chemical_formula_structural       'Ca2 Mg (Si2 O7)'
_chemical_formula_sum              'Ca2 Mg1 O7 Si2'
_chemical_name_mineral             Akermanite
_publ_section_title
;
High-temperature behaviour of melilite: in situ X-ray diffraction 
study of gehlenite - akermanite - Na melilite solid solution
;
loop_
_citation_id
_citation_journal_abbrev
_citation_year
_citation_journal_volume
_citation_page_first
_citation_page_last
_citation_journal_id_ASTM
primary 'Physics and Chemistry of Minerals' 2008 35 147 155 PCMIDU
_publ_author_name
;
Merlini, M.;Gemmi, M.;Cruciani, G.;Artioli, G.
;
_cell_length_a                     7.866
_cell_length_b                     7.866
_cell_length_c                     5.023
_cell_angle_alpha                  90.
_cell_angle_beta                   90.
_cell_angle_gamma                  90.
_cell_volume                       310.79
_cell_formula_units_Z              2
_symmetry_space_group_name_H-M     'P -4 21 m'
_symmetry_Int_Tables_number        113
_refine_ls_R_factor_all            .04
loop_
_symmetry_equiv_pos_site_id
_symmetry_equiv_pos_as_xyz
  1	'-y+.5, -x+.5, z'
  2	'y, -x, -z'
  3	'y+.5, x+.5, z'
  4	'-y, x, -z'
  5	'x+.5, -y+.5, -z'
  6	'-x, -y, z'
  7	'-x+.5, y+.5, -z'
  8	'x, y, z'
loop_
_atom_type_symbol
_atom_type_oxidation_number
Ca2+	2
Mg2+	2
O2-	-2
Si4+	4
loop_
_atom_site_label
_atom_site_type_symbol
_atom_site_symmetry_multiplicity
_atom_site_Wyckoff_symbol
_atom_site_fract_x
_atom_site_fract_y
_atom_site_fract_z
_atom_site_occupancy
_atom_site_attached_hydrogens
Ca1 Ca2+ 4 e 0.3319 0.1681 0.5057 1. 0 
Mg1 Mg2+ 2 a 0 0 0 1. 0 
Si1 Si4+ 4 e 0.1397 0.3603 0.9342 1. 0 
O1 O2- 2 c 0.5 0 0.1807 1. 0 
O2 O2- 4 e 0.1411 0.3589 0.2517 1. 0 
O3 O2- 8 f 0.0818 0.1873 0.7863 1. 0 

loop_
_atom_site_aniso_label
_atom_site_aniso_type_symbol
_atom_site_aniso_U_11
_atom_site_aniso_U_22
_atom_site_aniso_U_33
_atom_site_aniso_U_12
_atom_site_aniso_U_13
_atom_site_aniso_U_23
Ca1 Ca2+ 0.0277 0.0277 0.0225 0.0084 0.0042 -0.0042
Mg1 Mg2+ 0.0146 0.0146 0.0202 0. 0. 0.
Si1 Si4+ 0.0139 0.0139 0.0145 0.0016 -0.0001 0.0001
O1 O2- 0.0322 0.0322 0.0156 -0.0215 0. 0.
O2 O2- 0.0371 0.0371 0.0177 0.0113 -0.0021 0.0021
O3 O2- 0.0413 0.0163 0.0246 -0.0080 0.0064 -0.0019
#End of data_160356-ICSD


