data_62998-ICSD
#?2014 by Fachinformationszentrum Karlsruhe, and the U.S. Secretary of 
#Commerce on behalf of the United States.  All rights reserved.
_database_code_ICSD                62998
_audit_creation_date               1989/06/19
_audit_update_record               2006/04/01
_chemical_name_systematic          'Dirubidium Tetrabromozincate'
_chemical_formula_structural       'Rb2 (Zn Br4)'
_chemical_formula_sum              'Br4 Rb2 Zn1'
_publ_section_title
;
Structural study of three modulated phases in Rb2 Zn Br4
;
loop_
_citation_id
_citation_journal_abbrev
_citation_year
_citation_journal_volume
_citation_page_first
_citation_page_last
_citation_journal_id_ASTM
primary 'Acta Crystallographica, Section B: Structural Science'
 1988 44 120 128 ASBSDK
2 'Golden Book of Phase Transitions, Wroclaw' 2002 1 1 123 GBOPT5
_publ_author_name                  'Hogervorst, A.C.R.;Helmholdt, R.B.'
_cell_length_a                     13.330(3)
_cell_length_b                     7.656(2)
_cell_length_c                     9.707(2)
_cell_angle_alpha                  90.
_cell_angle_beta                   90.
_cell_angle_gamma                  90.
_cell_volume                       990.64
_cell_formula_units_Z              4
_symmetry_space_group_name_H-M     'P c m n'
_symmetry_Int_Tables_number        62
_refine_ls_R_factor_all            .08
loop_
_symmetry_equiv_pos_site_id
_symmetry_equiv_pos_as_xyz
  1	'-x+.5, y, z+.5'
  2	'x, -y+.5, z'
  3	'x+.5, y+.5, -z+.5'
  4	'-x, -y, -z'
  5	'x+.5, -y, -z+.5'
  6	'-x, y+.5, -z'
  7	'-x+.5, -y+.5, z+.5'
  8	'x, y, z'
loop_
_atom_type_symbol
_atom_type_oxidation_number
Br1-	-1
Rb1+	1
Zn2+	2
loop_
_atom_site_label
_atom_site_type_symbol
_atom_site_symmetry_multiplicity
_atom_site_Wyckoff_symbol
_atom_site_fract_x
_atom_site_fract_y
_atom_site_fract_z
_atom_site_occupancy
_atom_site_attached_hydrogens
Rb1 Rb1+ 4 c 0.3234(1) 0.25 0.5153(1) 1. 0 
Rb2 Rb1+ 4 c 0.5968(1) 0.25 0.8730(1) 1. 0 
Zn1 Zn2+ 4 c 0.5777(1) 0.25 0.2746(1) 1. 0 
Br1 Br1- 4 c 0.5831(1) 0.25 0.5184(1) 1. 0 
Br2 Br1- 4 c 0.4126(1) 0.25 0.1802(1) 1. 0 
Br3 Br1- 8 d 0.6593(1) 0.5012(1) 0.1839(1) 1. 0 

loop_
_atom_site_aniso_label
_atom_site_aniso_type_symbol
_atom_site_aniso_U_11
_atom_site_aniso_U_22
_atom_site_aniso_U_33
_atom_site_aniso_U_12
_atom_site_aniso_U_13
_atom_site_aniso_U_23
Rb1 Rb1+ 0.0354(6) 0.0593(9) 0.0367(6) 0 0.0029(5) 0
Rb2 Rb1+ 0.1170(14) 0.0696(11) 0.0369(8) 0 -0.0055(8) 0
Zn1 Zn2+ 0.0296(7) 0.0279(7) 0.0292(7) 0 -0.0004(5) 0
Br1 Br1- 0.0602(9) 0.1152(18) 0.0240(6) 0 -0.0074(6) 0
Br2 Br1- 0.0338(7) 0.1165(22) 0.0414(8) 0 -0.0121(6) 0
Br3 Br1- 0.0982(11) 0.0378(7) 0.0631(8) -0.0316(8) 0.0250(9) -0.0046(6)
#End of data_62998-ICSD


