data_20642-ICSD
#?2014 by Fachinformationszentrum Karlsruhe, and the U.S. Secretary of 
#Commerce on behalf of the United States.  All rights reserved.
_database_code_ICSD                20642
_audit_creation_date               1983/12/31
_audit_update_record               2014/08/01
_chemical_name_systematic
;
Sodium Magnesium Cyclo-triphosphate
;
_chemical_formula_structural       'Na Mg (P O3)3'
_chemical_formula_sum              'Mg1 Na1 O9 P3'
_publ_section_title
;
The crystal structure of sodium magnesium metaphosphate
;
loop_
_citation_id
_citation_journal_abbrev
_citation_year
_citation_journal_volume
_citation_page_first
_citation_page_last
_citation_journal_id_ASTM
primary 'Doklady Akademii Nauk SSSR' 1983 272 610 614 DANKAS
_publ_author_name
;
Shepelev, Yu.F.;Smolin, Yu.I.;Domanskii, A.I.;Lavrov, A.V.
;
_cell_length_a                     14.304(3)
_cell_length_b                     14.183(5)
_cell_length_c                     14.231(4)
_cell_angle_alpha                  90.
_cell_angle_beta                   90.
_cell_angle_gamma                  90.
_cell_volume                       2887.09
_cell_formula_units_Z              16
_symmetry_space_group_name_H-M     'P b c a'
_symmetry_Int_Tables_number        61
_refine_ls_R_factor_all            .022
loop_
_symmetry_equiv_pos_site_id
_symmetry_equiv_pos_as_xyz
  1	'x+.5, y, -z+.5'
  2	'x, -y+.5, z+.5'
  3	'-x+.5, y+.5, z'
  4	'-x, -y, -z'
  5	'-x+.5, -y, z+.5'
  6	'-x, y+.5, -z+.5'
  7	'x+.5, -y+.5, -z'
  8	'x, y, z'
loop_
_atom_type_symbol
_atom_type_oxidation_number
Mg2+	2
Na1+	1
O2-	-2
P5+	5
loop_
_atom_site_label
_atom_site_type_symbol
_atom_site_symmetry_multiplicity
_atom_site_Wyckoff_symbol
_atom_site_fract_x
_atom_site_fract_y
_atom_site_fract_z
_atom_site_occupancy
_atom_site_attached_hydrogens
P1 P5+ 8 c 0.02577(2) 0.24520(2) 0.47644(3) 1. 0 
P2 P5+ 8 c 0.22710(2) 0.22593(2) 0.50114(3) 1. 0 
P3 P5+ 8 c 0.26103(2) 0.02147(2) 0.47946(3) 1. 0 
P4 P5+ 8 c 0.27275(2) 0.00002(2) 0.27788(3) 1. 0 
P5 P5+ 8 c 0.47493(2) 0.01853(2) 0.23565(3) 1. 0 
P6 P5+ 8 c 0.48745(2) 0.22198(2) 0.22543(3) 1. 0 
Mg1 Mg2+ 8 c 0.12680(3) 0.11710(3) 0.13001(4) 1. 0 
Mg2 Mg2+ 8 c 0.38052(3) 0.36666(3) 0.38369(4) 1. 0 
Na1 Na1+ 4 a 0 0.5 0.5 1. 0 
Na2 Na1+ 4 b 0.5 0.5 0.5 1. 0 
Na3 Na1+ 8 c 0.24771(5) 0.24824(5) 0.25550(7) 1. 0 
O1 O2- 8 c 0.48885(7) 0.27264(7) 0.12564(10) 1. 0 
O2 O2- 8 c 0.02850(7) 0.16675(7) 0.031190(9) 1. 0 
O3 O2- 8 c 0.47395(8) 0.33690(7) 0.48658(10) 1. 0 
O4 O2- 8 c 0.12859(7) 0.20980(9) 0.45119(11) 1. 0 
O5 O2- 8 c 0.21756(7) 0.22278(7) 0.09109(10) 1. 0 
O6 O2- 8 c 0.29020(8) 0.26316(8) 0.42770(11) 1. 0 
O7 O2- 8 c 0.25521(9) 0.37843(7) 0.02914(10) 1. 0 
O8 O2- 8 c 0.15962(7) 0.02839(7) 0.02414(10) 1. 0 
O9 O2- 8 c 0.33203(7) 0.47566(7) 0.47587(10) 1. 0 
O10 O2- 8 c 0.29260(7) 0.05144(7) 0.37591(10) 1. 0 
O11 O2- 8 c 0.23288(8) 0.07289(8) 0.21545(10) 1. 0 
O12 O2- 8 c 0.27719(7) 0.40965(7) 0.29273(10) 1. 0 
O13 O2- 8 c 0.12482(6) 0.47035(7) 0.24505(10) 1. 0 
O14 O2- 8 c 0.47555(7) 0.46854(8) 0.34062(11) 1. 0 
O15 O2- 8 c 0.02070(7) 0.02635(7) 0.17102(11) 1. 0 
O16 O2- 8 c 0.44589(7) 0.12086(7) 0.19825(10) 1. 0 
O17 O2- 8 c 0.41636(8) 0.27262(8) 0.28164(10) 1. 0 
O18 O2- 8 c 0.08370(7) 0.20996(7) 0.23707(10) 1. 0 

#End of data_20642-ICSD


