data_186771-ICSD
#?2014 by Fachinformationszentrum Karlsruhe, and the U.S. Secretary of 
#Commerce on behalf of the United States.  All rights reserved.
_database_code_ICSD                186771
_audit_creation_date               2013/08/01
_chemical_name_systematic          'Calcium Carbonate'
_chemical_formula_structural       'Ca (C O3)'
_chemical_formula_sum              'C1 Ca1 O3'
_chemical_name_mineral             Calcite
_publ_section_title
;
Ca C O3 - III and Ca C O3 - VI, high-pressure polymorphs of calcite: 
Possible host structures for carbon in the Earth's mantle
;
loop_
_citation_id
_citation_journal_abbrev
_citation_year
_citation_journal_volume
_citation_page_first
_citation_page_last
_citation_journal_id_ASTM
primary 'Earth and Planetary Science Letters' 2012 333 265 271 EPSLA2
_publ_author_name
;
Merlini, M.;Hanfland, M.;Crichton, W.A.
;
_cell_length_a                     6.2811(13)
_cell_length_b                     7.5073(13)
_cell_length_c                     12.516(3)
_cell_angle_alpha                  93.76(2)
_cell_angle_beta                   98.95(2)
_cell_angle_gamma                  106.49(2)
_cell_volume                       555.25
_cell_formula_units_Z              10
_symmetry_space_group_name_H-M     'P -1'
_symmetry_Int_Tables_number        2
_refine_ls_R_factor_all            .0778
loop_
_symmetry_equiv_pos_site_id
_symmetry_equiv_pos_as_xyz
  1	'-x, -y, -z'
  2	'x, y, z'
loop_
_atom_type_symbol
_atom_type_oxidation_number
C4+	4
Ca2+	2
O2-	-2
loop_
_atom_site_label
_atom_site_type_symbol
_atom_site_symmetry_multiplicity
_atom_site_Wyckoff_symbol
_atom_site_fract_x
_atom_site_fract_y
_atom_site_fract_z
_atom_site_occupancy
_atom_site_attached_hydrogens
_atom_site_U_iso_or_equiv
Ca1 Ca2+ 2 i 0.3356(11) 0.6503(7) 0.5610(5) 1. 0 0.0163(7) 
Ca2 Ca2+ 2 i -0.2277(11) 0.8775(7) 0.3813(5) 1. 0 0.0159(7) 
Ca3 Ca2+ 2 i 0.0236(11) 0.4825(8) 0.7875(5) 1. 0 0.0171(7) 
Ca4 Ca2+ 2 i 0.9085(10) 0.9326(7) 0.8269(5) 1. 0 0.0148(7) 
Ca5 Ca2+ 2 i 0.5157(10) 0.7518(7) 0.0205(5) 1. 0 0.0139(7) 
O1 O2- 2 i 0.911(3) 0.814(2) 0.0222(16) 1. 0 0.018(2) 
O2 O2- 2 i 0.417(4) 0.500(2) 0.8808(17) 1. 0 0.014(2) 
O3 O2- 2 i -0.303(4) 0.593(3) 0.7855(19) 1. 0 0.026(3) 
O4 O2- 2 i 0.157(4) 0.885(3) 0.4679(17) 1. 0 0.020(2) 
O5 O2- 2 i 0.349(3) 0.456(2) 0.6983(16) 1. 0 0.017(2) 
O6 O2- 2 i -0.303(4) 0.664(3) 0.5289(17) 1. 0 0.021(2) 
O7 O2- 2 i -0.044(4) 0.537(2) 0.6032(16) 1. 0 0.026(3) 
O8 O2- 2 i 0.131(4) 0.755(3) 0.9167(18) 1. 0 0.023(3) 
O9 O2- 2 i 0.667(3) 0.917(2) 0.1977(16) 1. 0 0.018(2) 
O10 O2- 2 i 0.544(4) 0.123(3) 0.2848(16) 1. 0 0.022(2) 
O11 O2- 2 i 0.416(3) 0.036(2) 0.1091(16) 1. 0 0.019(2) 
O12 O2- 2 i 0.396(4) 0.792(3) 0.3958(17) 1. 0 0.030(3) 
O13 O2- 2 i 0.157(4) 0.657(3) 0.0731(17) 1. 0 0.025(3) 
O14 O2- 2 i -0.017(4) 0.829(3) 0.6615(17) 1. 0 0.023(2) 
O15 O2- 2 i 0.096(3) 0.832(2) 0.2920(15) 1. 0 0.014(2) 
C1 C4+ 2 i -0.518(6) 0.510(4) 0.789(3) 1. 0 0.025(4) 
C2 C4+ 2 i -0.104(5) 0.694(4) 0.593(2) 1. 0 0.014(3) 
C3 C4+ 2 i 0.058(5) 0.736(4) 0.006(2) 1. 0 0.015(3) 
C4 C4+ 2 i 0.566(6) 0.037(4) 0.190(3) 1. 0 0.025(4) 
C5 C4+ 2 i 0.218(5) 0.842(4) 0.387(2) 1. 0 0.018(3) 

#End of data_186771-ICSD


