data_95089-ICSD
#?2014 by Fachinformationszentrum Karlsruhe, and the U.S. Secretary of 
#Commerce on behalf of the United States.  All rights reserved.
_database_code_ICSD                95089
_audit_creation_date               2003/10/01
_chemical_name_systematic          'Silver Copper(III) Oxide'
_chemical_formula_structural       'Ag Cu O2'
_chemical_formula_sum              'Ag1 Cu1 O2'
_publ_section_title
;
Structure redetermination and high pressure behaviour of Ag Cu O2
;
loop_
_citation_id
_citation_journal_abbrev
_citation_year
_citation_journal_volume
_citation_page_first
_citation_page_last
_citation_journal_id_ASTM
primary 'Journal of Alloys and Compounds' 2002 338 99 103 JALCEU
_publ_author_name
;
Curda, J.;Klein, W.;Liu, H.;Jansen, M.
;
_cell_length_a                     6.0756(3)
_cell_length_b                     2.8088(1)
_cell_length_c                     5.8728(3)
_cell_angle_alpha                  90
_cell_angle_beta                   107.987(4)
_cell_angle_gamma                  90
_cell_volume                       95.32
_cell_formula_units_Z              2
_symmetry_space_group_name_H-M     'C 1 2/m 1'
_symmetry_Int_Tables_number        12
_refine_ls_R_factor_all            .0636
loop_
_symmetry_equiv_pos_site_id
_symmetry_equiv_pos_as_xyz
  1	'-x, y, -z'
  2	'-x, -y, -z'
  3	'x, -y, z'
  4	'x, y, z'
  5	'-x+.5, y+.5, -z'
  6	'-x+.5, -y+.5, -z'
  7	'x+.5, -y+.5, z'
  8	'x+.5, y+.5, z'
loop_
_atom_type_symbol
_atom_type_oxidation_number
Ag1+	1
Cu3+	3
O2-	-2
loop_
_atom_site_label
_atom_site_type_symbol
_atom_site_symmetry_multiplicity
_atom_site_Wyckoff_symbol
_atom_site_fract_x
_atom_site_fract_y
_atom_site_fract_z
_atom_site_occupancy
_atom_site_attached_hydrogens
_atom_site_U_iso_or_equiv
Ag1 Ag1+ 2 a 0 0 0 1. 0 0.068(6) 
Cu1 Cu3+ 2 d 0 0.5 0.5 1. 0 0.033(5) 
O1 O2- 4 i 0.1457(3) 0 0.6990(3) 1. 0 0.058(4) 

#End of data_95089-ICSD


