data_39398-ICSD
#?2014 by Fachinformationszentrum Karlsruhe, and the U.S. Secretary of 
#Commerce on behalf of the United States.  All rights reserved.
_database_code_ICSD                39398
_audit_creation_date               1992/01/20
_audit_update_record               2010/02/01
_chemical_name_systematic          'Barium Magnesium Diphosphate(V)'
_chemical_formula_structural       'Ba Mg (P2 O7)'
_chemical_formula_sum              'Ba1 Mg1 O7 P2'
_publ_section_title
;
Crystal structures of Ba Mg P2 O7 and Pb Zn P2 O7
;
loop_
_citation_id
_citation_journal_abbrev
_citation_year
_citation_journal_volume
_citation_page_first
_citation_page_last
_citation_journal_id_ASTM
primary 'Zhurnal Neorganicheskoi Khimii' 1991 36 851 854 ZNOKAQ
2 'Russian Journal of Inorganic Chemistry' 1991 36 481 483 RJICAQ
_publ_author_name
;
Murashova, E.V.;Velikodnyi, Yu.A.;Trunov, V.K.
;
_cell_length_a                     5.483(1)
_cell_length_b                     8.561(3)
_cell_length_c                     12.626(2)
_cell_angle_alpha                  90.
_cell_angle_beta                   91.32(2)
_cell_angle_gamma                  90.
_cell_volume                       592.51
_cell_formula_units_Z              4
_symmetry_space_group_name_H-M     'P 1 21/n 1'
_symmetry_Int_Tables_number        14
_refine_ls_R_factor_all            .026
loop_
_symmetry_equiv_pos_site_id
_symmetry_equiv_pos_as_xyz
  1	'-x+.5, y+.5, -z+.5'
  2	'-x, -y, -z'
  3	'x+.5, -y+.5, z+.5'
  4	'x, y, z'
loop_
_atom_type_symbol
_atom_type_oxidation_number
Ba2+	2
Mg2+	2
O2-	-2
P5+	5
loop_
_atom_site_label
_atom_site_type_symbol
_atom_site_symmetry_multiplicity
_atom_site_Wyckoff_symbol
_atom_site_fract_x
_atom_site_fract_y
_atom_site_fract_z
_atom_site_occupancy
_atom_site_attached_hydrogens
_atom_site_B_iso_or_equiv
Ba1 Ba2+ 4 e 0.74209(4) 0.37076(3) 0.79304(2) 1. 0 0.755(3) 
P1 P5+ 4 e 0.2665(2) 0.5598(1) 0.66679(7) 1. 0 0.55(1) 
P2 P5+ 4 e 0.2867(2) 0.3141(1) 0.98293(7) 1. 0 0.53(1) 
Mg1 Mg2+ 4 e 0.2907(2) 0.1631(2) 0.6226(1) 1. 0 0.65(2) 
O1 O2- 4 e 0.2985(5) 0.6412(3) 0.5539(2) 1. 0 0.80(4) 
O2 O2- 4 e 0.4505(5) 0.6307(4) 0.7454(2) 1. 0 0.89(4) 
O3 O2- 4 e 0.2080(5) 0.4216(3) 0.8929(2) 1. 0 0.95(4) 
O4 O2- 4 e 0.1537(5) 0.3413(3) 0.0844(2) 1. 0 0.99(4) 
O5 O2- 4 e 0.3205(6) 0.3902(3) 0.6514(2) 1. 0 1.04(4) 
O6 O2- 4 e 0.5607(5) 0.3133(4) 0.9978(2) 1. 0 0.96(2) 
O7 O2- 4 e 0.0156(5) 0.5971(4) 0.7071(2) 1. 0 1.14(4) 

#End of data_39398-ICSD


