data_16976-ICSD
#?2014 by Fachinformationszentrum Karlsruhe, and the U.S. Secretary of 
#Commerce on behalf of the United States.  All rights reserved.
_database_code_ICSD                16976
_audit_creation_date               1980/01/01
_audit_update_record               2012/08/01
_chemical_name_systematic          'Dialuminium Oxide Silicate'
_chemical_formula_structural       'Al2 O (Si O4)'
_chemical_formula_sum              'Al2 O5 Si1'
_chemical_name_mineral             Kyanite
_publ_section_title
;
Refinement of the crystal structure of Kyanite
;
loop_
_citation_id
_citation_journal_abbrev
_citation_year
_citation_journal_volume
_citation_page_first
_citation_page_last
_citation_journal_id_ASTM
primary
;
Zeitschrift fuer Kristallographie, Kristallgeometrie, Kristallphysik, 
Kristallchemie (-144,1977)
;
 1963 118 337 360 ZEKGAX
_publ_author_name                  'Burnham, C.W.'
_cell_length_a                     7.1192(5)
_cell_length_b                     7.8473(4)
_cell_length_c                     5.5724(6)
_cell_angle_alpha                  89.977(5)
_cell_angle_beta                   101.121(5)
_cell_angle_gamma                  106.006(3)
_cell_volume                       293.16
_cell_formula_units_Z              4
_symmetry_space_group_name_H-M     'P -1'
_symmetry_Int_Tables_number        2
_refine_ls_R_factor_all            .086
loop_
_symmetry_equiv_pos_site_id
_symmetry_equiv_pos_as_xyz
  1	'-x, -y, -z'
  2	'x, y, z'
loop_
_atom_type_symbol
_atom_type_oxidation_number
Al3+	3
O2-	-2
Si4+	4
loop_
_atom_site_label
_atom_site_type_symbol
_atom_site_symmetry_multiplicity
_atom_site_Wyckoff_symbol
_atom_site_fract_x
_atom_site_fract_y
_atom_site_fract_z
_atom_site_occupancy
_atom_site_attached_hydrogens
O1 O2- 2 i 0.1090(6) 0.1462(5) 0.1295(5) 1. 0 
O2 O2- 2 i 0.1212(6) 0.6850(5) 0.1802(5) 1. 0 
O3 O2- 2 i 0.2723(6) 0.4529(6) 0.9554(5) 1. 0 
O4 O2- 2 i 0.2832(6) 0.9367(5) 0.9357(5) 1. 0 
O5 O2- 2 i 0.1097(6) 0.1522(5) 0.6672(5) 1. 0 
O6 O2- 2 i 0.1209(6) 0.6318(5) 0.6393(5) 1. 0 
O7 O2- 2 i 0.2818(6) 0.4446(5) 0.4279(5) 1. 0 
O8 O2- 2 i 0.2921(6) 0.9480(5) 0.4680(5) 1. 0 
O9 O2- 2 i 0.5010(6) 0.2749(5) 0.2442(5) 1. 0 
O10 O2- 2 i 0.4993(6) 0.2289(5) 0.7542(5) 1. 0 
Si1 Si4+ 2 i 0.2965(2) 0.0658(2) 0.7068(2) 1. 0 
Si2 Si4+ 2 i 0.2914(2) 0.3313(2) 0.1888(2) 1. 0 
Al1 Al3+ 2 i 0.3258(2) 0.7045(2) 0.4583(2) 1. 0 
Al2 Al3+ 2 i 0.2974(3) 0.6994(2) 0.9509(2) 1. 0 
Al3 Al3+ 2 i 0.0988(2) 0.3857(2) 0.6405(2) 1. 0 
Al4 Al3+ 2 i 0.1122(3) 0.9172(2) 0.1650(2) 1. 0 

#End of data_16976-ICSD


