data_200614-ICSD
#?2014 by Fachinformationszentrum Karlsruhe, and the U.S. Secretary of 
#Commerce on behalf of the United States.  All rights reserved.
_database_code_ICSD                200614
_audit_creation_date               1980/01/01
_audit_update_record               1989/08/10
_chemical_name_systematic          'Calcium Germanate *'
_chemical_formula_structural       'Ca Ge2 O5'
_chemical_formula_sum              'Ca1 Ge2 O5'
_publ_section_title
;
The crystal structure of Ca Ge2 O5 -a germanium analog of sphene
;
loop_
_citation_id
_citation_journal_abbrev
_citation_year
_citation_journal_volume
_citation_page_first
_citation_page_last
_citation_journal_id_ASTM
primary 'Doklady Akademii Nauk SSSR' 1979 246 1123 1126 DANKAS
_publ_author_name
;
Nevskii, N.N.;Ilyukhin, V.V.;Belov, N.V.
;
_cell_length_a                     5.416(4)
_cell_length_b                     5.517(3)
_cell_length_c                     6.858(5)
_cell_angle_alpha                  104.89(4)
_cell_angle_beta                   102.05(6)
_cell_angle_gamma                  106.80(5)
_cell_volume                       180.49
_cell_formula_units_Z              2
_symmetry_space_group_name_H-M     'P 1'
_symmetry_Int_Tables_number        1
_refine_ls_R_factor_all            .054
loop_
_symmetry_equiv_pos_site_id
_symmetry_equiv_pos_as_xyz
  1	'x, y, z'
loop_
_atom_type_symbol
_atom_type_oxidation_number
Ca2+	2
Ge4+	4
O2-	-2
loop_
_atom_site_label
_atom_site_type_symbol
_atom_site_symmetry_multiplicity
_atom_site_Wyckoff_symbol
_atom_site_fract_x
_atom_site_fract_y
_atom_site_fract_z
_atom_site_occupancy
_atom_site_attached_hydrogens
Ge1 Ge4+ 1 a 0 0 0 1. 0 
Ge2 Ge4+ 1 a 0.000(1) -.002(1) 0.498(1) 1. 0 
Ge3 Ge4+ 1 a 0.310(1) 0.677(1) 0.242(1) 1. 0 
Ge4 Ge4+ 1 a 0.689(1) 0.314(1) 0.756(1) 1. 0 
Ca1 Ca2+ 1 a 0.658(1) 0.317(1) 0.268(1) 1. 0 
Ca2 Ca2+ 1 a 0.336(1) 0.675(1) 0.733(1) 1. 0 
O1 O2- 1 a 0.285(3) 0.869(3) 0.082(2) 1. 0 
O2 O2- 1 a 0.247(3) 0.349(3) 0.072(2) 1. 0 
O3 O2- 1 a 0.083(4) 0.680(4) 0.395(3) 1. 0 
O4 O2- 1 a 0.388(2) 0.231(2) 0.572(2) 1. 0 
O5 O2- 1 a 0.922(4) 0.301(4) 0.621(3) 1. 0 
O6 O2- 1 a 0.687(3) 0.093(2) 0.904(2) 1. 0 
O7 O2- 1 a 0.734(3) 0.630(3) 0.915(2) 1. 0 
O8 O2- 1 a 0.067(5) 0.925(4) 0.754(3) 1. 0 
O9 O2- 1 a 0.928(5) 0.066(5) 0.262(4) 1. 0 
O10 O2- 1 a 0.633(3) 0.761(3) 0.440(2) 1. 0 

#End of data_200614-ICSD


