data_415717-ICSD
#?2014 by Fachinformationszentrum Karlsruhe, and the U.S. Secretary of 
#Commerce on behalf of the United States.  All rights reserved.
_database_code_ICSD                415717
_audit_creation_date               2007/08/01
_audit_update_record               2008/02/01
_chemical_name_systematic
;
Trisodium Mue3-chloro-tri-mue-chloro-triangulo-
tris(trichlorotungstate)
;
_chemical_formula_structural       'Na3 (Cl Cl3 (W Cl3)3)'
_chemical_formula_sum              'Cl13 Na3 W3'
_publ_section_title
;
Synthese und Kristallstruktur von Na3 [W3 Cl13]
;
loop_
_citation_id
_citation_journal_abbrev
_citation_year
_citation_journal_volume
_citation_journal_issue
_citation_page_first
_citation_page_last
_citation_journal_id_ASTM
primary 'Zeitschrift fuer Anorganische und Allgemeine Chemie (1950) (DE)'
 2006 632 10-11 1885 1889 ZAACAB
_publ_author_name                  'Weisser, M.;Tragl, S.;Meyer, H.J.'
_cell_length_a                     9.0929(13)
_cell_length_b                     23.851(4)
_cell_length_c                     9.1550(13)
_cell_angle_alpha                  90.00
_cell_angle_beta                   120.260(14)
_cell_angle_gamma                  90.00
_cell_volume                       1714.96
_cell_formula_units_Z              4
_symmetry_space_group_name_H-M     'P 1 21/c 1'
_symmetry_Int_Tables_number        14
_refine_ls_R_factor_all            .0414
loop_
_symmetry_equiv_pos_site_id
_symmetry_equiv_pos_as_xyz
  1	'x, -y+.5, z+.5'
  2	'-x, -y, -z'
  3	'-x, y+.5, -z+.5'
  4	'x, y, z'
loop_
_atom_type_symbol
_atom_type_oxidation_number
Cl1-	-1
Na1+	1
W3.333+	3.333
loop_
_atom_site_label
_atom_site_type_symbol
_atom_site_symmetry_multiplicity
_atom_site_Wyckoff_symbol
_atom_site_fract_x
_atom_site_fract_y
_atom_site_fract_z
_atom_site_occupancy
_atom_site_attached_hydrogens
_atom_site_U_iso_or_equiv
W1 W3.333+ 4 e 0.45089(7) 0.12856(2) 0.52696(8) 1 0 0.01225(18) 
W2 W3.333+ 4 e 0.10437(7) 0.12640(2) 0.35220(8) 1 0 0.01232(18) 
W3 W3.333+ 4 e 0.27925(8) 0.124962(19) 0.18025(7) 1 0 0.01289(17) 
Cl1 Cl1- 4 e 0.2736(4) 0.20280(12) 0.3460(4) 1 0 0.0135(6) 
Cl2 Cl1- 4 e 0.2800(4) 0.05984(13) 0.5633(4) 1 0 0.0177(6) 
Cl3 Cl1- 4 e 0.4909(4) 0.05940(15) 0.3620(4) 1 0 0.0184(7) 
Cl4 Cl1- 4 e 0.0735(4) 0.05644(14) 0.1512(4) 1 0 0.0170(7) 
Cl5 Cl1- 4 e 0.6827(4) 0.18421(14) 0.5521(4) 1 0 0.0181(7) 
Cl6 Cl1- 4 e 0.4734(5) 0.18257(15) 0.7553(4) 1 0 0.0191(7) 
Cl7 Cl1- 4 e 0.0728(4) 0.18100(15) 0.5526(4) 1 0 0.0171(7) 
Cl8 Cl1- 4 e -0.1313(4) 0.18011(15) 0.1439(4) 1 0 0.0196(7) 
Cl9 Cl1- 4 e 0.0725(5) 0.17551(17) -0.0581(4) 1 0 0.0212(8) 
Cl10 Cl1- 4 e 0.4834(4) 0.17698(16) 0.1482(4) 1 0 0.0199(8) 
Cl11 Cl1- 4 e 0.6821(4) 0.07418(15) 0.7554(4) 1 0 0.0197(8) 
Cl12 Cl1- 4 e -0.1205(4) 0.06774(16) 0.3517(4) 1 0 0.0202(8) 
Cl13 Cl1- 4 e 0.2827(5) 0.06259(15) -0.0364(4) 1 0 0.0225(7) 
Na1 Na1+ 4 e 0.7779(6) 0.2503(3) 0.3491(6) 1 0 0.0237(10) 
Na2 Na1+ 4 e 0.6082(7) 0.0971(3) 1.0149(8) 1 0 0.0297(13) 
Na3 Na1+ 4 e -0.0484(8) 0.0961(3) -0.3167(8) 1 0 0.0328(13) 

loop_
_atom_site_aniso_label
_atom_site_aniso_type_symbol
_atom_site_aniso_U_11
_atom_site_aniso_U_22
_atom_site_aniso_U_33
_atom_site_aniso_U_12
_atom_site_aniso_U_13
_atom_site_aniso_U_23
W1 W3.333+ 0.0084(3) 0.0183(3) 0.0083(3) 0.00012(19) 0.0030(3) 0.0000(2)
W2 W3.333+ 0.0079(3) 0.0193(4) 0.0093(3) -0.00037(18) 0.0039(3) 0.00013(19)
W3 W3.333+ 0.0098(3) 0.0203(3) 0.0086(4) -0.0005(2) 0.0047(3) -0.00127(18)
Cl1 Cl1- 0.0122(13) 0.0180(15) 0.0097(15) -0.0011(12) 0.0050(14) 0.0022(11)
Cl2 Cl1- 0.0143(15) 0.0209(16) 0.0167(18) 0.0011(14) 0.0068(16) 0.0049(12)
Cl3 Cl1- 0.0143(17) 0.0214(17) 0.0166(18) 0.0025(14) 0.0057(14) 0.0011(13)
Cl4 Cl1- 0.0141(16) 0.0232(17) 0.0135(17) -0.0032(13) 0.0068(15) 
-0.0040(13)
Cl5 Cl1- 0.0096(14) 0.0278(18) 0.0155(17) -0.0032(12) 0.0054(14) 
-0.0002(14)
Cl6 Cl1- 0.0168(18) 0.0293(19) 0.0103(15) -0.0015(15) 0.0062(14) 
-0.0047(13)
Cl7 Cl1- 0.0132(17) 0.0258(19) 0.0142(16) -0.0002(14) 0.0083(14) 
-0.0030(13)
Cl8 Cl1- 0.0107(15) 0.0316(19) 0.0146(16) 0.0023(13) 0.0050(14) 0.0036(14)
Cl9 Cl1- 0.0174(19) 0.035(2) 0.0103(16) 0.0025(15) 0.0061(15) -0.0002(13)
Cl10 Cl1- 0.0159(19) 0.031(2) 0.0153(17) -0.0056(15) 0.0101(16) -0.0032(14)
Cl11 Cl1- 0.0144(17) 0.0260(19) 0.0134(16) 0.0025(13) 0.0030(14) 0.0016(13)
Cl12 Cl1- 0.0135(17) 0.030(2) 0.0176(17) -0.0045(13) 0.0082(14) 0.0007(14)
Cl13 Cl1- 0.0197(17) 0.0333(18) 0.0138(17) 0.0013(16) 0.0079(15) 
-0.0042(13)
Na1 Na1+ 0.022(2) 0.028(3) 0.023(3) 0.002(2) 0.013(3) 0.004(3)
Na2 Na1+ 0.023(3) 0.044(4) 0.023(3) 0.007(3) 0.012(3) 0.007(3)
Na3 Na1+ 0.030(3) 0.050(4) 0.022(3) -0.001(3) 0.016(3) -0.001(3)
#End of data_415717-ICSD


