data_60616-ICSD
#?2014 by Fachinformationszentrum Karlsruhe, and the U.S. Secretary of 
#Commerce on behalf of the United States.  All rights reserved.
_database_code_ICSD                60616
_audit_creation_date               1986/12/03
_audit_update_record               2012/08/01
_chemical_name_systematic
;
Potassium Tetrafluoroferrate(III) - Iii
;
_chemical_formula_structural       'K (Fe F4)'
_chemical_formula_sum              'F4 Fe1 K1'
_publ_section_title
;
Structures cristallines a 415 K (phase II) et 295 K (phase III) de K 
Fe F4
;
loop_
_citation_id
_citation_journal_abbrev
_citation_year
_citation_journal_volume
_citation_page_first
_citation_page_last
_citation_journal_id_ASTM
primary 'Acta Crystallographica, Section B: Structural Science'
 1986 42 258 262 ASBSDK
2 'Acta Crystallographica, Section B: Structural Science'
 1987 43 111 111 ASBSDK
3 'Golden Book of Phase Transitions, Wroclaw' 2002 1 1 123 GBOPT5
_publ_author_name
;
Lapasset, J.;Sciau, P.;Moret, J.;Gros, N.
;
_cell_length_a                     12.33(2)
_cell_length_b                     7.64(1)
_cell_length_c                     7.81(1)
_cell_angle_alpha                  90.
_cell_angle_beta                   90.
_cell_angle_gamma                  90.
_cell_volume                       735.71
_cell_formula_units_Z              8
_symmetry_space_group_name_H-M     'P n m a'
_symmetry_Int_Tables_number        62
_refine_ls_R_factor_all            .044
loop_
_symmetry_equiv_pos_site_id
_symmetry_equiv_pos_as_xyz
  1	'x+.5, y, -z+.5'
  2	'x, -y+.5, z'
  3	'-x+.5, y+.5, z+.5'
  4	'-x, -y, -z'
  5	'-x+.5, -y, z+.5'
  6	'-x, y+.5, -z'
  7	'x+.5, -y+.5, -z+.5'
  8	'x, y, z'
loop_
_atom_type_symbol
_atom_type_oxidation_number
F1-	-1
Fe3+	3
K1+	1
loop_
_atom_site_label
_atom_site_type_symbol
_atom_site_symmetry_multiplicity
_atom_site_Wyckoff_symbol
_atom_site_fract_x
_atom_site_fract_y
_atom_site_fract_z
_atom_site_occupancy
_atom_site_attached_hydrogens
K1 K1+ 4 c 0.97551(8) 0.25 0.1210(3) 1. 0 
K2 K1+ 4 c 0.51705(7) 0.75 0.1201(3) 1. 0 
Fe1 Fe3+ 8 d 0.24894(4) 0.00035(5) 0.1255(1) 1. 0 
F1 F1- 8 d 0.7517(2) 0.0313 0.1227(5) 1. 0 
F2 F1- 4 c 0.2145(3) 0.25 0.0959(5) 1. 0 
F3 F1- 4 c 0.2827(3) 0.75 0.1540(5) 1. 0 
F4 F1- 8 d 0.3983(2) 0.0476(3) 0.1202(6) 1. 0 
F5 F1- 8 d 0.0997(2) 0.9543 0.1308(6) 1. 0 

#End of data_60616-ICSD


