data_16833-ICSD
#?2014 by Fachinformationszentrum Karlsruhe, and the U.S. Secretary of 
#Commerce on behalf of the United States.  All rights reserved.
_database_code_ICSD                16833
_audit_creation_date               1980/01/01
_audit_update_record               2000/12/16
_chemical_name_systematic          'Disum Catena-germanate'
_chemical_formula_structural       'Na2 (Ge O3)'
_chemical_formula_sum              'Ge1 Na2 O3'
_publ_section_title
;
Structure cristalline du metagermanate de sodium
;
loop_
_citation_id
_citation_journal_abbrev
_citation_year
_citation_journal_volume
_citation_page_first
_citation_page_last
_citation_journal_id_ASTM
primary 'Bulletin de la Societe Chimique de Belgique' 1954 63 460 469 BSBQAM
_publ_author_name                  'Ginetti, Y.'
_cell_length_a                     6.21(5)
_cell_length_b                     10.85(5)
_cell_length_c                     4.91(5)
_cell_angle_alpha                  90.
_cell_angle_beta                   90.
_cell_angle_gamma                  90.
_cell_volume                       330.83
_cell_formula_units_Z              4
_symmetry_space_group_name_H-M     'C c m 21'
_symmetry_Int_Tables_number        36
loop_
_symmetry_equiv_pos_site_id
_symmetry_equiv_pos_as_xyz
  1	'-x, y, z+.5'
  2	'-x, -y, z+.5'
  3	'x, -y, z'
  4	'x, y, z'
  5	'-x+.5, y+.5, z+.5'
  6	'-x+.5, -y+.5, z+.5'
  7	'x+.5, -y+.5, z'
  8	'x+.5, y+.5, z'
loop_
_atom_type_symbol
_atom_type_oxidation_number
Ge4+	4
Na1+	1
O2-	-2
loop_
_atom_site_label
_atom_site_type_symbol
_atom_site_symmetry_multiplicity
_atom_site_Wyckoff_symbol
_atom_site_fract_x
_atom_site_fract_y
_atom_site_fract_z
_atom_site_occupancy
_atom_site_attached_hydrogens
Ge1 Ge4+ 4 a 0.14 0 0.125 1. 0 
Na1 Na1+ 8 b 0.333 0.17 0.555 1. 0 
O1 O2- 8 b 0.284 0.137 0 1. 0 
O2 O2- 4 a 0.14 0 0.5 1. 0 

#End of data_16833-ICSD


