data_81432-ICSD
#?2014 by Fachinformationszentrum Karlsruhe, and the U.S. Secretary of 
#Commerce on behalf of the United States.  All rights reserved.
_database_code_ICSD                81432
_audit_creation_date               1997/11/05
_chemical_name_systematic          'Trisodium Indium Phosphate(V)'
_chemical_formula_structural       'Na3 In (P O4)2'
_chemical_formula_sum              'In1 Na3 O8 P2'
_publ_section_title
;
Hydrothermal synthesis and crystal structure of Na3 In (P O4)2
;
loop_
_citation_id
_citation_journal_abbrev
_citation_year
_citation_journal_volume
_citation_page_first
_citation_page_last
_citation_journal_id_ASTM
primary 'European Journal of Solid State Inorganic Chemistry'
 1996 33 519 526 EJSCE5
_publ_author_name                  'Lii, K.-H.'
_cell_length_a                     5.1409(5)
_cell_length_b                     18.1970(20)
_cell_length_c                     7.1355(7)
_cell_angle_alpha                  90.
_cell_angle_beta                   92.355(2)
_cell_angle_gamma                  90.
_cell_volume                       666.95
_cell_formula_units_Z              4
_symmetry_space_group_name_H-M     'P 1 21/n 1'
_symmetry_Int_Tables_number        14
_refine_ls_R_factor_all            .031
loop_
_symmetry_equiv_pos_site_id
_symmetry_equiv_pos_as_xyz
  1	'-x+.5, y+.5, -z+.5'
  2	'-x, -y, -z'
  3	'x+.5, -y+.5, z+.5'
  4	'x, y, z'
loop_
_atom_type_symbol
_atom_type_oxidation_number
In3+	3
Na1+	1
O2-	-2
P5+	5
loop_
_atom_site_label
_atom_site_type_symbol
_atom_site_symmetry_multiplicity
_atom_site_Wyckoff_symbol
_atom_site_fract_x
_atom_site_fract_y
_atom_site_fract_z
_atom_site_occupancy
_atom_site_attached_hydrogens
_atom_site_U_iso_or_equiv
Na1 Na1+ 4 e 0.6991(5) 0.8061(1) 0.3033(3) 1. 0 0.0261(7) 
Na2 Na1+ 4 e 0.2080(5) 0.8748(1) 0.5153(3) 1. 0 0.035(1) 
Na3 Na1+ 4 e 0.7612(5) 0.9506(1) 0.7071(3) 1. 0 0.0246(7) 
In1 In3+ 4 e 0.21644(7) 0.87198(2) 0.01273(5) 1. 0 0.0150(2) 
P1 P5+ 4 e 0.1949(3) 0.71398(8) 0.2812(2) 1. 0 0.0151(4) 
P2 P5+ 4 e 0.2710(3) 0.03632(8) 0.7845(2) 1. 0 0.0150(4) 
O1 O2- 4 e 0.1731(7) 0.7988(2) 0.2503(5) 1. 0 0.018(1) 
O2 O2- 4 e 0.0897(8) 0.6718(2) 0.1133(5) 1. 0 0.022(1) 
O3 O2- 4 e 0.4866(7) 0.6937(2) 0.3173(6) 1. 0 0.020(1) 
O4 O2- 4 e 0.0395(7) 0.6985(2) 0.4579(5) 1. 0 0.017(1) 
O5 O2- 4 e 0.5590(8) 0.0641(2) 0.7878(5) 1. 0 0.019(1) 
O6 O2- 4 e 0.2770(8) -.0490(2) 0.7914(5) 1. 0 0.021(1) 
O7 O2- 4 e 0.1387(7) 0.0677(2) 0.9563(5) 1. 0 0.018(1) 
O8 O2- 4 e 0.1314(8) 0.0612(2) 0.6064(6) 1. 0 0.025(1) 

#End of data_81432-ICSD


