data_18192-ICSD
#?2014 by Fachinformationszentrum Karlsruhe, and the U.S. Secretary of 
#Commerce on behalf of the United States.  All rights reserved.
_database_code_ICSD                18192
_audit_creation_date               1980/01/01
_audit_update_record               1985/04/26
_chemical_name_systematic          'Potassium Pentaborate'
_chemical_formula_structural       'K2 O (B2 O3)5'
_chemical_formula_sum              'B10 K2 O16'
_publ_section_title
;
Least-squares refinement of the crystal structure of potassium 
pentaborate
;
loop_
_citation_id
_citation_journal_abbrev
_citation_year
_citation_journal_volume
_citation_page_first
_citation_page_last
_citation_journal_id_ASTM
primary 'Acta Crystallographica (1,1948-23,1967)' 1965 18 1088 1089 ACCRA9
_publ_author_name                  'Krogh-Moe, J.'
_cell_length_a                     7.418(2)
_cell_length_b                     11.702(4)
_cell_length_c                     14.745(5)
_cell_angle_alpha                  90.
_cell_angle_beta                   90.
_cell_angle_gamma                  90.
_cell_volume                       1279.95
_cell_formula_units_Z              4
_symmetry_space_group_name_H-M     'P b c a'
_symmetry_Int_Tables_number        61
_refine_ls_R_factor_all            .111
loop_
_symmetry_equiv_pos_site_id
_symmetry_equiv_pos_as_xyz
  1	'x+.5, y, -z+.5'
  2	'x, -y+.5, z+.5'
  3	'-x+.5, y+.5, z'
  4	'-x, -y, -z'
  5	'-x+.5, -y, z+.5'
  6	'-x, y+.5, -z+.5'
  7	'x+.5, -y+.5, -z'
  8	'x, y, z'
loop_
_atom_type_symbol
_atom_type_oxidation_number
B3+	3
K1+	1
O2-	-2
loop_
_atom_site_label
_atom_site_type_symbol
_atom_site_symmetry_multiplicity
_atom_site_Wyckoff_symbol
_atom_site_fract_x
_atom_site_fract_y
_atom_site_fract_z
_atom_site_occupancy
_atom_site_attached_hydrogens
_atom_site_B_iso_or_equiv
K1 K1+ 8 c 0.0720(7) 0.2943(4) 0.1207(3) 1. 0 2.9 
O1 O2- 8 c 0.3098(17) 0.0252(9) 0.0255(7) 1. 0 1.49 
O2 O2- 8 c 0.4364(18) 0.2051(11) 0.0709(8) 1. 0 2.07 
O3 O2- 8 c 0.6391(18) 0.212(1) 0.1969(8) 1. 0 1.66 
O4 O2- 8 c 0.4459(19) 0.3670(11) 0.1680(8) 1. 0 1.96 
O5 O2- 8 c 0.6910(19) 0.3256(10) 0.0653(8) 1. 0 2.29 
O6 O2- 8 c 0.1179(19) 0.0636(12) 0.1977(8) 1. 0 2.23 
O7 O2- 8 c 0.4987(20) 0.0353(11) 0.1536(8) 1. 0 2.07 
O8 O2- 8 c 0.9045(18) 0.0164(11) 0.0879(8) 1. 0 2.32 
B1 B3+ 8 c 0.5578(37) 0.2750(19) 0.1271(15) 1. 0 2.74 
B2 B3+ 8 c 0.4139(32) 0.0904(15) 0.0806(12) 1. 0 1.02 
B3 B3+ 8 c 0.4770(32) 0.4791(17) 0.1548(13) 1. 0 1.59 
B4 B3+ 8 c 0.7045(35) 0.4355(18) 0.0435(14) 1. 0 2.21 
B5 B3+ 8 c 0.5857(37) 0.1034(18) 0.2136(13) 1. 0 1.74 

#End of data_18192-ICSD


