data_281572-ICSD
#?2014 by Fachinformationszentrum Karlsruhe, and the U.S. Secretary of 
#Commerce on behalf of the United States.  All rights reserved.
_database_code_ICSD                281572
_audit_creation_date               2004/10/01
_chemical_name_systematic          'Calcium Dipotassium Diphosphate(V)'
_chemical_formula_structural       'Ca K2 (P2 O7)'
_chemical_formula_sum              'Ca1 K2 O7 P2'
_publ_section_title                'Ca K2 P2 O7'
loop_
_citation_id
_citation_journal_abbrev
_citation_year
_citation_journal_volume
_citation_page_first
_citation_page_last
_citation_journal_id_ASTM
primary 'Acta Crystallographica, Section E. Structure Reports Online'
 2003 59 i139 i141 ACSEBH
_publ_author_name
;
Sandstroem, M.;Fischer, A.;Bostroem, D.
;
_cell_length_a                     9.8180(3)
_cell_length_b                     5.6760(3)
_cell_length_c                     13.0060(7)
_cell_angle_alpha                  90.
_cell_angle_beta                   104.220(3)
_cell_angle_gamma                  90.
_cell_volume                       702.58
_cell_formula_units_Z              4
_symmetry_space_group_name_H-M     'P 1 21/n 1'
_symmetry_Int_Tables_number        14
_refine_ls_R_factor_all            .025
loop_
_symmetry_equiv_pos_site_id
_symmetry_equiv_pos_as_xyz
  1	'-x+.5, y+.5, -z+.5'
  2	'-x, -y, -z'
  3	'x+.5, -y+.5, z+.5'
  4	'x, y, z'
loop_
_atom_type_symbol
_atom_type_oxidation_number
Ca2+	2
K1+	1
O2-	-2
P5+	5
loop_
_atom_site_label
_atom_site_type_symbol
_atom_site_symmetry_multiplicity
_atom_site_Wyckoff_symbol
_atom_site_fract_x
_atom_site_fract_y
_atom_site_fract_z
_atom_site_occupancy
_atom_site_attached_hydrogens
_atom_site_U_iso_or_equiv
Ca1 Ca2+ 4 e 0.25171(3) 0.23853(4) 0.51853(2) 1. 0 0.00852(9) 
K1 K1+ 4 e 0.64355(4) 0.73001(6) 0.17826(3) 1. 0 0.01786(10) 
K2 K1+ 4 e 0.12771(4) 0.23766(6) 0.14143(4) 1. 0 0.02614(12) 
P1 P5+ 4 e 0.53029(4) 0.24480(6) 0.35836(3) 1. 0 0.00791(10) 
P2 P5+ 4 e 0.44736(4) 0.22007(6) 0.12604(3) 1. 0 0.00866(10) 
O1 O2- 4 e 0.42978(13) 0.23579(19) 0.42959(9) 1. 0 0.0181(2) 
O2 O2- 4 e 0.62764(11) 0.45501(19) 0.37887(9) 1. 0 0.0171(2) 
O3 O2- 4 e 0.60418(10) 0.01248(18) 0.35197(8) 1. 0 0.0125(2) 
O4 O2- 4 e 0.42554(11) 0.2964(2) 0.24223(8) 1. 0 0.0145(2) 
O5 O2- 4 e 0.39011(12) -.02855(19) 0.10984(9) 1. 0 0.0186(2) 
O6 O2- 4 e 0.60300(11) 0.23677(19) 0.13299(9) 1. 0 0.0155(2) 
O7 O2- 4 e 0.35742(12) 0.3965(2) 0.05331(9) 1. 0 0.0186(2) 

loop_
_atom_site_aniso_label
_atom_site_aniso_type_symbol
_atom_site_aniso_U_11
_atom_site_aniso_U_22
_atom_site_aniso_U_33
_atom_site_aniso_U_12
_atom_site_aniso_U_13
_atom_site_aniso_U_23
Ca1 Ca2+ 0.00860(15) 0.00917(14) 0.00784(15) -.00006(8) 0.00212(10) 
-.00006(8)
K1 K1+ 0.01652(19) 0.01471(17) 0.0235(2) 0.00157(10) 0.00707(15) 
-.00086(11)
K2 K1+ 0.01418(18) 0.01741(18) 0.0477(3) 0.00060(11) 0.00924(17) 
0.00472(14)
P1 P5+ 0.00845(17) 0.00860(17) 0.00708(17) 0.00028(10) 0.00266(13) 
-.0006(1)
P2 P5+ 0.00877(17) 0.00927(17) 0.00759(17) 0.00049(11) 0.00132(12) 
0.00003(11)
O1 O2- 0.0200(6) 0.0218(6) 0.0166(5) 0.0027(4) 0.0127(4) 0.0020(4)
O2 O2- 0.0152(5) 0.0124(5) 0.0229(5) -.0033(4) 0.0029(4) -.0056(4)
O3 O2- 0.0135(4) 0.0104(4) 0.0134(4) 0.0025(4) 0.0032(4) 0.0008(4)
O4 O2- 0.0122(5) 0.0221(5) 0.0089(4) 0.0062(4) 0.0016(4) -.0017(4)
O5 O2- 0.0187(5) 0.0124(5) 0.0214(5) -.0028(4) -.0014(4) -.0036(4)
O6 O2- 0.0115(5) 0.0203(5) 0.0163(5) 0.0005(4) 0.0066(4) 0.0017(4)
O7 O2- 0.0208(5) 0.0186(5) 0.0147(5) 0.0065(4) 0.0008(4) 0.0057(4)
#End of data_281572-ICSD


