data_174371-ICSD
#?2014 by Fachinformationszentrum Karlsruhe, and the U.S. Secretary of 
#Commerce on behalf of the United States.  All rights reserved.
_database_code_ICSD                174371
_audit_creation_date               2010/08/01
_chemical_name_systematic
;
Potassium Diholmium Tricopper Pentaselenide
;
_chemical_formula_structural       'K Ho2 Cu3 Se5'
_chemical_formula_sum              'Cu3 Ho2 K1 Se5'
_publ_section_title
;
Ternary rare-earth coinage metal arsenides Ln T As2, Sm2 Cu3 As3; 
quaternary arsenide oxides Sm2 Cu As3 O and selenides K Gd2 Cu Se4, K 
Ln2 Cu3 Se5, and K2 Ln4 Cu4 Se9 (Ln = Y, La - Nd, Sm, Gd - Lu; T = 
Cu, Ag, Au): Syntheses, crystal structures and physi
;
loop_
_citation_id
_citation_journal_abbrev
_citation_year
_citation_journal_volume
_citation_page_first
_citation_page_last
_citation_journal_id_ASTM
primary 'Dissertation TU Dresden' 2004 2004 1 199 DIDREP
_publ_author_name                  'Feudjio Jemetio, J.P.'
_cell_length_a                     4.098(1)
_cell_length_b                     14.368(3)
_cell_length_c                     16.882(3)
_cell_angle_alpha                  90.
_cell_angle_beta                   90.
_cell_angle_gamma                  90.
_cell_volume                       994.01
_cell_formula_units_Z              4
_symmetry_space_group_name_H-M     'C m c m'
_symmetry_Int_Tables_number        63
_refine_ls_R_factor_all            .03
loop_
_symmetry_equiv_pos_site_id
_symmetry_equiv_pos_as_xyz
  1	'-x, y, -z+.5'
  2	'-x, -y, z+.5'
  3	'-x, y, z'
  4	'-x, -y, -z'
  5	'x, -y, z+.5'
  6	'x, y, -z+.5'
  7	'x, -y, -z'
  8	'x, y, z'
  9	'-x+.5, y+.5, -z+.5'
 10	'-x+.5, -y+.5, z+.5'
 11	'-x+.5, y+.5, z'
 12	'-x+.5, -y+.5, -z'
 13	'x+.5, -y+.5, z+.5'
 14	'x+.5, y+.5, -z+.5'
 15	'x+.5, -y+.5, -z'
 16	'x+.5, y+.5, z'
loop_
_atom_type_symbol
_atom_type_oxidation_number
Cu1+	1
Ho3+	3
K1+	1
Se2-	-2
loop_
_atom_site_label
_atom_site_type_symbol
_atom_site_symmetry_multiplicity
_atom_site_Wyckoff_symbol
_atom_site_fract_x
_atom_site_fract_y
_atom_site_fract_z
_atom_site_occupancy
_atom_site_attached_hydrogens
_atom_site_U_iso_or_equiv
K1 K1+ 4 c 0 0.0626(3) 0.75 1. 0 0.0246(1) 
Ho2 Ho3+ 8 f 0 0.1920(3) 0.4064(2) 1. 0 0.0116(3) 
Cu1 Cu1+ 4 c 0.5 0.1592(1) 0.25 1. 0 0.0245(5) 
Cu2 Cu1+ 8 f 0 0.4166(1) 0.4687(1) 1. 0 0.0207(4) 
Se3 Se2- 8 f -0.5 0.0595(1) 0.3809(5) 1. 0 0.0125(3) 
Se4 Se2- 4 c 0 0.2508(1) 0.25 1. 0 0.0133(4) 
Se1 Se2- 8 f 0 0.1672(1) 0.5717(1) 1. 0 0.0113(3) 

#End of data_174371-ICSD


