data_1274-ICSD
#?2014 by Fachinformationszentrum Karlsruhe, and the U.S. Secretary of 
#Commerce on behalf of the United States.  All rights reserved.
_database_code_ICSD                1274
_audit_creation_date               1980/01/01
_audit_update_record               2010/02/01
_chemical_name_systematic          'Lead Dipotassium Hexanitrocuprate'
_chemical_formula_structural       'Pb K2 (Cu (N O2)6)'
_chemical_formula_sum              'Cu1 K2 N6 O12 Pb1'
_publ_section_title
;
Structure of potassium lead hexanitrocuprate(II) at 276 K. An 
apparent compressed tetragonal Jahn-Teller distortion
;
loop_
_citation_id
_citation_journal_abbrev
_citation_year
_citation_journal_volume
_citation_page_first
_citation_page_last
_citation_journal_id_ASTM
primary 'Inorganic Chemistry' 1977 16 2680 2685 INOCAJ
2 'Phase Transition' 1992 38 127 220 PHTRDP
_publ_author_name
;
Joesten, M.D.;Takagi, S.;Lenhert, P.G.
;
_cell_length_a                     10.741(1)
_cell_length_b                     10.734(1)
_cell_length_c                     10.538(1)
_cell_angle_alpha                  90.
_cell_angle_beta                   90.
_cell_angle_gamma                  90.
_cell_volume                       1214.97
_cell_formula_units_Z              4
_symmetry_space_group_name_H-M     'F m m m'
_symmetry_Int_Tables_number        69
_refine_ls_R_factor_all            .062
loop_
_symmetry_equiv_pos_site_id
_symmetry_equiv_pos_as_xyz
  1	'x, y, -z'
  2	'x, -y, z'
  3	'-x, y, z'
  4	'-x, -y, -z'
  5	'-x, -y, z'
  6	'-x, y, -z'
  7	'x, -y, -z'
  8	'x, y, z'
  9	'x, y+.5, -z+.5'
 10	'x+.5, y, -z+.5'
 11	'x+.5, y+.5, -z'
 12	'x, -y+.5, z+.5'
 13	'x+.5, -y, z+.5'
 14	'x+.5, -y+.5, z'
 15	'-x, y+.5, z+.5'
 16	'-x+.5, y, z+.5'
 17	'-x+.5, y+.5, z'
 18	'-x, -y+.5, -z+.5'
 19	'-x+.5, -y, -z+.5'
 20	'-x+.5, -y+.5, -z'
 21	'-x, -y+.5, z+.5'
 22	'-x+.5, -y, z+.5'
 23	'-x+.5, -y+.5, z'
 24	'-x, y+.5, -z+.5'
 25	'-x+.5, y, -z+.5'
 26	'-x+.5, y+.5, -z'
 27	'x, -y+.5, -z+.5'
 28	'x+.5, -y, -z+.5'
 29	'x+.5, -y+.5, -z'
 30	'x, y+.5, z+.5'
 31	'x+.5, y, z+.5'
 32	'x+.5, y+.5, z'
loop_
_atom_type_symbol
_atom_type_oxidation_number
Cu2+	2
K1+	1
N3+	3
O2-	-2
Pb2+	2
loop_
_atom_site_label
_atom_site_type_symbol
_atom_site_symmetry_multiplicity
_atom_site_Wyckoff_symbol
_atom_site_fract_x
_atom_site_fract_y
_atom_site_fract_z
_atom_site_occupancy
_atom_site_attached_hydrogens
Cu1 Cu2+ 4 a 0 0 0 1. 0 
Pb1 Pb2+ 4 b 0 0 0.5 1. 0 
K1 K1+ 8 f 0.25 0.25 0.25 1. 0 
O1 O2- 16 m 0 0.0985(9) 0.2565(7) 1. 0 
O2 O2- 16 o 0.0988(7) 0.2622(9) 0 1. 0 
O3 O2- 16 n 0.2620(8) 0 0.0998(7) 1. 0 
N1 N3+ 8 i 0 0 0.1953(9) 1. 0 
N2 N3+ 8 h 0 0.2006(13) 0 1. 0 
N3 N3+ 8 g 0.2017(13) 0 0 1. 0 

loop_
_atom_site_aniso_label
_atom_site_aniso_type_symbol
_atom_site_aniso_B_11
_atom_site_aniso_B_22
_atom_site_aniso_B_33
_atom_site_aniso_B_12
_atom_site_aniso_B_13
_atom_site_aniso_B_23
Cu1 Cu2+ 1.04(5) 0.80(6) 1.15(5) 0 0 0
Pb1 Pb2+ 1.24(2) 0.91(2) 1.19(2) 0 0 0
K1 K1+ 3.33(14) 3.05(17) 3.17(12) 0 0 0
O1 O2- 3.77(31) 1.90(29) 2.07(21) 0 0 -.62(20)
O2 O2- 1.85(23) 2.93(39) 4.23(34) -.51(23) 0 0
O3 O2- 3.09(32) 2.90(38) 2.12(22) 0 -.52(23) 0
N1 N3+ 2.40(38) 2.27(45) 1.00(24) 0 0 0
N2 N3+ 1.82(34) 2.13(47) 1.77(30) 0 0 0
N3 N3+ 2.41(45) 0.98(43) 4.99(68) 0 0 0
#End of data_1274-ICSD


