data_37126-ICSD
#?2014 by Fachinformationszentrum Karlsruhe, and the U.S. Secretary of 
#Commerce on behalf of the United States.  All rights reserved.
_database_code_ICSD                37126
_audit_creation_date               1983/12/31
_audit_update_record               2012/02/01
_chemical_name_systematic          'Trilithium Tantalate - Beta'
_chemical_formula_structural       'Li3 (Ta O4)'
_chemical_formula_sum              'Li3 O4 Ta1'
_publ_section_title
;
Neutron and x-ray diffraction study on polymorphism in lithium 
orthotantalate, Li3 Ta O4
;
loop_
_citation_id
_citation_journal_abbrev
_citation_year
_citation_journal_volume
_citation_page_first
_citation_page_last
_citation_journal_id_ASTM
primary 'Journal of Solid State Chemistry' 1983 48 420 430 JSSCBI
2 'Golden Book of Phase Transitions, Wroclaw' 2002 1 1 123 GBOPT5
_publ_author_name
;
Zocchi, M.;Gatti, M.;Santoro, A.;Roth, R.S.
;
_cell_length_a                     8.500(3)
_cell_length_b                     8.500(3)
_cell_length_c                     9.344(3)
_cell_angle_alpha                  90.
_cell_angle_beta                   117.05(2)
_cell_angle_gamma                  90.
_cell_volume                       601.25
_cell_formula_units_Z              8
_symmetry_space_group_name_H-M     'C 1 2/c 1'
_symmetry_Int_Tables_number        15
_refine_ls_R_factor_all            .083
loop_
_symmetry_equiv_pos_site_id
_symmetry_equiv_pos_as_xyz
  1	'x, -y, z+.5'
  2	'-x, -y, -z'
  3	'-x, y, -z+.5'
  4	'x, y, z'
  5	'x+.5, -y+.5, z+.5'
  6	'-x+.5, -y+.5, -z'
  7	'-x+.5, y+.5, -z+.5'
  8	'x+.5, y+.5, z'
loop_
_atom_type_symbol
_atom_type_oxidation_number
Li1+	1
O2-	-2
Ta5+	5
loop_
_atom_site_label
_atom_site_type_symbol
_atom_site_symmetry_multiplicity
_atom_site_Wyckoff_symbol
_atom_site_fract_x
_atom_site_fract_y
_atom_site_fract_z
_atom_site_occupancy
_atom_site_attached_hydrogens
_atom_site_B_iso_or_equiv
Ta1 Ta5+ 8 f 0.075(2) -.126(1) 0.123(2) 1. 0 1.07 
Li1 Li1+ 8 f 0.329(4) -.116(5) 0.607(3) 1. 0 0.8 
Li2 Li1+ 8 f 0.567(6) -.132(4) 0.107(4) 1. 0 3. 
Li3 Li1+ 8 f 0.817(5) -.120(6) 0.622(3) 1. 0 0.8 
O1 O2- 8 f 0.158(1) -.125(1) 0.358(1) 1. 0 0.28 
O2 O2- 8 f 0.438(1) -.128(1) 0.887(1) 1. 0 0.28 
O3 O2- 8 f 0.693(1) -.118(1) 0.371(1) 1. 0 0.28 
O4 O2- 8 f 0.941(1) -.106(1) 0.886(1) 1. 0 0.28 

#End of data_37126-ICSD


