data_408796-ICSD
#?2014 by Fachinformationszentrum Karlsruhe, and the U.S. Secretary of 
#Commerce on behalf of the United States.  All rights reserved.
_database_code_ICSD                408796
_audit_creation_date               1999/06/02
_chemical_name_systematic          'Cesium Tetraiodozincate'
_chemical_formula_structural       'Cs2 (Zn I4)'
_chemical_formula_sum              'Cs2 I4 Zn1'
_publ_section_title
;
The crystal structure and crystal chemistry of Cs2 Zn I4 at room 
temperature including a comparison with the structure type of A3BX5 
(A= NH4+, Cs; B= Co, Zn, Hg; X= Cl, Br, I) compounds
;
loop_
_citation_id
_citation_journal_abbrev
_citation_year
_citation_journal_volume
_citation_page_first
_citation_page_last
_citation_journal_id_ASTM
primary 'Zeitschrift fuer Kristallographie (1979-2010)' 1998 213 591 595 ZEKRDZ
_publ_author_name
;
Friese, K.;Madariaga, G.;Breczewski, T.
;
_cell_length_a                     10.812(11)
_cell_length_b                     14.464(5)
_cell_length_c                     8.306(2)
_cell_angle_alpha                  90.
_cell_angle_beta                   90.
_cell_angle_gamma                  90.
_cell_volume                       1298.93
_cell_formula_units_Z              4
_symmetry_space_group_name_H-M     'P n a m'
_symmetry_Int_Tables_number        62
_refine_ls_R_factor_all            .0568
loop_
_symmetry_equiv_pos_site_id
_symmetry_equiv_pos_as_xyz
  1	'x+.5, -y+.5, z'
  2	'x, y, -z+.5'
  3	'-x+.5, y+.5, z+.5'
  4	'-x, -y, -z'
  5	'-x+.5, y+.5, -z'
  6	'-x, -y, z+.5'
  7	'x+.5, -y+.5, -z+.5'
  8	'x, y, z'
loop_
_atom_type_symbol
_atom_type_oxidation_number
Cs1+	1
I1-	-1
Zn2+	2
loop_
_atom_site_label
_atom_site_type_symbol
_atom_site_symmetry_multiplicity
_atom_site_Wyckoff_symbol
_atom_site_fract_x
_atom_site_fract_y
_atom_site_fract_z
_atom_site_occupancy
_atom_site_attached_hydrogens
Cs1 Cs1+ 4 c 0.02382(9) 0.66807(7) 0.25 1. 0 
Cs2 Cs1+ 4 c 0.36797(12) 0.39584(14) 0.25 1. 0 
Zn1 Zn2+ 4 c 0.76472(15) 0.42252(11) 0.25 1. 0 
I1 I1- 4 c 0.00319(10) 0.40164(9) 0.25 1. 0 
I2 I1- 4 c 0.68770(11) 0.59263(8) 0.25 1. 0 
I3 I1- 8 d 0.67276(8) 0.34492(8) 0.50458(9) 1. 0 

loop_
_atom_site_aniso_label
_atom_site_aniso_type_symbol
_atom_site_aniso_U_11
_atom_site_aniso_U_22
_atom_site_aniso_U_33
_atom_site_aniso_U_12
_atom_site_aniso_U_13
_atom_site_aniso_U_23
Cs1 Cs1+ 0.0363(6) 0.0463(7) 0.0647(7) -.0019(4) 0 0
Cs2 Cs1+ 0.0459(8) 0.1386(14) 0.0669(9) 0.0176(8) 0 0
Zn1 Zn2+ 0.0319(9) 0.0397(9) 0.0327(8) 0.0002(7) 0 0
I1 I1- 0.0307(6) 0.0608(8) 0.0932(10) 0.0095(5) 0 0
I2 I1- 0.0431(8) 0.0424(7) 0.1128(12) 0.0106(5) 0 0
I3 I1- 0.0567(6) 0.1130(9) 0.0440(6) -.0239(5) -.0061(4) 0.0340(5)
#End of data_408796-ICSD


