data_50705-ICSD
#?2014 by Fachinformationszentrum Karlsruhe, and the U.S. Secretary of 
#Commerce on behalf of the United States.  All rights reserved.
_database_code_ICSD                50705
_audit_creation_date               2000/07/15
_chemical_name_systematic          'Dizinc Tritellurium Oxide'
_chemical_formula_structural       'Zn2 Te3 O8'
_chemical_formula_sum              'O8 Te3 Zn2'
_publ_section_title
;
Hydrothermal synthesis and characterization of M2 Te3 O8 (M = Mn, Co, 
Ni, Cu, Zn): a series of compounds with the spiroffite structure
;
loop_
_citation_id
_citation_journal_abbrev
_citation_year
_citation_journal_volume
_citation_page_first
_citation_page_last
_citation_journal_id_ASTM
primary 'Journal of Solid State Chemistry' 1999 143 246 253 JSSCBI
_publ_author_name
;
Feger, C.R.;Schimek, G.L.;Kolis, J.W.
;
_cell_length_a                     12.681(2)
_cell_length_b                     5.200(2)
_cell_length_c                     11.786(2)
_cell_angle_alpha                  90.
_cell_angle_beta                   99.60(1)
_cell_angle_gamma                  90.
_cell_volume                       766.3
_cell_formula_units_Z              4
_symmetry_space_group_name_H-M     'C 1 2/c 1'
_symmetry_Int_Tables_number        15
_refine_ls_R_factor_all            .036
loop_
_symmetry_equiv_pos_site_id
_symmetry_equiv_pos_as_xyz
  1	'x, -y, z+.5'
  2	'-x, -y, -z'
  3	'-x, y, -z+.5'
  4	'x, y, z'
  5	'x+.5, -y+.5, z+.5'
  6	'-x+.5, -y+.5, -z'
  7	'-x+.5, y+.5, -z+.5'
  8	'x+.5, y+.5, z'
loop_
_atom_type_symbol
_atom_type_oxidation_number
O2-	-2
Te4+	4
Zn2+	2
loop_
_atom_site_label
_atom_site_type_symbol
_atom_site_symmetry_multiplicity
_atom_site_Wyckoff_symbol
_atom_site_fract_x
_atom_site_fract_y
_atom_site_fract_z
_atom_site_occupancy
_atom_site_attached_hydrogens
_atom_site_U_iso_or_equiv
Zn1 Zn2+ 8 f 0.27203(8) 0.2886(2) 0.15483(8) 1. 0 0.0085(3) 
Te1 Te4+ 4 e 0.5 0.6386(2) 0.25 1. 0 0.0069(2) 
Te2 Te4+ 8 f 0.36329(4) 0.3026(1) 0.44556(4) 1. 0 0.0068(2) 
O1 O2- 8 f 0.4206(5) 0.412(2) 0.1451(5) 1. 0 0.019(2) 
O2 O2- 8 f 0.3872(4) 0.612(1) 0.3610(4) 1. 0 0.008(2) 
O3 O2- 8 f 0.3038(5) 0.125(1) 0.3127(4) 1. 0 0.009(2) 
O4 O2- 8 f 0.2368(4) 0.484(1) 0.4657(5) 1. 0 0.008(2) 

#End of data_50705-ICSD


