data_409726-ICSD
#?2014 by Fachinformationszentrum Karlsruhe, and the U.S. Secretary of 
#Commerce on behalf of the United States.  All rights reserved.
_database_code_ICSD                409726
_audit_creation_date               2004/10/01
_chemical_name_systematic          'Tetrasodium Tetraselenidosilicate'
_chemical_formula_structural       'Na4 (Si Se4)'
_chemical_formula_sum              'Na4 Se4 Si1'
_publ_section_title
;
Crystal structure of tetrasodium tetraselenidosilicate(IV), Na4 Si 
Se4
;
loop_
_citation_id
_citation_journal_abbrev
_citation_year
_citation_journal_volume
_citation_page_first
_citation_page_last
_citation_journal_id_ASTM
primary 'Zeitschrift fuer Kristallographie - New Crystal Structures'
 2003 218 383 384 ZKNSFT
_publ_author_name                  'Preishuber-Pfluegl, H.;Klepp, K.O.'
_cell_length_a                     14.182(5)
_cell_length_b                     9.208(3)
_cell_length_c                     7.122(3)
_cell_angle_alpha                  90.
_cell_angle_beta                   90.
_cell_angle_gamma                  90.
_cell_volume                       930.05
_cell_formula_units_Z              4
_symmetry_space_group_name_H-M     'P n m a'
_symmetry_Int_Tables_number        62
_refine_ls_R_factor_all            .066
loop_
_symmetry_equiv_pos_site_id
_symmetry_equiv_pos_as_xyz
  1	'x+.5, y, -z+.5'
  2	'x, -y+.5, z'
  3	'-x+.5, y+.5, z+.5'
  4	'-x, -y, -z'
  5	'-x+.5, -y, z+.5'
  6	'-x, y+.5, -z'
  7	'x+.5, -y+.5, -z+.5'
  8	'x, y, z'
loop_
_atom_type_symbol
_atom_type_oxidation_number
Na1+	1
Se2-	-2
Si4+	4
loop_
_atom_site_label
_atom_site_type_symbol
_atom_site_symmetry_multiplicity
_atom_site_Wyckoff_symbol
_atom_site_fract_x
_atom_site_fract_y
_atom_site_fract_z
_atom_site_occupancy
_atom_site_attached_hydrogens
_atom_site_U_iso_or_equiv
Na1 Na1+ 4 a 0 0 0 1. 0 0.096(9) 
Na2 Na1+ 4 c 0.4546(9) 0.25 -.007(3) 1. 0 0.048(6) 
Na3 Na1+ 8 d 0.2678(6) 0.9473(12) 0.140(2) 1. 0 0.043(3) 
Si1 Si4+ 4 c 0.1649(6) 0.25 0.219(2) 1. 0 0.025(3) 
Se1 Se2- 8 d 0.0955(2) 0.4497(3) 0.3405(4) 1. 0 0.0305(6) 
Se2 Se2- 4 c 0.3174(2) 0.25 0.3157(8) 1. 0 0.0391(13) 
Se3 Se2- 4 c 0.1410(3) 0.25 -.0931(6) 1. 0 0.0389(11) 

loop_
_atom_site_aniso_label
_atom_site_aniso_type_symbol
_atom_site_aniso_U_11
_atom_site_aniso_U_22
_atom_site_aniso_U_33
_atom_site_aniso_U_12
_atom_site_aniso_U_13
_atom_site_aniso_U_23
Na1 Na1+ 0.14(2) 0.10(2) 0.048(12) -.07(2) -.047(13) 0.034(12)
Na2 Na1+ 0.016(7) 0.045(11) 0.08(2) 0 -.004(8) 0
Na3 Na1+ 0.036(5) 0.044(6) 0.049(7) 0.011(6) 0.007(5) -.022(8)
Si1 Si4+ 0.022(4) 0.016(5) 0.037(7) 0 0.002(5) 0
Se1 Se2- 0.0259(10) 0.0333(13) 0.0323(13) 0.002(1) 0.000(2) -.003(2)
Se2 Se2- 0.018(2) 0.043(3) 0.057(3) 0 -.002(2) 0
Se3 Se2- 0.048(2) 0.040(2) 0.028(2) 0 0.008(2) 0
#End of data_409726-ICSD


