data_39563-ICSD
#?2014 by Fachinformationszentrum Karlsruhe, and the U.S. Secretary of 
#Commerce on behalf of the United States.  All rights reserved.
_database_code_ICSD                39563
_audit_creation_date               1993/08/22
_audit_update_record               2010/02/01
_chemical_name_systematic          'Lithium Yttrium Fluoride'
_chemical_formula_structural       'Li Y F4'
_chemical_formula_sum              'F4 Li1 Y1'
_publ_section_title                'Crystal structure of Li Y F4.'
loop_
_citation_id
_citation_journal_abbrev
_citation_year
_citation_journal_volume
_citation_page_first
_citation_page_last
_citation_journal_id_ASTM
primary 'Zhurnal Neorganicheskoi Khimii' 1992 37 276 279 ZNOKAQ
2 'Materials Research Bulletin' 1992 27 213 220 MRBUAC
3 'Russian Journal of Inorganic Chemistry' 1992 37 126 128 RJICAQ
_publ_author_name                  'Goryunov, A.V.;Popov, A.I.'
_cell_length_a                     5.1710(5)
_cell_length_b                     5.1710(5)
_cell_length_c                     10.7484(5)
_cell_angle_alpha                  90.
_cell_angle_beta                   90.
_cell_angle_gamma                  90.
_cell_volume                       287.4
_cell_formula_units_Z              4
_symmetry_space_group_name_H-M     'I 41/a Z'
_symmetry_Int_Tables_number        88
_refine_ls_R_factor_all            .01
loop_
_symmetry_equiv_pos_site_id
_symmetry_equiv_pos_as_xyz
  1	'-y+.75, x+.75, -z+.75'
  2	'y+.25, -x+.75, -z+.75'
  3	'x, y+.5, -z'
  4	'-x, -y, -z'
  5	'y+.25, -x+.25, z+.25'
  6	'-y+.75, x+.25, z+.25'
  7	'-x, -y+.5, z'
  8	'x, y, z'
  9	'-y+.25, x+.25, -z+.25'
 10	'y+.75, -x+.25, -z+.25'
 11	'x+.5, y, -z+.5'
 12	'-x+.5, -y+.5, -z+.5'
 13	'y+.75, -x+.75, z+.75'
 14	'-y+.25, x+.75, z+.75'
 15	'-x+.5, -y, z+.5'
 16	'x+.5, y+.5, z+.5'
loop_
_atom_type_symbol
_atom_type_oxidation_number
F1-	-1
Li1+	1
Y3+	3
loop_
_atom_site_label
_atom_site_type_symbol
_atom_site_symmetry_multiplicity
_atom_site_Wyckoff_symbol
_atom_site_fract_x
_atom_site_fract_y
_atom_site_fract_z
_atom_site_occupancy
_atom_site_attached_hydrogens
Li1 Li1+ 4 a 0 0.25 0.125 1. 0 
Y1 Y3+ 4 b 0.5 0.75 0.125 1. 0 
F1 F1- 16 f 0.2815(1) 0.0854(1) 0.0437(1) 1. 0 

loop_
_atom_site_aniso_label
_atom_site_aniso_type_symbol
_atom_site_aniso_U_11
_atom_site_aniso_U_22
_atom_site_aniso_U_33
_atom_site_aniso_U_12
_atom_site_aniso_U_13
_atom_site_aniso_U_23
Li1 Li1+ 0.013(1) 0.013(1) 0.025(3) 0 0 0
Y1 Y3+ 0.0050(1) 0.0050(1) 0.0049(1) 0 0 0
F1 F1- 0.0119(4) 0.0120(4) 0.0122(4) 0.0037(3) 0.0036(3) 0.0032(3)
#End of data_39563-ICSD


