data_189302-ICSD
#?2014 by Fachinformationszentrum Karlsruhe, and the U.S. Secretary of 
#Commerce on behalf of the United States.  All rights reserved.
_database_code_ICSD                189302
_audit_creation_date               2014/02/01
_chemical_name_systematic
;
Potassium Triiron Disulfate Hexahydroxide
;
_chemical_formula_structural       'K Fe3 (S O4)2 (O H)6'
_chemical_formula_sum              'H6 Fe3 K1 O14 S2'
_chemical_name_mineral             Jarosite
_publ_section_title
;
Looking for jarosite on Mars: The low-temperature crystal structure 
of jarosite
;
loop_
_citation_id
_citation_journal_abbrev
_citation_year
_citation_journal_volume
_citation_journal_issue
_citation_page_first
_citation_page_last
_citation_journal_id_ASTM
primary 'American Mineralogist' 2013 98 11-12 1966 1971 AMMIAY
_publ_author_name
;
Stuart J. Mills;Fabrizio Nestola;Volker Kahlenberg;Andrew G. 
Christy;Clivia Hejny;Guenther J. Redhammer
;
_cell_length_a                     7.2931(3)
_cell_length_b                     7.2931(3)
_cell_length_c                     17.1456(10)
_cell_angle_alpha                  90.
_cell_angle_beta                   90.
_cell_angle_gamma                  120.
_cell_volume                       789.78
_cell_formula_units_Z              3
_symmetry_space_group_name_H-M     'R -3 m H'
_symmetry_Int_Tables_number        166
_refine_ls_R_factor_all            .0179
loop_
_symmetry_equiv_pos_site_id
_symmetry_equiv_pos_as_xyz
  1	'x-y, -y, -z'
  2	'-x, -x+y, -z'
  3	'y, x, -z'
  4	'x-y, x, -z'
  5	'y, -x+y, -z'
  6	'-x, -y, -z'
  7	'-x+y, y, z'
  8	'x, x-y, z'
  9	'-y, -x, z'
 10	'-x+y, -x, z'
 11	'-y, x-y, z'
 12	'x, y, z'
 13	'x-y+.6666, -y+.3333, -z+.3333'
 14	'x-y+.3333, -y+.6666, -z+.6666'
 15	'-x+.6666, -x+y+.3333, -z+.3333'
 16	'-x+.3333, -x+y+.6666, -z+.6666'
 17	'y+.6666, x+.3333, -z+.3333'
 18	'y+.3333, x+.6666, -z+.6666'
 19	'x-y+.6666, x+.3333, -z+.3333'
 20	'x-y+.3333, x+.6666, -z+.6666'
 21	'y+.6666, -x+y+.3333, -z+.3333'
 22	'y+.3333, -x+y+.6666, -z+.6666'
 23	'-x+.6666, -y+.3333, -z+.3333'
 24	'-x+.3333, -y+.6666, -z+.6666'
 25	'-x+y+.6666, y+.3333, z+.3333'
 26	'-x+y+.3333, y+.6666, z+.6666'
 27	'x+.6666, x-y+.3333, z+.3333'
 28	'x+.3333, x-y+.6666, z+.6666'
 29	'-y+.6666, -x+.3333, z+.3333'
 30	'-y+.3333, -x+.6666, z+.6666'
 31	'-x+y+.6666, -x+.3333, z+.3333'
 32	'-x+y+.3333, -x+.6666, z+.6666'
 33	'-y+.6666, x-y+.3333, z+.3333'
 34	'-y+.3333, x-y+.6666, z+.6666'
 35	'x+.6666, y+.3333, z+.3333'
 36	'x+.3333, y+.6666, z+.6666'
loop_
_atom_type_symbol
_atom_type_oxidation_number
Fe3+	3
H1+	1
K1+	1
O2-	-2
S6+	6
loop_
_atom_site_label
_atom_site_type_symbol
_atom_site_symmetry_multiplicity
_atom_site_Wyckoff_symbol
_atom_site_fract_x
_atom_site_fract_y
_atom_site_fract_z
_atom_site_occupancy
_atom_site_attached_hydrogens
_atom_site_U_iso_or_equiv
K1 K1+ 3 a 0 0 0 1. 0 0.0137(3) 
Fe1 Fe3+ 9 d 0.5 0 0.5 1. 0 0.00447(19) 
S1 S6+ 6 c 0 0 0.30880(6) 1. 0 0.0066(2) 
O1 O2- 6 c 0 0 0.60621(18) 1. 0 0.0102(6) 
O2 O2- 18 h 0.22272(13) -0.22272(13) -0.05393(10) 1. 0 0.0106(4) 
O3 O2- 18 h 0.12679(14) -0.12679(14) 0.13548(11) 1. 0 0.0090(4) 
H1 H1+ 18 h 0.186(2) -0.186(2) 0.113(2) 1. 0 0.030(10) 

loop_
_atom_site_aniso_label
_atom_site_aniso_type_symbol
_atom_site_aniso_U_11
_atom_site_aniso_U_22
_atom_site_aniso_U_33
_atom_site_aniso_U_12
_atom_site_aniso_U_13
_atom_site_aniso_U_23
K1 K1+ 0.0151(4) 0.0151(4) 0.0108(7) 0.0076(2) 0. 0.
Fe1 Fe3+ 0.0026(2) 0.0013(3) 0.0091(3) 0.00065(13) 0.00003(9) 0.00007(19)
S1 S6+ 0.0054(3) 0.0054(3) 0.0091(5) 0.00270(16) 0. 0.
O1 O2- 0.0107(9) 0.0107(9) 0.0090(15) 0.0054(5) 0. 0.
O2 O2- 0.0115(7) 0.0115(7) 0.0127(10) 0.0087(7) -0.0007(3) 0.0007(3)
O3 O2- 0.0056(6) 0.0056(6) 0.0149(9) 0.0021(7) 0.0013(3) -0.0013(3)
#End of data_189302-ICSD


