data_69019-ICSD
#?2014 by Fachinformationszentrum Karlsruhe, and the U.S. Secretary of 
#Commerce on behalf of the United States.  All rights reserved.
_database_code_ICSD                69019
_audit_creation_date               1992/01/20
_chemical_name_systematic          'Potassium Gallium Oxide'
_chemical_formula_structural       'K Ga O2'
_chemical_formula_sum              'Ga1 K1 O2'
_publ_section_title
;
A Rietveld refinement of the structure of K4/2ZnGeO4 and its 
relationship to a revised model of the KGaO2 structure type
;
loop_
_citation_id
_citation_journal_abbrev
_citation_year
_citation_journal_volume
_citation_page_first
_citation_page_last
_citation_journal_id_ASTM
primary 'Journal of Solid State Chemistry' 1990 87 114 123 JSSCBI
2 'Zeitschrift fuer Anorganische und Allgemeine Chemie (1950) (DE)'
 1969 369 14 14 ZAACAB
_publ_author_name                  'Grins, J.;Louer, D.'
_cell_length_a                     11.07
_cell_length_b                     5.51
_cell_length_c                     15.81
_cell_angle_alpha                  90.
_cell_angle_beta                   90.
_cell_angle_gamma                  90.
_cell_volume                       964.34
_cell_formula_units_Z              16
_symmetry_space_group_name_H-M     'P c a b'
_symmetry_Int_Tables_number        61
_refine_ls_R_factor_all            .105
loop_
_symmetry_equiv_pos_site_id
_symmetry_equiv_pos_as_xyz
  1	'x+.5, -y+.5, z'
  2	'x, y+.5, -z+.5'
  3	'-x+.5, y, z+.5'
  4	'-x, -y, -z'
  5	'-x+.5, y+.5, -z'
  6	'-x, -y+.5, z+.5'
  7	'x+.5, -y, -z+.5'
  8	'x, y, z'
loop_
_atom_type_symbol
_atom_type_oxidation_number
Ga3+	3
K1+	1
O2-	-2
loop_
_atom_site_label
_atom_site_type_symbol
_atom_site_symmetry_multiplicity
_atom_site_Wyckoff_symbol
_atom_site_fract_x
_atom_site_fract_y
_atom_site_fract_z
_atom_site_occupancy
_atom_site_attached_hydrogens
_atom_site_U_iso_or_equiv
Ga1 Ga3+ 8 c 0.0089(2) 0.2596(7) 0.8111(1) 1. 0 0.0129(9) 
Ga2 Ga3+ 8 c 0.2634(2) 0.2803(8) 0.9352(1) 1. 0 0.0139(9) 
K1 K1+ 8 c 0.0142(4) 0.7580(15) 0.9376(3) 1. 0 0.0211(14) 
K2 K1+ 8 c 0.2643(5) 0.7983(18) 0.8153(3) 1. 0 0.0221(15) 
O1 O2- 8 c 0.2985(16) 0.5723(46) 0.9859(11) 1. 0 0.0310(47) 
O2 O2- 8 c 0.4083(15) 0.1553(41) 0.8934(11) 1. 0 0.0258(43) 
O3 O2- 8 c 0.1671(15) 0.3145(44) 0.8444(11) 1. 0 0.0293(49) 
O4 O2- 8 c 0.9818(17) 0.9431(50) 0.7803(12) 1. 0 0.0398(57) 

#End of data_69019-ICSD


