data_80647-ICSD
#?2014 by Fachinformationszentrum Karlsruhe, and the U.S. Secretary of 
#Commerce on behalf of the United States.  All rights reserved.
_database_code_ICSD                80647
_audit_creation_date               1997/05/13
_chemical_name_systematic
;
Fluorosilver(II) Hexaafluoroarsenate(V)
;
_chemical_formula_structural       '(Ag F) (As F6)'
_chemical_formula_sum              'Ag1 As1 F7'
_publ_section_title
;
Structural and magnetic properties of some (Ag F)(+) salts
;
loop_
_citation_id
_citation_journal_abbrev
_citation_year
_citation_journal_volume
_citation_page_first
_citation_page_last
_citation_journal_id_ASTM
primary 'Journal of Solid State Chemistry' 1992 96 84 96 JSSCBI
_publ_author_name
;
Casteel, W.J.jr.;Lucier, G.;Hagiwara, R.;Borrmann, H.;Bartlett, N.
;
_cell_length_a                     7.575(2)
_cell_length_b                     6.970(1)
_cell_length_c                     9.792(2)
_cell_angle_alpha                  90.
_cell_angle_beta                   90.
_cell_angle_gamma                  90.
_cell_volume                       517
_cell_formula_units_Z              4
_symmetry_space_group_name_H-M     'P n m a'
_symmetry_Int_Tables_number        62
_refine_ls_R_factor_all            .021
loop_
_symmetry_equiv_pos_site_id
_symmetry_equiv_pos_as_xyz
  1	'x+.5, y, -z+.5'
  2	'x, -y+.5, z'
  3	'-x+.5, y+.5, z+.5'
  4	'-x, -y, -z'
  5	'-x+.5, -y, z+.5'
  6	'-x, y+.5, -z'
  7	'x+.5, -y+.5, -z+.5'
  8	'x, y, z'
loop_
_atom_type_symbol
_atom_type_oxidation_number
Ag2+	2
As5+	5
F1-	-1
loop_
_atom_site_label
_atom_site_type_symbol
_atom_site_symmetry_multiplicity
_atom_site_Wyckoff_symbol
_atom_site_fract_x
_atom_site_fract_y
_atom_site_fract_z
_atom_site_occupancy
_atom_site_attached_hydrogens
Ag1 Ag2+ 4 c 0.13239(1) 0.25 0.24283(1) 1. 0 
As1 As5+ 4 c 0.30012(1) 0.25 0.56159(1) 1. 0 
F1 F1- 4 c 0.3850(3) 0.25 0.1855(3) 1. 0 
F2 F1- 4 c 0.5058(4) 0.25 0.4845(3) 1. 0 
F3 F1- 4 c 0.0999(4) 0.25 0.6351(3) 1. 0 
F4 F1- 8 d 0.2329(3) 0.0781(3) 0.4450(2) 1. 0 
F5 F1- 8 d 0.3747(2) 0.0752(3) 0.6708(2) 1. 0 

loop_
_atom_site_aniso_label
_atom_site_aniso_type_symbol
_atom_site_aniso_U_11
_atom_site_aniso_U_22
_atom_site_aniso_U_33
_atom_site_aniso_U_12
_atom_site_aniso_U_13
_atom_site_aniso_U_23
Ag1 Ag2+ 0.0076(1) 0.0123(1) 0.0125(1) 0 -.00104(9) 0
As1 As5+ 0.0142(2) 0.0138(1) 0.0108(2) 0 0.0002(1) 0
F1 F1- 0.007(1) 0.029(1) 0.020(1) 0 -.0004(8) 0
F2 F1- 0.015(1) 0.032(1) 0.020(1) 0 0.003(1) 0
F3 F1- 0.022(1) 0.063(2) 0.032(1) 0 0.011(1) 0
F4 F1- 0.0328(9) 0.0200(8) 0.0200(7) -.0059(8) -.0088(7) -.0037(7)
F5 F1- 0.039(1) 0.0148(7) 0.0190(7) -.0024(7) -.0081(7) 0.0048(7)
#End of data_80647-ICSD


