data_416069-ICSD
#?2014 by Fachinformationszentrum Karlsruhe, and the U.S. Secretary of 
#Commerce on behalf of the United States.  All rights reserved.
_database_code_ICSD                416069
_audit_creation_date               2007/04/01
_chemical_name_systematic          'Potassium Nitroformate'
_chemical_formula_structural       'K C (N O2)3'
_chemical_formula_sum              'C1 K1 N3 O6'
_publ_section_title
;
Crystal structures of the potassium and silver salts of nitroform
;
loop_
_citation_id
_citation_journal_abbrev
_citation_year
_citation_journal_volume
_citation_journal_issue
_citation_page_first
_citation_page_last
_citation_journal_id_ASTM
primary 'Zeitschrift fuer Anorganische und Allgemeine Chemie (1950) (DE)'
 2006 632 6 1043 1050 ZAACAB
_publ_author_name
;
Goebel, M.;Klapoetke, T.M.;Mayer, P.
;
_cell_length_a                     11.3594(5)
_cell_length_b                     11.3594(5)
_cell_length_c                     8.7883(5)
_cell_angle_alpha                  90.00
_cell_angle_beta                   90.00
_cell_angle_gamma                  90.00
_cell_volume                       1134.01
_cell_formula_units_Z              8
_symmetry_space_group_name_H-M     'I -4 2 d'
_symmetry_Int_Tables_number        122
_refine_ls_R_factor_all            .0443
loop_
_symmetry_equiv_pos_site_id
_symmetry_equiv_pos_as_xyz
  1	'-y, -x+.5, z+.25'
  2	'y, -x, -z'
  3	'y, x+.5, z+.25'
  4	'-y, x, -z'
  5	'x, -y+.5, -z+.25'
  6	'-x, -y, z'
  7	'-x, y+.5, -z+.25'
  8	'x, y, z'
  9	'-y+.5, -x, z+.75'
 10	'y+.5, -x+.5, -z+.5'
 11	'y+.5, x, z+.75'
 12	'-y+.5, x+.5, -z+.5'
 13	'x+.5, -y, -z+.75'
 14	'-x+.5, -y+.5, z+.5'
 15	'-x+.5, y, -z+.75'
 16	'x+.5, y+.5, z+.5'
loop_
_atom_type_symbol
_atom_type_oxidation_number
C2+	2
K1+	1
N3+	3
O2-	-2
loop_
_atom_site_label
_atom_site_type_symbol
_atom_site_symmetry_multiplicity
_atom_site_Wyckoff_symbol
_atom_site_fract_x
_atom_site_fract_y
_atom_site_fract_z
_atom_site_occupancy
_atom_site_attached_hydrogens
_atom_site_U_iso_or_equiv
K1 K1+ 8 d 0.47637(6) 0.2500 0.6250 1 0 0.02197(19) 
O1 O2- 16 e 0.62947(12) 0.03764(13) 0.58187(18) 1 0 0.0260(4) 
O2 O2- 16 e 0.63209(13) -0.09628(13) 0.4051(2) 1 0 0.0313(5) 
O3 O2- 16 e 0.66694(12) 0.23780(13) 0.43635(17) 1 0 0.0248(4) 
N1 N3+ 16 e 0.66557(17) -0.00163(16) 0.4595(2) 1 0 0.0195(4) 
N2 N3+ 8 d 0.7500 0.1835(2) 0.3750 1 0 0.0187(6) 
C1 C2+ 8 d 0.7500 0.0625(2) 0.3750 1 0 0.0160(7) 

loop_
_atom_site_aniso_label
_atom_site_aniso_type_symbol
_atom_site_aniso_U_11
_atom_site_aniso_U_22
_atom_site_aniso_U_33
_atom_site_aniso_U_12
_atom_site_aniso_U_13
_atom_site_aniso_U_23
K1 K1+ 0.0152(3) 0.0284(5) 0.0224(4) 0.000 0.000 -0.0031(4)
O1 O2- 0.0286(9) 0.0271(9) 0.0223(11) 0.0025(7) 0.0100(7) -0.0004(8)
O2 O2- 0.0396(10) 0.0205(8) 0.0339(12) -0.0149(7) 0.0029(8) -0.0048(8)
O3 O2- 0.0228(8) 0.0205(8) 0.0310(10) 0.0061(8) 0.0086(8) 0.0015(7)
N1 N3+ 0.0184(11) 0.0194(11) 0.0206(11) 0.0014(8) 0.0009(9) 0.0037(9)
N2 N3+ 0.0175(14) 0.0205(13) 0.0180(15) 0.000 0.0012(12) 0.000
C1 C2+ 0.0159(15) 0.0135(14) 0.0186(17) 0.000 -0.0010(18) 0.000
#End of data_416069-ICSD


