data_33886-ICSD
#?2014 by Fachinformationszentrum Karlsruhe, and the U.S. Secretary of 
#Commerce on behalf of the United States.  All rights reserved.
_database_code_ICSD                33886
_audit_creation_date               1992/01/20
_chemical_name_systematic          'Magnesium Hydrogensulfate Hydrate'
_chemical_formula_structural       'Mg (H S O4)2 (H2 O)'
_chemical_formula_sum              'H4 Mg1 O9 S2'
_publ_section_title
;
Ueber die Bildung und Kristallstruktur von Mg(HSO4)2 * H2O
;
loop_
_citation_id
_citation_journal_abbrev
_citation_year
_citation_journal_volume
_citation_page_first
_citation_page_last
_citation_journal_id_ASTM
primary 'Zeitschrift fuer Anorganische und Allgemeine Chemie (1950) (DE)'
 1991 596 167 171 ZAACAB
_publ_author_name
;
Worzala, H.;Schneider, M.;Kemnitz, E.;Troyanov, S.I.
;
_cell_length_a                     8.623(2)
_cell_length_b                     5.014(1)
_cell_length_c                     15.428(3)
_cell_angle_alpha                  90.
_cell_angle_beta                   101.33(2)
_cell_angle_gamma                  90.
_cell_volume                       654.04
_cell_formula_units_Z              4
_symmetry_space_group_name_H-M     'P 1 21/n 1'
_symmetry_Int_Tables_number        14
_refine_ls_R_factor_all            .04
loop_
_symmetry_equiv_pos_site_id
_symmetry_equiv_pos_as_xyz
  1	'-x+.5, y+.5, -z+.5'
  2	'-x, -y, -z'
  3	'x+.5, -y+.5, z+.5'
  4	'x, y, z'
loop_
_atom_type_symbol
_atom_type_oxidation_number
H1+	1
Mg2+	2
O2-	-2
S6+	6
loop_
_atom_site_label
_atom_site_type_symbol
_atom_site_symmetry_multiplicity
_atom_site_Wyckoff_symbol
_atom_site_fract_x
_atom_site_fract_y
_atom_site_fract_z
_atom_site_occupancy
_atom_site_attached_hydrogens
_atom_site_B_iso_or_equiv
S1 S6+ 4 e 0.6320(1) 0.2597(3) 0.1011(1) 1. 0 0.78(2) 
S2 S6+ 4 e 1.1129(1) -.2548(4) 0.1106(1) 1. 0 0.77(2) 
Mg1 Mg2+ 4 e 0.7469(2) -.2474(6) -.0115(1) 1. 0 0.86(3) 
O1 O2- 4 e 0.7367(5) 0.0875(9) 0.0637(3) 1. 0 1.32(8) 
O2 O2- 4 e 0.6382(4) 0.5345(9) 0.0734(3) 1. 0 1.25(8) 
O3 O2- 4 e 0.4712(4) 0.1571(9) 0.0900(3) 1. 0 1.10(7) 
O4 O2- 4 e 0.6893(4) 0.251(1) 0.2025(2) 1. 0 1.44(7) 
O5 O2- 4 e 0.9570(4) -.3410(9) 0.0689(3) 1. 0 1.30(8) 
O6 O2- 4 e 0.7641(4) 0.4321(9) -.0933(3) 1. 0 1.19(8) 
O7 O2- 4 e 0.8551(5) -.0227(9) -.0951(3) 1. 0 1.31(7) 
O8 O2- 4 e 0.3797(5) 0.241(1) 0.2880(2) 1. 0 1.47(7) 
O9 O2- 4 e 0.9968(5) -.2791(9) -.2584(3) 1. 0 1.72(8) 
H1 H1+ 4 e 0.73(1) -.22(3) 0.275(6) 1. 0 7.000(3) 
H2 H1+ 4 e 0.415(7) 0.09(1) 0.272(4) 1. 0 1.000(1) 
H3 H1+ 4 e 0.47(1) -.20(3) 0.187(6) 1. 0 6.000(2) 
H4 H1+ 4 e 0.44(1) -.32(3) 0.269(7) 1. 0 9.000(4) 

#End of data_33886-ICSD


