data_79690-ICSD
#?2014 by Fachinformationszentrum Karlsruhe, and the U.S. Secretary of 
#Commerce on behalf of the United States.  All rights reserved.
_database_code_ICSD                79690
_audit_creation_date               1996/10/14
_audit_update_record               2014/08/01
_chemical_name_systematic
;
Dipotassium Cerium(IV) Hexanitrate(V) - Lt
;
_chemical_formula_structural       'K2 Ce (N O3)6'
_chemical_formula_sum              'Ce1 K2 N6 O18'
_publ_section_title
;
Two polymorphic forms of ceric potassium nitrate, K2 Ce (N O3)6
;
loop_
_citation_id
_citation_journal_abbrev
_citation_year
_citation_journal_volume
_citation_page_first
_citation_page_last
_citation_journal_id_ASTM
primary 'Acta Crystallographica, Section C: Crystal Structure Communications'
 1995 51 1029 1032 ACSCEE
_publ_author_name
;
Guillou, N.;Louer, M.;Auufredic, J.P.;Louer, D.
;
_cell_length_a                     12.707(4)
_cell_length_b                     6.6858(6)
_cell_length_c                     8.2535(7)
_cell_angle_alpha                  90.
_cell_angle_beta                   91.547(8)
_cell_angle_gamma                  90.
_cell_volume                       700.93
_cell_formula_units_Z              2
_symmetry_space_group_name_H-M     'P 1 21/n 1'
_symmetry_Int_Tables_number        14
_refine_ls_R_factor_all            .042
loop_
_symmetry_equiv_pos_site_id
_symmetry_equiv_pos_as_xyz
  1	'-x+.5, y+.5, -z+.5'
  2	'-x, -y, -z'
  3	'x+.5, -y+.5, z+.5'
  4	'x, y, z'
loop_
_atom_type_symbol
_atom_type_oxidation_number
Ce4+	4
K1+	1
N5+	5
O2-	-2
loop_
_atom_site_label
_atom_site_type_symbol
_atom_site_symmetry_multiplicity
_atom_site_Wyckoff_symbol
_atom_site_fract_x
_atom_site_fract_y
_atom_site_fract_z
_atom_site_occupancy
_atom_site_attached_hydrogens
Ce1 Ce4+ 2 a 0.5 0.5 0.5 1. 0 
K1 K1+ 4 e 0.1602(1) 0.2758(2) 0.5417(2) 1. 0 
N1 N5+ 4 e 0.6819(3) 0.2328(6) 0.4627(5) 1. 0 
O1 O2- 4 e 0.6196(3) 0.2162(5) 0.5766(4) 1. 0 
O2 O2- 4 e 0.6696(3) 0.3876(5) 0.3735(4) 1. 0 
O3 O2- 4 e 0.7496(3) 0.1095(6) 0.4363(6) 1. 0 
N2 N5+ 4 e 0.3872(3) 0.2195(6) 0.2832(5) 1. 0 
O4 O2- 4 e 0.4848(3) 0.2061(5) 0.3142(4) 1. 0 
O5 O2- 4 e 0.3412(3) 0.3647(5) 0.3570(4) 1. 0 
O6 O2- 4 e 0.3394(3) 0.1075(5) 0.1948(5) 1. 0 
N3 N5+ 4 e 0.4504(3) 0.2546(6) 0.7834(5) 1. 0 
O7 O2- 4 e 0.4072(3) 0.2222(5) 0.6448(4) 1. 0 
O8 O2- 4 e 0.5048(3) 0.4140(5) 0.7960(4) 1. 0 
O9 O2- 4 e 0.4418(3) 0.1398(5) 0.8968(5) 1. 0 

loop_
_atom_site_aniso_label
_atom_site_aniso_type_symbol
_atom_site_aniso_U_11
_atom_site_aniso_U_22
_atom_site_aniso_U_33
_atom_site_aniso_U_12
_atom_site_aniso_U_13
_atom_site_aniso_U_23
Ce1 Ce4+ 0.0149(2) 0.0150(2) 0.0144(2) 0.00010(9) 0.0003(2) 0.0009(1)
K1 K1+ 0.0387(6) 0.0330(6) 0.0409(6) 0.0059(5) 0.0044(5) 0.0048(5)
N1 N5+ 0.020(2) 0.021(2) 0.026(2) -.002(1) 0.000(2) -.002(2)
O1 O2- 0.020(1) 0.033(2) 0.028(2) 0.003(1) 0.002(1) 0.006(1)
O2 O2- 0.026(1) 0.024(2) 0.025(2) 0.002(1) 0.004(1) 0.004(1)
O3 O2- 0.026(2) 0.024(2) 0.063(3) 0.006(1) 0.004(2) -.008(2)
N2 N5+ 0.023(2) 0.017(2) 0.017(2) -.004(1) -.002(1) 0.001(1)
O4 O2- 0.019(1) 0.024(1) 0.033(2) 0.003(1) -.005(1) -.004(1)
O5 O2- 0.021(1) 0.026(2) 0.028(2) 0.004(1) -.002(1) -.003(1)
O6 O2- 0.037(2) 0.026(2) 0.028(2) -.006(1) -.010(1) -.003(1)
N3 N5+ 0.024(2) 0.025(2) 0.023(2) 0.006(2) 0.006(2) 0.006(2)
O7 O2- 0.029(2) 0.024(2) 0.026(2) -.003(1) -.001(1) 0.001(1)
O8 O2- 0.036(2) 0.027(2) 0.023(2) -.010(1) 0.001(1) 0.003(1)
O9 O2- 0.045(2) 0.031(2) 0.030(2) 0.006(2) 0.012(2) 0.017(2)
#End of data_79690-ICSD


