data_413739-ICSD
#?2014 by Fachinformationszentrum Karlsruhe, and the U.S. Secretary of 
#Commerce on behalf of the United States.  All rights reserved.
_database_code_ICSD                413739
_audit_creation_date               2005/10/01
_audit_update_record               2010/08/01
_chemical_name_systematic
;
Hexapotassium Tridecaselenotetracadmiotristannate
;
_chemical_formula_structural       'K6 (Cd4 Sn3 Se13)'
_chemical_formula_sum              'Cd4 K6 Se13 Sn3'
_publ_section_title
;
K6 Cd4 Sn3 Se13: A polar open-framework compound based on the 
partially destroyed supertetrahedral [Cd4 Sn4 Se17]10- cluster
;
loop_
_citation_id
_citation_journal_abbrev
_citation_year
_citation_journal_volume
_citation_journal_issue
_citation_page_first
_citation_page_last
_citation_journal_id_ASTM
primary 'ChemComm - Chemical Communications' 2004 2004 10 1170 1171 CHCOFS
_publ_author_name
;
Ding Nan;Chung Duck Young;Kanatzidis, M.
;
_cell_length_a                     15.0338(11)
_cell_length_b                     15.0338(11)
_cell_length_c                     16.512(2)
_cell_angle_alpha                  90.
_cell_angle_beta                   90.
_cell_angle_gamma                  120.
_cell_volume                       3231.97
_cell_formula_units_Z              3
_symmetry_space_group_name_H-M     'R 3 m H'
_symmetry_Int_Tables_number        160
_refine_ls_R_factor_all            .0804
loop_
_symmetry_equiv_pos_site_id
_symmetry_equiv_pos_as_xyz
  1	'-x+y, y, z'
  2	'x, x-y, z'
  3	'-y, -x, z'
  4	'-x+y, -x, z'
  5	'-y, x-y, z'
  6	'x, y, z'
  7	'-x+y+.6666, y+.3333, z+.3333'
  8	'-x+y+.3333, y+.6666, z+.6666'
  9	'x+.6666, x-y+.3333, z+.3333'
 10	'x+.3333, x-y+.6666, z+.6666'
 11	'-y+.6666, -x+.3333, z+.3333'
 12	'-y+.3333, -x+.6666, z+.6666'
 13	'-x+y+.6666, -x+.3333, z+.3333'
 14	'-x+y+.3333, -x+.6666, z+.6666'
 15	'-y+.6666, x-y+.3333, z+.3333'
 16	'-y+.3333, x-y+.6666, z+.6666'
 17	'x+.6666, y+.3333, z+.3333'
 18	'x+.3333, y+.6666, z+.6666'
loop_
_atom_type_symbol
_atom_type_oxidation_number
Cd2+	2
K1+	1
Se2-	-2
Sn4+	4
loop_
_atom_site_label
_atom_site_type_symbol
_atom_site_symmetry_multiplicity
_atom_site_Wyckoff_symbol
_atom_site_fract_x
_atom_site_fract_y
_atom_site_fract_z
_atom_site_occupancy
_atom_site_attached_hydrogens
_atom_site_U_iso_or_equiv
Cd1 Cd2+ 3 a 0.0000 0.0000 0.53600(13) 1 0 0.0332(5) 
Cd2 Cd2+ 9 b -0.09695(6) -0.19390(12) 0.73663(8) 1 0 0.0410(4) 
Sn1 Sn4+ 9 b 0.15083(5) -0.15083(5) 0.60144(9) 1 0 0.0373(3) 
Se1 Se2- 3 a 0.0000 0.0000 0.69189(19) 1 0 0.0324(7) 
Se2 Se2- 9 b 0.09496(8) -0.09496(8) 0.47726(12) 1 0 0.0497(6) 
Se3 Se2- 9 b -0.08919(7) -0.17838(14) 0.89548(11) 1 0 0.0451(5) 
Se4 Se2- 18 c 0.00279(17) -0.28336(14) 0.68304(15) 1 0 0.0743(6) 
K1 K1+ 9 b -0.2982(8) -0.1491(4) 0.8689(9) 1 0 0.154(4) 
K2 K1+ 9 b -0.1527(5) -0.3054(10) 0.4881(17) 1 0 0.265(12) 

loop_
_atom_site_aniso_label
_atom_site_aniso_type_symbol
_atom_site_aniso_U_11
_atom_site_aniso_U_22
_atom_site_aniso_U_33
_atom_site_aniso_U_12
_atom_site_aniso_U_13
_atom_site_aniso_U_23
Cd1 Cd2+ 0.0342(8) 0.0342(8) 0.0312(11) 0.0171(4) 0.000 0.000
Cd2 Cd2+ 0.0368(5) 0.0471(8) 0.0424(8) 0.0236(4) 0.0044(3) 0.0089(6)
Sn1 Sn4+ 0.0364(5) 0.0364(5) 0.0437(7) 0.0217(6) 0.0053(3) -0.0053(3)
Se1 Se2- 0.0346(10) 0.0346(10) 0.0281(14) 0.0173(5) 0.000 0.000
Se2 Se2- 0.0620(10) 0.0620(10) 0.0416(11) 0.0435(12) 0.0060(4) -0.0060(4)
Se3 Se2- 0.0571(10) 0.0302(10) 0.0390(11) 0.0151(5) 0.0039(4) 0.0077(8)
Se4 Se2- 0.0707(12) 0.0518(11) 0.1120(15) 0.0394(10) 0.0483(11) 0.0251(11)
K1 K1+ 0.108(8) 0.138(7) 0.206(13) 0.054(4) 0.016(8) 0.008(4)
K2 K1+ 0.149(10) 0.129(10) 0.51(4) 0.064(5) -0.050(7) -0.100(15)
#End of data_413739-ICSD


