data_290980-ICSD
#?2014 by Fachinformationszentrum Karlsruhe, and the U.S. Secretary of 
#Commerce on behalf of the United States.  All rights reserved.
_database_code_ICSD                290980
_audit_creation_date               2014/08/01
_chemical_name_systematic          'Sodium Magnesium Trifluoride'
_chemical_formula_structural       'Na Mg F3'
_chemical_formula_sum              'F3 Mg1 Na1'
_publ_section_title
;
A high-resolution powder neutron diffraction study of the crystal 
structure of neighborite (Na Mg F3) between 9 and 440 K
;
loop_
_citation_id
_citation_journal_abbrev
_citation_year
_citation_journal_volume
_citation_journal_issue
_citation_page_first
_citation_page_last
_citation_journal_id_ASTM
primary 'American Mineralogist' 2014 99 4 824 838 AMMIAY
_publ_author_name                  'Knight, Kevin S.'
_cell_length_a                     5.32517(2)
_cell_length_b                     5.47795(2)
_cell_length_c                     7.62732(3)
_cell_angle_alpha                  90
_cell_angle_beta                   90
_cell_angle_gamma                  90
_cell_volume                       222.49
_cell_formula_units_Z              4
_symmetry_space_group_name_H-M     'P b n m'
_symmetry_Int_Tables_number        62
_refine_ls_R_factor_all            .037
loop_
_symmetry_equiv_pos_site_id
_symmetry_equiv_pos_as_xyz
  1	'-x+.5, y+.5, z'
  2	'x, y, -z+.5'
  3	'x+.5, -y+.5, z+.5'
  4	'-x, -y, -z'
  5	'x+.5, -y+.5, -z'
  6	'-x, -y, z+.5'
  7	'-x+.5, y+.5, -z+.5'
  8	'x, y, z'
loop_
_atom_type_symbol
_atom_type_oxidation_number
F1-	-1
Mg2+	2
Na1+	1
loop_
_atom_site_label
_atom_site_type_symbol
_atom_site_symmetry_multiplicity
_atom_site_Wyckoff_symbol
_atom_site_fract_x
_atom_site_fract_y
_atom_site_fract_z
_atom_site_occupancy
_atom_site_attached_hydrogens
_atom_site_U_iso_or_equiv
Na1 Na1+ 4 c -0.01250(24) 0.54971(19) 0.25 1.0 0 0.00498(25) 
Mg1 Mg2+ 4 a 0.0 0.0 0.0 1.0 0 0.00045(17) 
F1 F1- 4 c 0.09313(13) -0.03007(12) 0.25 1.0 0 0.00204(18) 
F2 F1- 8 d 0.29816(9) 0.20415(9) -0.04857(6) 1.0 0 0.00258(14) 

#End of data_290980-ICSD


