data_417773-ICSD
#?2014 by Fachinformationszentrum Karlsruhe, and the U.S. Secretary of 
#Commerce on behalf of the United States.  All rights reserved.
_database_code_ICSD                417773
_audit_creation_date               2008/02/01
_chemical_name_systematic
;
Silver Vanadium(V) Pentaoxoselenate(IV)
;
_chemical_formula_structural       'Ag V (Se O5)'
_chemical_formula_sum              'Ag1 O5 Se1 V1'
_publ_section_title
;
Hydrothermal synthesis and crystal structure of Ag V M O5 (M=Se,Te)
;
loop_
_citation_id
_citation_journal_abbrev
_citation_year
_citation_journal_volume
_citation_journal_issue
_citation_page_first
_citation_page_last
_citation_journal_id_ASTM
primary 'Zeitschrift fuer Anorganische und Allgemeine Chemie (1950) (DE)'
 2007 633 10 1563 1567 ZAACAB
_publ_author_name                  'Pitzschke, D.;Jansen, M.'
_cell_length_a                     4.18138(9)
_cell_length_b                     20.0770(6)
_cell_length_c                     5.2117(2)
_cell_angle_alpha                  90.00
_cell_angle_beta                   90.00
_cell_angle_gamma                  90.00
_cell_volume                       437.52
_cell_formula_units_Z              4
_symmetry_space_group_name_H-M     'P b c m'
_symmetry_Int_Tables_number        57
_refine_ls_R_factor_all            .0384
loop_
_symmetry_equiv_pos_site_id
_symmetry_equiv_pos_as_xyz
  1	'x, -y+.5, z+.5'
  2	'-x, y+.5, z'
  3	'x, y, -z+.5'
  4	'-x, -y, -z'
  5	'-x, y+.5, -z+.5'
  6	'x, -y+.5, -z'
  7	'-x, -y, z+.5'
  8	'x, y, z'
loop_
_atom_type_symbol
_atom_type_oxidation_number
Ag1+	1
O2-	-2
Se4+	4
V5+	5
loop_
_atom_site_label
_atom_site_type_symbol
_atom_site_symmetry_multiplicity
_atom_site_Wyckoff_symbol
_atom_site_fract_x
_atom_site_fract_y
_atom_site_fract_z
_atom_site_occupancy
_atom_site_attached_hydrogens
_atom_site_U_iso_or_equiv
Ag1 Ag1+ 4 d 0.33044(11) 0.01560(2) 0.2500 1 0 0.02325(13) 
Se1 Se4+ 4 d 0.76399(13) 0.87833(2) 0.2500 1 0 0.01509(13) 
V1 V5+ 4 d 0.4085(2) 0.69151(4) 0.2500 1 0 0.01282(16) 
O1 O2- 8 e 0.4999(8) 0.88059(15) 0.5016(6) 1 0 0.0281(7) 
O2 O2- 4 d 0.8505(11) 0.9598(2) 0.2500 1 0 0.0342(12) 
O3 O2- 4 d 0.0276(10) 0.6875(2) 0.2500 1 0 0.0219(7) 
O4 O2- 4 c 0.5003(13) 0.7500 0.0000 1 0 0.056(2) 

loop_
_atom_site_aniso_label
_atom_site_aniso_type_symbol
_atom_site_aniso_U_11
_atom_site_aniso_U_22
_atom_site_aniso_U_33
_atom_site_aniso_U_12
_atom_site_aniso_U_13
_atom_site_aniso_U_23
Ag1 Ag1+ 0.0261(2) 0.01889(19) 0.0248(2) -0.00320(14) 0.000 0.000
Se1 Se4+ 0.0184(2) 0.0130(2) 0.0139(2) 0.00059(16) 0.000 0.000
V1 V5+ 0.0162(3) 0.0115(3) 0.0107(3) -0.0001(2) 0.000 0.000
O1 O2- 0.0428(18) 0.0244(13) 0.0173(12) 0.0118(13) 0.0116(13) 0.0068(11)
O2 O2- 0.0197(19) 0.0142(17) 0.069(4) -0.0054(15) 0.000 0.000
O3 O2- 0.0169(17) 0.0263(18) 0.0226(17) 0.0023(14) 0.000 0.000
O4 O2- 0.027(2) 0.035(2) 0.107(6) 0.000 0.000 0.045(3)
#End of data_417773-ICSD


