data_100661-ICSD
#?2014 by Fachinformationszentrum Karlsruhe, and the U.S. Secretary of 
#Commerce on behalf of the United States.  All rights reserved.
_database_code_ICSD                100661
_audit_creation_date               1980/01/01
_audit_update_record               1997/11/10
_chemical_name_systematic
;
Calcium Tellurium(IV) Oxide Hexaoxotellurate
;
_chemical_formula_structural       'Ca (Te O)2 (Te O6)'
_chemical_formula_sum              'Ca1 O8 Te3'
_chemical_name_mineral             Carlfrieseite
_publ_section_title
;
Carlfriesite: crystal structure, revision of chemical formula, and 
synthesis
;
loop_
_citation_id
_citation_journal_abbrev
_citation_year
_citation_journal_volume
_citation_page_first
_citation_page_last
_citation_journal_id_ASTM
primary 'American Mineralogist' 1978 63 847 852 AMMIAY
_publ_author_name
;
Effenberger, H.;Zemann, J.;Mayer, H.
;
_cell_length_a                     12.576(2)
_cell_length_b                     5.662(3)
_cell_length_c                     9.994(2)
_cell_angle_alpha                  90.
_cell_angle_beta                   115.56(3)
_cell_angle_gamma                  90.
_cell_volume                       641.98
_cell_formula_units_Z              4
_symmetry_space_group_name_H-M     'C 1 2/c 1'
_symmetry_Int_Tables_number        15
_refine_ls_R_factor_all            .027
loop_
_symmetry_equiv_pos_site_id
_symmetry_equiv_pos_as_xyz
  1	'x, -y, z+.5'
  2	'-x, -y, -z'
  3	'-x, y, -z+.5'
  4	'x, y, z'
  5	'x+.5, -y+.5, z+.5'
  6	'-x+.5, -y+.5, -z'
  7	'-x+.5, y+.5, -z+.5'
  8	'x+.5, y+.5, z'
loop_
_atom_type_symbol
_atom_type_oxidation_number
Ca2+	2
O2-	-2
Te4+	4
Te6+	6
loop_
_atom_site_label
_atom_site_type_symbol
_atom_site_symmetry_multiplicity
_atom_site_Wyckoff_symbol
_atom_site_fract_x
_atom_site_fract_y
_atom_site_fract_z
_atom_site_occupancy
_atom_site_attached_hydrogens
_atom_site_B_iso_or_equiv
Te1 Te4+ 8 f 0.71563(5) 0.58751(12) 0.85825(7) 1. 0 0 
Te2 Te6+ 4 a 0 0 0 1. 0 0 
Ca1 Ca2+ 4 e 0 0.4404(5) 0.25 1. 0 0 
O1 O2- 8 f 0.0804(6) 0.2183(12) 0.6616(7) 1. 0 0.76(10) 
O2 O2- 8 f 0.0980(6) 0.2441(12) 0.1171(7) 1. 0 0.83(11) 
O3 O2- 8 f 0.1043(5) 0.0928(12) 0.4068(6) 1. 0 0.56(10) 
O4 O2- 8 f 0.6839(5) 0.1042(12) 0.4098(7) 1. 0 0.67(10) 

loop_
_atom_site_aniso_label
_atom_site_aniso_type_symbol
_atom_site_aniso_B_11
_atom_site_aniso_B_22
_atom_site_aniso_B_33
_atom_site_aniso_B_12
_atom_site_aniso_B_13
_atom_site_aniso_B_23
Te1 Te4+ 0.850(22) 0.858(24) 0.673(21) -.006(19) 0.358(16) -.086(18)
Te2 Te6+ 0.531(29) 0.665(30) 0.291(27) -.062(25) 0.110(21) -.002(23)
Ca1 Ca2+ 0.34(9) 0.45(10) 0.44(8) 0 0.03(7) 0
#End of data_100661-ICSD


