data_426215-ICSD
#?2014 by Fachinformationszentrum Karlsruhe, and the U.S. Secretary of 
#Commerce on behalf of the United States.  All rights reserved.
_database_code_ICSD                426215
_audit_creation_date               2014/08/01
_chemical_name_systematic          'Lithium Cerium(IV) Fluoride'
_chemical_formula_structural       'Li Ce F5'
_chemical_formula_sum              'Ce1 F5 Li1'
_publ_section_title
;
Crystal structures and stability of Li Ce F5 and Li Th F5 at high 
pressures: A comparative study of the coordination around the Ce(4+) 
and Th(4+) ions
;
loop_
_citation_id
_citation_journal_abbrev
_citation_year
_citation_journal_volume
_citation_page_first
_citation_page_last
_citation_journal_id_ASTM
primary 'Journal of Fluorine Chemistry' 2013 156 124 129 JFLCAR
_publ_author_name
;
Grzechnik, Andrzej;Underwood, Christopher C.;Kolis, Joseph W.;Friese, 
Karen
;
_cell_length_a                     14.2708(11)
_cell_length_b                     14.2708(11)
_cell_length_c                     6.3284(4)
_cell_angle_alpha                  90.
_cell_angle_beta                   90.
_cell_angle_gamma                  90.
_cell_volume                       1288.81
_cell_formula_units_Z              16
_symmetry_space_group_name_H-M     'I 41/a S'
_symmetry_Int_Tables_number        88
_refine_ls_R_factor_all            .0468
loop_
_symmetry_equiv_pos_site_id
_symmetry_equiv_pos_as_xyz
  1	'y, -x+.5, z+.25'
  2	'-y, x+.5, z+.25'
  3	'y, -x, -z'
  4	'-y, x, -z'
  5	'-x, -y+.5, -z+.25'
  6	'x, y+.5, -z+.25'
  7	'-x, -y, z'
  8	'x, y, z'
  9	'y+.5, -x, z+.75'
 10	'-y+.5, x, z+.75'
 11	'y+.5, -x+.5, -z+.5'
 12	'-y+.5, x+.5, -z+.5'
 13	'-x+.5, -y, -z+.75'
 14	'x+.5, y, -z+.75'
 15	'-x+.5, -y+.5, z+.5'
 16	'x+.5, y+.5, z+.5'
loop_
_atom_type_symbol
_atom_type_oxidation_number
Ce4+	4
F1-	-1
Li1+	1
loop_
_atom_site_label
_atom_site_type_symbol
_atom_site_symmetry_multiplicity
_atom_site_Wyckoff_symbol
_atom_site_fract_x
_atom_site_fract_y
_atom_site_fract_z
_atom_site_occupancy
_atom_site_attached_hydrogens
_atom_site_U_iso_or_equiv
Ce1 Ce4+ 16 f 0.19508(16) 0.06225(18) 0.1221(4) 1 0 0.0115(7) 
F1 F1- 16 f 0.2947(14) 0.0740(14) 0.392(3) 1 0 0.021(5) 
F2 F1- 16 f 0.2930(17) 0.1623(16) -0.014(3) 1 0 0.027(5) 
F3 F1- 16 f 0.0781(13) 0.0526(13) 0.354(3) 1 0 0.012(5) 
F4 F1- 16 f 0.3019(15) -0.0383(14) 0.003(3) 1 0 0.012(4) 
F5 F1- 16 f 0.0650(16) 0.1077(16) -0.046(3) 1 0 0.021(5) 
Li1 Li1+ 16 f 0.417(5) -0.062(5) 0.083(9) 1 0 0.0285 

#End of data_426215-ICSD


