data_65453-ICSD
#?2014 by Fachinformationszentrum Karlsruhe, and the U.S. Secretary of 
#Commerce on behalf of the United States.  All rights reserved.
_database_code_ICSD                65453
_audit_creation_date               1989/12/04
_audit_update_record               2010/02/01
_chemical_name_systematic
;
Potassium Catena-dithiomanganate(II)
;
_chemical_formula_structural       'K2 (Mn S2)'
_chemical_formula_sum              'K2 Mn1 S2'
_publ_section_title
;
Ueber Alkalimetallmanganchalkogenide A2 Mn X2 mit A= K, Rb oder Cs 
und X= S, Se oder Te
;
loop_
_citation_id
_citation_journal_abbrev
_citation_year
_citation_journal_volume
_citation_page_first
_citation_page_last
_citation_journal_id_ASTM
primary 'Zeitschrift fuer Anorganische und Allgemeine Chemie (1950) (DE)'
 1989 574 99 106 ZAACAB
_publ_author_name
;
Bronger, W.;Balk-Hardtdegen, H.;Schmitz, D.
;
_cell_length_a                     6.932(2)
_cell_length_b                     12.636(3)
_cell_length_c                     6.179(2)
_cell_angle_alpha                  90.
_cell_angle_beta                   90.
_cell_angle_gamma                  90.
_cell_volume                       541.24
_cell_formula_units_Z              4
_symmetry_space_group_name_H-M     'I b a m'
_symmetry_Int_Tables_number        72
_refine_ls_R_factor_all            .034
loop_
_symmetry_equiv_pos_site_id
_symmetry_equiv_pos_as_xyz
  1	'-x, y, z+.5'
  2	'x, -y, z+.5'
  3	'x, y, -z'
  4	'-x, -y, -z'
  5	'x, -y, -z+.5'
  6	'-x, y, -z+.5'
  7	'-x, -y, z'
  8	'x, y, z'
  9	'-x+.5, y+.5, z'
 10	'x+.5, -y+.5, z'
 11	'x+.5, y+.5, -z+.5'
 12	'-x+.5, -y+.5, -z+.5'
 13	'x+.5, -y+.5, -z'
 14	'-x+.5, y+.5, -z'
 15	'-x+.5, -y+.5, z+.5'
 16	'x+.5, y+.5, z+.5'
loop_
_atom_type_symbol
_atom_type_oxidation_number
K1+	1
Mn2+	2
S2-	-2
loop_
_atom_site_label
_atom_site_type_symbol
_atom_site_symmetry_multiplicity
_atom_site_Wyckoff_symbol
_atom_site_fract_x
_atom_site_fract_y
_atom_site_fract_z
_atom_site_occupancy
_atom_site_attached_hydrogens
K1 K1+ 8 j 0.3450(6) 0.1478(3) 0 1. 0 
Mn1 Mn2+ 4 a 0 0 0.25 1. 0 
S1 S2- 8 j 0.1953(6) 0.8965(3) 0 1. 0 

loop_
_atom_site_aniso_label
_atom_site_aniso_type_symbol
_atom_site_aniso_U_11
_atom_site_aniso_U_22
_atom_site_aniso_U_33
_atom_site_aniso_U_12
_atom_site_aniso_U_13
_atom_site_aniso_U_23
K1 K1+ 0.028(2) 0.027(2) 0.023(1) -.003(2) 0 0
Mn1 Mn2+ 0.017(1) 0.020(1) 0.014(1) 0 0 0
S1 S2- 0.024(2) 0.021(2) 0.013(1) 0.009(2) 0 0
#End of data_65453-ICSD


