data_407064-ICSD
#?2014 by Fachinformationszentrum Karlsruhe, and the U.S. Secretary of 
#Commerce on behalf of the United States.  All rights reserved.
_database_code_ICSD                407064
_audit_creation_date               1998/06/26
_audit_update_record               2013/02/01
_chemical_name_systematic
;
Barium Yttrium Zinc Platinum Oxide (17/16/8/4/57)
;
_chemical_formula_structural       'Ba17 Y16 Zn8 Pt4 O57'
_chemical_formula_sum              'Ba17 O57 Pt4 Y16 Zn8'
_publ_section_title
;
Weitere Verbindungen zum Ba17 Ln16 Zn8 Pt4 O57-Typ mit Ln= Dy, Ho, 
Er, Y
;
loop_
_citation_id
_citation_journal_abbrev
_citation_year
_citation_journal_volume
_citation_page_first
_citation_page_last
_citation_journal_id_ASTM
primary 'Zeitschrift fuer Naturforschung, B: Chemical Sciences'
 1997 52 1067 1071 ZNBSEN
_publ_author_name                  'Sfreddo, O.;Mueller Buschbaum, H.'
_cell_length_a                     22.8484(10)
_cell_length_b                     22.8484(10)
_cell_length_c                     5.7086(10)
_cell_angle_alpha                  90.
_cell_angle_beta                   90.
_cell_angle_gamma                  90.
_cell_volume                       2980.17
_cell_formula_units_Z              2
_symmetry_space_group_name_H-M     'I 4/m'
_symmetry_Int_Tables_number        87
_refine_ls_R_factor_all            .1454
loop_
_symmetry_equiv_pos_site_id
_symmetry_equiv_pos_as_xyz
  1	'-y, x, -z'
  2	'y, -x, -z'
  3	'x, y, -z'
  4	'-x, -y, -z'
  5	'y, -x, z'
  6	'-y, x, z'
  7	'-x, -y, z'
  8	'x, y, z'
  9	'-y+.5, x+.5, -z+.5'
 10	'y+.5, -x+.5, -z+.5'
 11	'x+.5, y+.5, -z+.5'
 12	'-x+.5, -y+.5, -z+.5'
 13	'y+.5, -x+.5, z+.5'
 14	'-y+.5, x+.5, z+.5'
 15	'-x+.5, -y+.5, z+.5'
 16	'x+.5, y+.5, z+.5'
loop_
_atom_type_symbol
_atom_type_oxidation_number
Ba2+	2
O2-	-2
Pt4+	4
Y3+	3
Zn2+	2
loop_
_atom_site_label
_atom_site_type_symbol
_atom_site_symmetry_multiplicity
_atom_site_Wyckoff_symbol
_atom_site_fract_x
_atom_site_fract_y
_atom_site_fract_z
_atom_site_occupancy
_atom_site_attached_hydrogens
Pt1 Pt4+ 8 h 0.35594(2) 0.08294(2) 0.5 1. 0 
Y1 Y3+ 8 h 0.40017(5) 0.48779(5) 0 1. 0 
Y2 Y3+ 8 h 0.24959(5) 0.00670(5) 0.5 1. 0 
Y3 Y3+ 8 h 0.44704(5) 0.32764(5) 0.5 1. 0 
Y4 Y3+ 8 h 0.45035(5) 0.17368(5) 0.5 1. 0 
Ba1 Ba2+ 2 a 0 0 0 1. 0 
Ba2 Ba2+ 8 h 0.38786(3) -.22409(3) 0.5 1. 0 
Ba3 Ba2+ 8 h 0.34190(3) 0.34969(3) 0 1. 0 
Ba4 Ba2+ 8 h 0.18948(3) 0.26817(3) 0 1. 0 
Ba5 Ba2+ 8 h 0.44172(3) 0.06721(3) 0 1. 0 
Zn1 Zn2+ 8 h 0.28882(6) -.12105(6) -.5 1. 0 
Zn2 Zn2+ 8 h 0.36624(6) 0.42408(6) 0.5 1. 0 
O1 O2- 2 b 0 0 0.5 1. 0 
O2 O2- 8 h 0.4456(3) 0.0639(3) 0.5 1. 0 
O3 O2- 8 h 0.3404(3) 0.3420(3) 0.5 1. 0 
O4 O2- 8 h 0.2693(3) 0.1096(3) 0.5 1. 0 
O5 O2- 8 h 0.2600(4) -.2011(4) -.5 1. 0 
O6 O2- 16 i 0.3237(2) 0.4714(2) 0.2520(12) 1. 0 
O7 O2- 16 i 0.3760(2) 0.1431(2) 0.7464(11) 1. 0 
O8 O2- 16 i 0.3338(2) 0.0231(2) 0.7394(10) 1. 0 
O9 O2- 16 i 0.2474(2) -.0720(2) -.2491(10) 1. 0 
O10 O2- 16 i 0.4345(2) 0.4102(2) 0.2486(11) 1. 0 

loop_
_atom_site_aniso_label
_atom_site_aniso_type_symbol
_atom_site_aniso_U_11
_atom_site_aniso_U_22
_atom_site_aniso_U_33
_atom_site_aniso_U_12
_atom_site_aniso_U_13
_atom_site_aniso_U_23
Pt1 Pt4+ 0.0043(2) 0.0043(2) 0.0059(2) -.00048(14) 0 0
Y1 Y3+ 0.0036(4) 0.0047(4) 0.0068(5) 0.0006(3) 0 0
Y2 Y3+ 0.0042(4) 0.0058(4) 0.0054(5) 0.0006(3) 0 0
Y3 Y3+ 0.0046(4) 0.0045(4) 0.0061(5) 0.0003(3) 0 0
Y4 Y3+ 0.0041(4) 0.0062(4) 0.0054(5) -.0011(3) 0 0
Ba1 Ba2+ 0.0076(3) 0.0076(3) 0.0063(6) 0 0 0
Ba2 Ba2+ 0.0083(3) 0.0066(3) 0.0079(3) -.0004(2) 0 0
Ba3 Ba2+ 0.0078(3) 0.0091(3) 0.0090(3) -.0025(2) 0 0
Ba4 Ba2+ 0.0058(3) 0.0062(3) 0.0079(3) 0.0003(2) 0 0
Ba5 Ba2+ 0.0089(3) 0.0079(3) 0.0077(3) 0.0019(2) 0 0
Zn1 Zn2+ 0.0067(6) 0.0056(5) 0.0081(7) 0.0006(5) 0 0
Zn2 Zn2+ 0.0075(6) 0.0039(5) 0.0086(6) 0.0009(4) 0 0
O1 O2- 0.002(4) 0.002(4) 0.012(8) 0 0 0
O2 O2- 0.003(3) 0.009(3) 0.015(4) 0.004(3) 0 0
O3 O2- 0.008(3) 0.006(3) 0.011(4) -.006(3) 0 0
O4 O2- 0.002(3) 0.008(4) 0.017(4) 0.000(3) 0 0
O5 O2- 0.007(3) 0.018(4) 0.014(4) 0.004(3) 0 0
O6 O2- 0.006(2) 0.010(2) 0.011(3) -.001(2) 0.003(2) 0.007(2)
O7 O2- 0.012(2) 0.006(2) 0.006(2) -.002(2) 0.006(2) -.005(2)
O8 O2- 0.010(2) 0.011(2) 0.004(3) -.001(2) 0.005(2) 0.002(2)
O9 O2- 0.014(2) 0.004(2) 0.004(2) 0.002(2) -.006(2) 0.001(2)
O10 O2- 0.007(2) 0.012(3) 0.007(3) 0.004(2) 0.003(2) -.001(2)
#End of data_407064-ICSD


