data_187335-ICSD
#?2014 by Fachinformationszentrum Karlsruhe, and the U.S. Secretary of 
#Commerce on behalf of the United States.  All rights reserved.
_database_code_ICSD                187335
_audit_creation_date               2013/08/01
_chemical_name_systematic
;
Tetrabarium Magnesium Hexanitridodisilicate
;
_chemical_formula_structural       'Ba4 Mg (Si2 N6)'
_chemical_formula_sum              'Ba4 Mg1 N6 Si2'
_publ_section_title
;
Ba4 Mg (Si2 N6), Ba3 Ca2 (Si2 N6) and Ba1.6 Sr3.4 (Si2 N6) - 
Quaternary barium alkaline-earth silicon nitrides containing isolated 
nitridosilicate anions of (Si2 N6)10-
;
loop_
_citation_id
_citation_journal_abbrev
_citation_year
_citation_journal_volume
_citation_page_first
_citation_page_last
_citation_journal_id_ASTM
primary 'Journal of Alloys and Compounds' 2013 555 320 324 JALCEU
_publ_author_name                  'Yamane, Hisanori;Morito, Haruhiko'
_cell_length_a                     7.9095(3)
_cell_length_b                     11.2972(5)
_cell_length_c                     20.4009(12)
_cell_angle_alpha                  90.
_cell_angle_beta                   90.
_cell_angle_gamma                  90.
_cell_volume                       1822.93
_cell_formula_units_Z              8
_symmetry_space_group_name_H-M     'F d d d Z'
_symmetry_Int_Tables_number        70
_refine_ls_R_factor_all            .0165
loop_
_symmetry_equiv_pos_site_id
_symmetry_equiv_pos_as_xyz
  1	'x+.75, y+.75, -z'
  2	'x+.75, -y, z+.75'
  3	'-x, y+.75, z+.75'
  4	'-x, -y, -z'
  5	'-x+.25, -y+.25, z'
  6	'-x+.25, y, -z+.25'
  7	'x, -y+.25, -z+.25'
  8	'x, y, z'
  9	'x+.75, y+.25, -z+.5'
 10	'x+.25, y+.75, -z+.5'
 11	'x+.25, y+.25, -z'
 12	'x+.75, -y+.5, z+.25'
 13	'x+.25, -y, z+.25'
 14	'x+.25, -y+.5, z+.75'
 15	'-x, y+.25, z+.25'
 16	'-x+.5, y+.75, z+.25'
 17	'-x+.5, y+.25, z+.75'
 18	'-x, -y+.5, -z+.5'
 19	'-x+.5, -y, -z+.5'
 20	'-x+.5, -y+.5, -z'
 21	'-x+.25, -y+.75, z+.5'
 22	'-x+.75, -y+.25, z+.5'
 23	'-x+.75, -y+.75, z'
 24	'-x+.25, y+.5, -z+.75'
 25	'-x+.75, y, -z+.75'
 26	'-x+.75, y+.5, -z+.25'
 27	'x, -y+.75, -z+.75'
 28	'x+.5, -y+.25, -z+.75'
 29	'x+.5, -y+.75, -z+.25'
 30	'x, y+.5, z+.5'
 31	'x+.5, y, z+.5'
 32	'x+.5, y+.5, z'
loop_
_atom_type_symbol
_atom_type_oxidation_number
Ba2+	2
Mg2+	2
N3-	-3
Si4+	4
loop_
_atom_site_label
_atom_site_type_symbol
_atom_site_symmetry_multiplicity
_atom_site_Wyckoff_symbol
_atom_site_fract_x
_atom_site_fract_y
_atom_site_fract_z
_atom_site_occupancy
_atom_site_attached_hydrogens
_atom_site_U_iso_or_equiv
Ba1 Ba2+ 16 g 0.125 0.125 0.275428(15) 1. 0 0.01013(12) 
Ba2 Ba2+ 16 g 0.125 0.125 0.455923(14) 1. 0 0.00821(12) 
Mg1 Mg2+ 8 b 0.125 0.125 0.625 1. 0 0.0077(4) 
Si1 Si4+ 16 e 0.28311(14) 0.125 0.125 1. 0 0.0060(2) 
N1 N3- 32 h 0.4141(4) 0.1296(2) 0.05656(16) 1. 0 0.0108(5) 
N2 N3- 16 f 0.125 0.0087(3) 0.125 1. 0 0.0100(8) 

loop_
_atom_site_aniso_label
_atom_site_aniso_type_symbol
_atom_site_aniso_U_11
_atom_site_aniso_U_22
_atom_site_aniso_U_33
_atom_site_aniso_U_12
_atom_site_aniso_U_13
_atom_site_aniso_U_23
Ba1 Ba2+ 0.01231(17) 0.00930(16) 0.00878(18) 0. 0. -0.00099(11)
Ba2 Ba2+ 0.01008(17) 0.00746(16) 0.00708(18) 0. 0. -0.00063(11)
Mg1 Mg2+ 0.0066(9) 0.0108(10) 0.0056(11) 0. 0. 0.
Si1 Si4+ 0.0059(5) 0.0062(5) 0.0059(6) 0.0005(5) 0. 0.
N1 N3- 0.0089(11) 0.0163(14) 0.0073(13) 0.0011(11) 0.0014(13) 0.0001(10)
N2 N3- 0.0063(16) 0.0076(17) 0.016(2) 0. 0.0006(18) 0.
#End of data_187335-ICSD


