data_44894-ICSD
#?2014 by Fachinformationszentrum Karlsruhe, and the U.S. Secretary of 
#Commerce on behalf of the United States.  All rights reserved.
_database_code_ICSD                44894
_audit_creation_date               2000/12/16
_audit_update_record               2012/08/01
_chemical_name_systematic          'Potassium Nonafluorodiuranate'
_chemical_formula_structural       'K (U2 F9)'
_chemical_formula_sum              'F9 K1 U2'
_publ_section_title                'The crystal structure of K U2 F9'
loop_
_citation_id
_citation_journal_abbrev
_citation_year
_citation_journal_volume
_citation_page_first
_citation_page_last
_citation_journal_id_ASTM
primary 'American Crystallographic Association: Program Summer'
 1953 1953 34 34 CB124X
_publ_author_name                  'Zachariasen, W.H.;Plettinger, H.A.'
_cell_length_a                     8.728(2)
_cell_length_b                     11.525(2)
_cell_length_c                     7.035(3)
_cell_angle_alpha                  90.
_cell_angle_beta                   90.
_cell_angle_gamma                  90.
_cell_volume                       707.65
_cell_formula_units_Z              4
_symmetry_space_group_name_H-M     'P n m a'
_symmetry_Int_Tables_number        62
loop_
_symmetry_equiv_pos_site_id
_symmetry_equiv_pos_as_xyz
  1	'x+.5, y, -z+.5'
  2	'x, -y+.5, z'
  3	'-x+.5, y+.5, z+.5'
  4	'-x, -y, -z'
  5	'-x+.5, -y, z+.5'
  6	'-x, y+.5, -z'
  7	'x+.5, -y+.5, -z+.5'
  8	'x, y, z'
loop_
_atom_type_symbol
_atom_type_oxidation_number
F1-	-1
K1+	1
U4+	4
loop_
_atom_site_label
_atom_site_type_symbol
_atom_site_symmetry_multiplicity
_atom_site_Wyckoff_symbol
_atom_site_fract_x
_atom_site_fract_y
_atom_site_fract_z
_atom_site_occupancy
_atom_site_attached_hydrogens
K1 K1+ 4 c 0.036 0.25 0.62 1. 0 
U1 U4+ 8 d 0.175 0.05 0.15 1. 0 
F1 F1- 4 c 0.165 0.25 0.15 1. 0 
F2 F1- 8 d 0.99 0.1 0.9 1. 0 
F3 F1- 8 d 0.2 0.08 0.47 1. 0 
F4 F1- 8 d 0.285 0.11 0.85 1. 0 
F5 F1- 8 d 0.425 0.08 0.22 1. 0 

#End of data_44894-ICSD


