data_164259-ICSD
#?2014 by Fachinformationszentrum Karlsruhe, and the U.S. Secretary of 
#Commerce on behalf of the United States.  All rights reserved.
_database_code_ICSD                164259
_audit_creation_date               2010/02/01
_chemical_name_systematic          'Lithium Tantalate'
_chemical_formula_structural       'Li (Ta O3)'
_chemical_formula_sum              'Li1 O3 Ta1'
_publ_section_title
;
Thermal expansion of lithium tantalate and lithium niobate single 
crystals
;
loop_
_citation_id
_citation_journal_abbrev
_citation_year
_citation_journal_volume
_citation_journal_issue
_citation_page_first
_citation_page_last
_citation_journal_id_ASTM
primary 'Journal of Applied Physics' 1969 40 11 4637 4641 JAPIAU
_publ_author_name                  'Kim, Y.S.;Smith, R.T.'
_cell_length_a                     5.1543
_cell_length_b                     5.1543
_cell_length_c                     13.7835
_cell_angle_alpha                  90.
_cell_angle_beta                   90.
_cell_angle_gamma                  120.
_cell_volume                       317.12
_cell_formula_units_Z              6
_symmetry_space_group_name_H-M     'R 3 c H'
_symmetry_Int_Tables_number        161
loop_
_symmetry_equiv_pos_site_id
_symmetry_equiv_pos_as_xyz
  1	'-x+y, y, z+.5'
  2	'x, x-y, z+.5'
  3	'-y, -x, z+.5'
  4	'-x+y, -x, z'
  5	'-y, x-y, z'
  6	'x, y, z'
  7	'-x+y+.6666, y+.3333, z+.8333'
  8	'-x+y+.3333, y+.6666, z+.1666'
  9	'x+.6666, x-y+.3333, z+.8333'
 10	'x+.3333, x-y+.6666, z+.1666'
 11	'-y+.6666, -x+.3333, z+.8333'
 12	'-y+.3333, -x+.6666, z+.1666'
 13	'-x+y+.6666, -x+.3333, z+.3333'
 14	'-x+y+.3333, -x+.6666, z+.6666'
 15	'-y+.6666, x-y+.3333, z+.3333'
 16	'-y+.3333, x-y+.6666, z+.6666'
 17	'x+.6666, y+.3333, z+.3333'
 18	'x+.3333, y+.6666, z+.6666'
loop_
_atom_type_symbol
_atom_type_oxidation_number
Li1+	1
O2-	-2
Ta5+	5
loop_
_atom_site_label
_atom_site_type_symbol
_atom_site_symmetry_multiplicity
_atom_site_Wyckoff_symbol
_atom_site_fract_x
_atom_site_fract_y
_atom_site_fract_z
_atom_site_occupancy
_atom_site_attached_hydrogens
Ta1 Ta5+ 6 a 0 0 0 1. 0 
O1 O2- 18 b 0.0498 0.3436 0.0688 1. 0 
Li1 Li1+ 6 a 0 0 0.2783 1. 0 

#End of data_164259-ICSD


