data_380361-ICSD
#?2014 by Fachinformationszentrum Karlsruhe, and the U.S. Secretary of 
#Commerce on behalf of the United States.  All rights reserved.
_database_code_ICSD                380361
_audit_creation_date               2010/08/01
_chemical_name_systematic          'Dipotassium Uranate'
_chemical_formula_structural       'K2 (U O4)'
_chemical_formula_sum              'K2 O4 U1'
_publ_section_title
;
Crystal growth of K2 U O4 and Na4 U O5 using hydroxide fluxes
;
loop_
_citation_id
_citation_journal_abbrev
_citation_year
_citation_journal_volume
_citation_page_first
_citation_page_last
_citation_journal_id_ASTM
primary 'Journal of Crystal Growth' 2010 312 1240 1243 JCRGAE
_publ_author_name
;
Roof, I.P.;Smith, M.D.;zur Loye, H.C.
;
_cell_length_a                     4.33210(10)
_cell_length_b                     4.33210(10)
_cell_length_c                     13.1382(7)
_cell_angle_alpha                  90.00
_cell_angle_beta                   90.00
_cell_angle_gamma                  90.00
_cell_volume                       246.57
_cell_formula_units_Z              2
_symmetry_space_group_name_H-M     'I 4/m m m'
_symmetry_Int_Tables_number        139
_refine_ls_R_factor_all            .0155
loop_
_symmetry_equiv_pos_site_id
_symmetry_equiv_pos_as_xyz
  1	'y, x, -z'
  2	'-y, -x, -z'
  3	'-y, x, -z'
  4	'y, -x, -z'
  5	'-x, y, -z'
  6	'x, -y, -z'
  7	'x, y, -z'
  8	'-x, -y, -z'
  9	'-y, -x, z'
 10	'y, x, z'
 11	'y, -x, z'
 12	'-y, x, z'
 13	'x, -y, z'
 14	'-x, y, z'
 15	'-x, -y, z'
 16	'x, y, z'
 17	'y+.5, x+.5, -z+.5'
 18	'-y+.5, -x+.5, -z+.5'
 19	'-y+.5, x+.5, -z+.5'
 20	'y+.5, -x+.5, -z+.5'
 21	'-x+.5, y+.5, -z+.5'
 22	'x+.5, -y+.5, -z+.5'
 23	'x+.5, y+.5, -z+.5'
 24	'-x+.5, -y+.5, -z+.5'
 25	'-y+.5, -x+.5, z+.5'
 26	'y+.5, x+.5, z+.5'
 27	'y+.5, -x+.5, z+.5'
 28	'-y+.5, x+.5, z+.5'
 29	'x+.5, -y+.5, z+.5'
 30	'-x+.5, y+.5, z+.5'
 31	'-x+.5, -y+.5, z+.5'
 32	'x+.5, y+.5, z+.5'
loop_
_atom_type_symbol
_atom_type_oxidation_number
K1+	1
O2-	-2
U6+	6
loop_
_atom_site_label
_atom_site_type_symbol
_atom_site_symmetry_multiplicity
_atom_site_Wyckoff_symbol
_atom_site_fract_x
_atom_site_fract_y
_atom_site_fract_z
_atom_site_occupancy
_atom_site_attached_hydrogens
_atom_site_U_iso_or_equiv
U1 U6+ 2 a 0.0000 0.0000 0.0000 1 0 0.00550(10) 
K1 K1+ 4 e 0.5000 0.5000 0.15069(12) 1 0 0.0116(3) 
O1 O2- 4 e 0.0000 0.0000 0.1456(4) 1 0 0.0150(10) 
O2 O2- 4 c 0.5000 0.0000 0.0000 1 0 0.0118(9) 

loop_
_atom_site_aniso_label
_atom_site_aniso_type_symbol
_atom_site_aniso_U_11
_atom_site_aniso_U_22
_atom_site_aniso_U_33
_atom_site_aniso_U_12
_atom_site_aniso_U_13
_atom_site_aniso_U_23
U1 U6+ 0.00486(12) 0.00486(12) 0.00679(14) 0.000 0.000 0.000
K1 K1+ 0.0127(4) 0.0127(4) 0.0092(5) 0.000 0.000 0.000
O1 O2- 0.0174(16) 0.0174(16) 0.010(2) 0.000 0.000 0.000
O2 O2- 0.008(2) 0.012(2) 0.016(2) 0.000 0.000 0.000
#End of data_380361-ICSD


