data_400521-ICSD
#?2014 by Fachinformationszentrum Karlsruhe, and the U.S. Secretary of 
#Commerce on behalf of the United States.  All rights reserved.
_database_code_ICSD                400521
_audit_creation_date               1994/06/30
_audit_update_record               2010/08/01
_chemical_name_systematic          'Sodium Tetraiodoaluminate'
_chemical_formula_structural       'Na (Al I4)'
_chemical_formula_sum              'Al1 I4 Na1'
_publ_section_title
;
Crystal structure of sodium tetraiodoaluminate (III), Na Al I4
;
loop_
_citation_id
_citation_journal_abbrev
_citation_year
_citation_journal_volume
_citation_page_first
_citation_page_last
_citation_journal_id_ASTM
primary 'Zeitschrift fuer Kristallographie (1979-2010)' 1994 209 544 544 ZEKRDZ
_publ_author_name                  'Burnus, R.;Hinz, D.J.;Meyer, G.'
_cell_length_a                     15.051(5)
_cell_length_b                     8.130(2)
_cell_length_c                     8.098(2)
_cell_angle_alpha                  90.
_cell_angle_beta                   90.
_cell_angle_gamma                  90.
_cell_volume                       990.91
_cell_formula_units_Z              4
_symmetry_space_group_name_H-M     'P n m a'
_symmetry_Int_Tables_number        62
_refine_ls_R_factor_all            .044
loop_
_symmetry_equiv_pos_site_id
_symmetry_equiv_pos_as_xyz
  1	'x+.5, y, -z+.5'
  2	'x, -y+.5, z'
  3	'-x+.5, y+.5, z+.5'
  4	'-x, -y, -z'
  5	'-x+.5, -y, z+.5'
  6	'-x, y+.5, -z'
  7	'x+.5, -y+.5, -z+.5'
  8	'x, y, z'
loop_
_atom_type_symbol
_atom_type_oxidation_number
Al3+	3
I1-	-1
Na1+	1
loop_
_atom_site_label
_atom_site_type_symbol
_atom_site_symmetry_multiplicity
_atom_site_Wyckoff_symbol
_atom_site_fract_x
_atom_site_fract_y
_atom_site_fract_z
_atom_site_occupancy
_atom_site_attached_hydrogens
Na1 Na1+ 4 c 0.1495(4) 0.25 0.4445(8) 1. 0 
Al1 Al3+ 4 c 0.8977(2) 0.25 0.2998(5) 1. 0 
I1 I1- 4 c 0.03327(5) 0.25 0.1184(1) 1. 0 
I2 I1- 4 c 0.44455(5) 0.25 0.8996(1) 1. 0 
I3 I1- 8 d 0.19913(4) -.00107(8) 0.76167(8) 1. 0 

loop_
_atom_site_aniso_label
_atom_site_aniso_type_symbol
_atom_site_aniso_U_11
_atom_site_aniso_U_22
_atom_site_aniso_U_33
_atom_site_aniso_U_12
_atom_site_aniso_U_13
_atom_site_aniso_U_23
Na1 Na1+ 0.070(4) 0.185(7) 0.088(4) 0 -.003(3) 0
Al1 Al3+ 0.046(2) 0.054(2) 0.049(2) 0 0.001(2) 0
I1 I1- 0.0613(6) 0.0962(8) 0.0595(7) 0 0.0134(5) 0
I2 I1- 0.0628(5) 0.0862(7) 0.0469(6) 0 0.0057(4) 0
I3 I1- 0.0701(4) 0.0565(4) 0.0727(5) -.0100(3) -.0103(3) -.0050(3)
#End of data_400521-ICSD


