data_150288-ICSD
#?2014 by Fachinformationszentrum Karlsruhe, and the U.S. Secretary of 
#Commerce on behalf of the United States.  All rights reserved.
_database_code_ICSD                150288
_audit_creation_date               2006/04/01
_chemical_name_systematic          'Dicesium Silver Bromide'
_chemical_formula_structural       'Cs2 Ag Br3'
_chemical_formula_sum              'Ag1 Br3 Cs2'
_publ_section_title
;
Crystal structures and ionic conductivities of ternary derivatives of 
the silver and copper monohalides - II: ordered phases within the (Ag 
X)x - (MX)1-x and (CuX)x - (MX)1-x (M = K, Rb and Cs; X = Cl, Br and 
I) systems
;
loop_
_citation_id
_citation_journal_abbrev
_citation_year
_citation_journal_volume
_citation_page_first
_citation_page_last
_citation_journal_id_ASTM
primary 'Journal of Solid State Chemistry' 2004 177 3156 3173 JSSCBI
_publ_author_name                  'Hull, S.;Berastegui, P.'
_cell_length_a                     13.7549(5)
_cell_length_b                     4.7192(2)
_cell_length_c                     14.3623(5)
_cell_angle_alpha                  90.
_cell_angle_beta                   90.
_cell_angle_gamma                  90.
_cell_volume                       932.29
_cell_formula_units_Z              4
_symmetry_space_group_name_H-M     'P n m a'
_symmetry_Int_Tables_number        62
_refine_ls_R_factor_all            .026
loop_
_symmetry_equiv_pos_site_id
_symmetry_equiv_pos_as_xyz
  1	'x+.5, y, -z+.5'
  2	'x, -y+.5, z'
  3	'-x+.5, y+.5, z+.5'
  4	'-x, -y, -z'
  5	'-x+.5, -y, z+.5'
  6	'-x, y+.5, -z'
  7	'x+.5, -y+.5, -z+.5'
  8	'x, y, z'
loop_
_atom_type_symbol
_atom_type_oxidation_number
Ag1+	1
Br1-	-1
Cs1+	1
loop_
_atom_site_label
_atom_site_type_symbol
_atom_site_symmetry_multiplicity
_atom_site_Wyckoff_symbol
_atom_site_fract_x
_atom_site_fract_y
_atom_site_fract_z
_atom_site_occupancy
_atom_site_attached_hydrogens
_atom_site_B_iso_or_equiv
Cs1 Cs1+ 4 c 0.1721(3) 0.250 0.4806(3) 1. 0 3.8(1) 
Cs2 Cs1+ 4 c 0.5125(3) 0.250 0.6738(3) 1. 0 3.5(1) 
Ag1 Ag1+ 4 c 0.2548(3) 0.250 0.1959(3) 1. 0 3.8(2) 
Br1 Br1- 4 c 0.1385(5) 0.250 0.0469(4) 1. 0 2.9(2) 
Br2 Br1- 4 c 0.4420(5) 0.250 0.1392(5) 1. 0 5.2(3) 
Br3 Br1- 4 c 0.2757(4) 0.250 0.7897(4) 1. 0 2.9(2) 

#End of data_150288-ICSD


