data_66201-ICSD
#?2014 by Fachinformationszentrum Karlsruhe, and the U.S. Secretary of 
#Commerce on behalf of the United States.  All rights reserved.
_database_code_ICSD                66201
_audit_creation_date               1992/08/20
_audit_update_record               1999/01/19
_chemical_name_systematic          'Disodium Chromium(II) Chloride'
_chemical_formula_structural       'Na2 Cr Cl4'
_chemical_formula_sum              'Cl4 Cr1 Na2'
_publ_section_title
;
Crystal structure of double chlorides, Na2MCl4 (M=Mg, Cr, Cd): 
correlation with ionic conductivity
;
loop_
_citation_id
_citation_journal_abbrev
_citation_year
_citation_journal_volume
_citation_page_first
_citation_page_last
_citation_journal_id_ASTM
primary 'Solid State Ionics' 1990 39 233 244 SSIOD3
_publ_author_name
;
Kanno, R.;Takeda, Y.;Murata, K.;Yamamoto, O.
;
_cell_length_a                     3.9407(1)
_cell_length_b                     11.5905(4)
_cell_length_c                     6.9618(3)
_cell_angle_alpha                  90.
_cell_angle_beta                   92.465(2)
_cell_angle_gamma                  90.
_cell_volume                       317.68
_cell_formula_units_Z              2
_symmetry_space_group_name_H-M     'P 1 21/c 1'
_symmetry_Int_Tables_number        14
_refine_ls_R_factor_all            .034
loop_
_symmetry_equiv_pos_site_id
_symmetry_equiv_pos_as_xyz
  1	'x, -y+.5, z+.5'
  2	'-x, -y, -z'
  3	'-x, y+.5, -z+.5'
  4	'x, y, z'
loop_
_atom_type_symbol
_atom_type_oxidation_number
Cl1-	-1
Cr2+	2
Na1+	1
loop_
_atom_site_label
_atom_site_type_symbol
_atom_site_symmetry_multiplicity
_atom_site_Wyckoff_symbol
_atom_site_fract_x
_atom_site_fract_y
_atom_site_fract_z
_atom_site_occupancy
_atom_site_attached_hydrogens
_atom_site_B_iso_or_equiv
Cr1 Cr2+ 2 a 0 0 0 1. 0 1.3(3) 
Na1 Na1+ 4 e 0.5153(43) 0.1790(14) 0.4035(20) 1. 0 1.5(4) 
Cl1 Cl1- 4 e 0.0064(25) 0.1963(8) 0.1210(14) 1. 0 0.7(2) 
Cl2 Cl1- 4 e 0.4433(21) -.0472(8) 0.2479(11) 1. 0 0.7(2) 

#End of data_66201-ICSD


