data_260725-ICSD
#?2014 by Fachinformationszentrum Karlsruhe, and the U.S. Secretary of 
#Commerce on behalf of the United States.  All rights reserved.
_database_code_ICSD                260725
_audit_creation_date               2010/08/01
_chemical_name_systematic
;
Pentaammonium Heptasodium Bis(pentakis(mue2-oxido)decaoxidobis(mue5- 
Phosphato)pentamolybdenum(VI)) Henicosahydrate
;
_chemical_formula_structural       '(N H4)5 Na7 (Mo5 P2 O23)2 (H2 O)21'
_chemical_formula_sum              'H62 Mo10 N5 Na7 O67 P4'
_publ_section_title
;
Pentaammonium heptasodium bis[pentakis(mu2-oxido)decaoxidobis(mu5- 
phosphato)pentamolybdenum(VI)] henicosahydrate
;
loop_
_citation_id
_citation_journal_abbrev
_citation_year
_citation_journal_volume
_citation_journal_issue
_citation_page_first
_citation_page_last
_citation_journal_id_ASTM
primary 'Acta Crystallographica, Section E. Structure Reports Online'
 2010 66 3 i20 i21 ACSEBH
_publ_author_name
;
Bih, H.;Bih, L.;Manoun, B.;Azrour, M.;Lazor, P.;El Ammari, L.
;
_cell_length_a                     9.2299(3)
_cell_length_b                     18.3516(6)
_cell_length_c                     19.7918(6)
_cell_angle_alpha                  73.8600(10)
_cell_angle_beta                   85.323(3)
_cell_angle_gamma                  75.772(2)
_cell_volume                       3121.17
_cell_formula_units_Z              2
_symmetry_space_group_name_H-M     'P -1'
_symmetry_Int_Tables_number        2
_refine_ls_R_factor_all            .0222
loop_
_symmetry_equiv_pos_site_id
_symmetry_equiv_pos_as_xyz
  1	'-x, -y, -z'
  2	'x, y, z'
loop_
_atom_type_symbol
_atom_type_oxidation_number
H1+	1
Mo6+	6
N3-	-3
Na1+	1
O2-	-2
P5+	5
loop_
_atom_site_label
_atom_site_type_symbol
_atom_site_symmetry_multiplicity
_atom_site_Wyckoff_symbol
_atom_site_fract_x
_atom_site_fract_y
_atom_site_fract_z
_atom_site_occupancy
_atom_site_attached_hydrogens
_atom_site_U_iso_or_equiv
Mo1 Mo6+ 2 i 0.492310(12) 0.902494(7) 0.343660(6) 1 0 0.01467(2) 
Mo2 Mo6+ 2 i 0.735113(12) 0.814966(7) 0.215956(6) 1 0 0.01368(2) 
Mo3 Mo6+ 2 i 0.873090(13) 0.628793(7) 0.303128(6) 1 0 0.01678(2) 
Mo4 Mo6+ 2 i 0.678462(13) 0.587156(7) 0.453493(6) 1 0 0.01620(2) 
Mo5 Mo6+ 2 i 0.433389(12) 0.748439(7) 0.472935(6) 1 0 0.01530(2) 
P1 P5+ 2 i 0.48960(4) 0.71885(2) 0.308740(17) 1 0 0.01286(5) 
P2 P5+ 2 i 0.79211(3) 0.75969(2) 0.402960(17) 1 0 0.01274(5) 
O1 O2- 2 i 0.34812(11) 0.69257(7) 0.30366(6) 1 0 0.02106(19) 
O2 O2- 2 i 0.53301(11) 0.76604(6) 0.23641(5) 1 0 0.01649(17) 
O3 O2- 2 i 0.46154(11) 0.77456(6) 0.35793(5) 1 0 0.01569(16) 
O4 O2- 2 i 0.62074(11) 0.64826(6) 0.33780(5) 1 0 0.01611(16) 
O5 O2- 2 i 0.94463(11) 0.74016(7) 0.43521(6) 1 0 0.0215(2) 
O6 O2- 2 i 0.71593(11) 0.84625(6) 0.39166(5) 1 0 0.01732(17) 
O7 O2- 2 i 0.68843(11) 0.71080(6) 0.45080(5) 1 0 0.01592(16) 
O8 O2- 2 i 0.80787(11) 0.74280(6) 0.32905(5) 1 0 0.01586(16) 
O9 O2- 2 i 0.31315(12) 0.93039(7) 0.31154(6) 1 0 0.0243(2) 
O10 O2- 2 i 0.67181(12) 0.85621(7) 0.13130(5) 1 0 0.02108(19) 
O11 O2- 2 i 0.84747(16) 0.55099(7) 0.27801(7) 1 0 0.0302(3) 
O12 O2- 2 i 0.64223(15) 0.50469(7) 0.44157(7) 1 0 0.0278(2) 
O13 O2- 2 i 0.24416(13) 0.75961(8) 0.47347(7) 1 0 0.0309(3) 
O14 O2- 2 i 0.52178(14) 0.98849(7) 0.35016(7) 1 0 0.0258(2) 
O15 O2- 2 i 0.89771(12) 0.84629(7) 0.21162(6) 1 0 0.02135(19) 
O16 O2- 2 i 1.06197(13) 0.62069(9) 0.29542(7) 1 0 0.0341(3) 
O17 O2- 2 i 0.74864(14) 0.55493(7) 0.53758(6) 1 0 0.0265(2) 
O18 O2- 2 i 0.47398(15) 0.73386(8) 0.55946(6) 1 0 0.0274(2) 
O19 O2- 2 i 0.60715(11) 0.88732(6) 0.26208(5) 1 0 0.01796(17) 
O20 O2- 2 i 0.81587(12) 0.70838(6) 0.21550(5) 1 0 0.01797(17) 
O21 O2- 2 i 0.86607(11) 0.58826(6) 0.40407(5) 1 0 0.01919(18) 
O22 O2- 2 i 0.47846(11) 0.64131(6) 0.46786(6) 1 0 0.01934(18) 
O23 O2- 2 i 0.44199(12) 0.85665(6) 0.44104(5) 1 0 0.01914(18) 
Mo6 Mo6+ 2 i 0.215242(12) 0.815178(6) 0.718288(5) 1 0 0.01292(2) 
Mo7 Mo6+ 2 i -0.025676(12 0.907008(6) 0.843473(6) 1 0 0.01376(2) 
Mo8 Mo6+ 2 i -0.081624(12 0.756868(7) 0.978050(6) 1 0 0.01538(2) 
Mo9 Mo6+ 2 i 0.167731(12) 0.593177(7) 0.963923(6) 1 0 0.01502(2) 
Mo10 Mo6+ 2 i 0.362696(11) 0.634503(7) 0.813014(6) 1 0 0.01370(2) 
P3 P5+ 2 i 0.27703(3) 0.76807(2) 0.906219(17) 1 0 0.01229(5) 
P4 P5+ 2 i -0.02535(3) 0.719500(19) 0.817922(17) 1 0 0.01141(5) 
O24 O2- 2 i 0.42849(11) 0.75117(7) 0.93786(6) 1 0 0.02107(19) 
O25 O2- 2 i 0.19706(11) 0.85435(6) 0.89184(5) 1 0 0.01634(16) 
O26 O2- 2 i 0.28897(11) 0.74801(6) 0.83384(5) 1 0 0.01464(16) 
O27 O2- 2 i 0.17722(11) 0.71920(6) 0.95805(5) 1 0 0.01549(16) 
O28 O2- 2 i -0.16688(11) 0.69176(6) 0.81884(5) 1 0 0.01820(18) 
O29 O2- 2 i 0.01321(10) 0.76426(6) 0.74363(5) 1 0 0.01486(16) 
O30 O2- 2 i 0.10810(10) 0.64902(6) 0.84613(5) 1 0 0.01464(15) 
O31 O2- 2 i -0.04676(10) 0.77750(6) 0.86459(5) 1 0 0.01455(15) 
O32 O2- 2 i 0.37818(12) 0.84669(7) 0.71131(6) 1 0 0.02057(19) 
O33 O2- 2 i 0.00007(13) 0.99519(6) 0.84546(6) 1 0 0.0247(2) 
O34 O2- 2 i -0.03688(16) 0.74633(8) 1.06283(6) 1 0 0.0306(3) 
O35 O2- 2 i 0.23471(14) 0.56392(8) 1.04855(6) 1 0 0.0270(2) 
O36 O2- 2 i 0.54923(12) 0.63231(7) 0.80612(6) 1 0 0.0250(2) 
O37 O2- 2 i 0.15290(12) 0.85003(7) 0.63305(5) 1 0 0.02072(19) 
O38 O2- 2 i -0.20435(12) 0.93135(7) 0.81118(6) 1 0 0.0230(2) 
O39 O2- 2 i -0.27055(13) 0.76566(8) 0.98036(7) 1 0 0.0306(3) 
O40 O2- 2 i 0.13950(14) 0.50961(7) 0.95064(6) 1 0 0.0253(2) 
O41 O2- 2 i 0.34637(12) 0.55192(6) 0.79159(6) 1 0 0.0218(2) 
O42 O2- 2 i 0.08888(11) 0.88917(6) 0.76195(5) 1 0 0.01694(17) 
O43 O2- 2 i -0.07788(12) 0.86570(6) 0.94177(5) 1 0 0.01857(18) 
O44 O2- 2 i -0.03213(11) 0.64729(6) 0.97706(5) 1 0 0.01781(17) 
O45 O2- 2 i 0.35501(11) 0.59687(6) 0.91380(5) 1 0 0.01754(17) 
O46 O2- 2 i 0.29709(11) 0.70706(6) 0.72405(5) 1 0 0.01634(16) 
Na1 Na1+ 2 i 0.09393(8) 0.88130(4) 0.12276(4) 1 0 0.02741(13) 
Na2 Na1+ 2 i 0.44879(8) 0.90873(5) 0.05715(4) 1 0 0.03205(15) 
Na3 Na1+ 2 i 0.32566(11) 0.69247(6) 0.06676(5) 1 0 0.0475(2) 
Na4 Na1+ 2 i 0.06704(8) 1.08630(5) 0.44343(4) 1 0 0.03092(15) 
Na5 Na1+ 2 i 0.42461(8) 0.11186(4) 0.37681(4) 1 0 0.02557(13) 
Na6 Na1+ 2 i 0.89731(8) 0.47633(4) 0.19135(4) 1 0 0.02833(14) 
Na7 Na1+ 2 i 0.23473(7) 0.36371(4) 0.26312(4) 1 0 0.02572(13) 
O47 O2- 2 i 0.13802(15) 0.50097(8) 0.18793(7) 1 0 0.0349(3) 
H1 H1+ 2 i 0.1883 0.5175 0.1507 1 0 0.042 
H2 H1+ 2 i 0.1380 0.5319 0.2135 1 0 0.042 
O48 O2- 2 i 0.80373(18) 0.61051(8) 0.12368(7) 1 0 0.0367(3) 
H3 H1+ 2 i 0.8552 0.6219 0.0856 1 0 0.044 
H4 H1+ 2 i 0.8029 0.6464 0.1440 1 0 0.044 
O49 O2- 2 i 0.62913(13) 0.07746(7) 0.45018(6) 1 0 0.0247(2) 
H5 H1+ 2 i 0.6022 0.1008 0.4829 1 0 0.030 
H6 H1+ 2 i 0.7062 0.0937 0.4306 1 0 0.030 
O50 O2- 2 i 0.07634(18) 0.95082(9) 0.44777(8) 1 0 0.0388(3) 
H7 H1+ 2 i 0.0226 0.9483 0.4154 1 0 0.047 
H8 H1+ 2 i 0.1613 0.9197 0.4441 1 0 0.047 
O51 O2- 2 i 0.30931(14) 0.89540(8) 0.17057(7) 1 0 0.0305(3) 
H9 H1+ 2 i 0.2935 0.9324 0.1910 1 0 0.037 
H10 H1+ 2 i 0.3727 0.8577 0.1967 1 0 0.037 
O52 O2- 2 i 0.88411(14) 0.93215(7) 0.04955(6) 1 0 0.0255(2) 
H11 H1+ 2 i 0.8036 0.9204 0.0696 1 0 0.031 
H12 H1+ 2 i 0.9007 0.9106 0.0154 1 0 0.031 
O53 O2- 2 i 0.29608(14) 1.08048(8) 0.49264(6) 1 0 0.0285(2) 
H13 H1+ 2 i 0.3299 1.0322 0.5140 1 0 0.034 
H14 H1+ 2 i 0.2947 1.1052 0.5238 1 0 0.034 
O54 O2- 2 i 0.77938(14) 1.08752(8) -0.00967(6) 1 0 0.0284(2) 
H15 H1+ 2 i 0.8193 1.0390 0.0084 1 0 0.034 
H16 H1+ 2 i 0.7783 1.1094 0.0237 1 0 0.034 
O55 O2- 2 i 0.02918(15) 1.22207(8) 0.44210(7) 1 0 0.0340(3) 
H17 H1+ 2 i 0.0378 1.2286 0.4828 1 0 0.041 
H18 H1+ 2 i -0.0655 1.2310 0.4362 1 0 0.041 
O56 O2- 2 i 0.89823(18) 0.95851(9) 0.34047(9) 1 0 0.0431(3) 
H19 H1+ 2 i 0.8709 1.0015 0.3083 1 0 0.052 
H20 H1+ 2 i 0.8217 0.9383 0.3480 1 0 0.052 
O57 O2- 2 i 0.97177(19) 0.40736(11) 0.43052(9) 1 0 0.0483(4) 
H21 H1+ 2 i 1.0492 0.3742 0.4508 1 0 0.058 
H22 H1+ 2 i 0.9798 0.4515 0.4348 1 0 0.058 
O58 O2- 2 i 0.29779(15) 0.24836(8) 0.36313(7) 1 0 0.0340(3) 
H23 H1+ 2 i 0.2204 0.2434 0.3897 1 0 0.041 
H24 H1+ 2 i 0.3532 0.2646 0.3859 1 0 0.041 
O59 O2- 2 i 0.60970(18) 0.03813(9) 0.15981(9) 1 0 0.0421(3) 
H25 H1+ 2 i 0.6343 -0.0059 0.1909 1 0 0.051 
H26 H1+ 2 i 0.6907 0.0544 0.1504 1 0 0.051 
O60 O2- 2 i 0.97224(15) 0.37508(8) 0.30176(7) 1 0 0.0306(3) 
H27 H1+ 2 i 0.9733 0.3798 0.3437 1 0 0.037 
H28 H1+ 2 i 0.9575 0.3293 0.3072 1 0 0.037 
O61 O2- 2 i 0.20367(14) 1.10295(8) 0.32985(7) 1 0 0.0295(2) 
H29 H1+ 2 i 0.1455 1.1423 0.3027 1 0 0.035 
H30 H1+ 2 i 0.2219 1.0672 0.3079 1 0 0.035 
O62 O2- 2 i 0.57481(17) 0.95301(9) -0.05286(8) 1 0 0.0368(3) 
H31 H1+ 2 i 0.5189 0.9503 -0.0844 1 0 0.044 
H32 H1+ 2 i 0.6604 0.9235 -0.0586 1 0 0.044 
O63 O2- 2 i 0.49009(18) 0.76434(10) 0.08862(9) 1 0 0.0459(4) 
H33 H1+ 2 i 0.4343 0.7740 0.0530 1 0 0.055 
H34 H1+ 2 i 0.5799 0.7584 0.0719 1 0 0.055 
O64 O2- 2 i 0.18027(19) 0.73673(10) 0.16301(10) 1 0 0.0514(4) 
H35 H1+ 2 i 0.2314 0.7056 0.1984 1 0 0.062 
H36 H1+ 2 i 0.1004 0.7201 0.1644 1 0 0.062 
O65 O2- 2 i 0.5309(2) 0.58788(10) 0.08724(11) 1 0 0.0571(5) 
H37 H1+ 2 i 0.4706 0.5935 0.1219 1 0 0.069 
H38 H1+ 2 i 0.6172 0.5864 0.1018 1 0 0.069 
O66 O2- 2 i 0.3219(2) 0.43251(11) 0.32741(9) 1 0 0.0601(5) 
H39 H1+ 2 i 0.3317 0.4783 0.3045 1 0 0.072 
H40 H1+ 2 i 0.2804 0.4380 0.3668 1 0 0.072 
O67 O2- 2 i 0.3970(3) 0.56485(13) 0.24794(15) 1 0 0.0976(10) 
H41 H1+ 2 i 0.3734 0.6074 0.2608 1 0 0.117 
H42 H1+ 2 i 0.4884 0.5445 0.2604 1 0 0.117 
N1 N3- 2 i 0.6411(2) 0.40411(12) 0.36141(10) 1 0 0.0471(5) 
H43 H1+ 2 i 0.6534 0.4101 0.4023 1 0 0.057 
H44 H1+ 2 i 0.5495 0.4016 0.3579 1 0 0.057 
H45 H1+ 2 i 0.6600 0.4434 0.3288 1 0 0.057 
H46 H1+ 2 i 0.7013 0.3614 0.3566 1 0 0.057 
N2 N3- 2 i 0.11305(15) 0.81900(9) 0.32080(8) 1 0 0.0282(3) 
H47 H1+ 2 i 0.0788 0.8036 0.3631 1 0 0.034 
H48 H1+ 2 i 0.1515 0.8585 0.3177 1 0 0.034 
H49 H1+ 2 i 0.1812 0.7812 0.3112 1 0 0.034 
H50 H1+ 2 i 0.0408 0.8327 0.2912 1 0 0.034 
N3 N3- 2 i 0.40355(15) 0.17946(9) 0.17830(8) 1 0 0.0272(3) 
H51 H1+ 2 i 0.3325 0.2178 0.1847 1 0 0.033 
H52 H1+ 2 i 0.4735 0.1694 0.2085 1 0 0.033 
H53 H1+ 2 i 0.4400 0.1921 0.1360 1 0 0.033 
H54 H1+ 2 i 0.3682 0.1385 0.1839 1 0 0.033 
N4 N3- 2 i 0.20062(16) 0.61691(8) 0.42575(8) 1 0 0.0266(3) 
H55 H1+ 2 i 0.2412 0.6370 0.3861 1 0 0.032 
H56 H1+ 2 i 0.1203 0.6498 0.4335 1 0 0.032 
H57 H1+ 2 i 0.2631 0.6064 0.4595 1 0 0.032 
H58 H1+ 2 i 0.1779 0.5744 0.4240 1 0 0.032 
N5 N3- 2 i 0.32188(16) 0.37776(8) 0.06106(7) 1 0 0.0258(3) 
H59 H1+ 2 i 0.3937 0.3413 0.0517 1 0 0.031 
H60 H1+ 2 i 0.2747 0.3584 0.0989 1 0 0.031 
H61 H1+ 2 i 0.3587 0.4145 0.0674 1 0 0.031 
H62 H1+ 2 i 0.2603 0.3968 0.0263 1 0 0.031 

loop_
_atom_site_aniso_label
_atom_site_aniso_type_symbol
_atom_site_aniso_U_11
_atom_site_aniso_U_22
_atom_site_aniso_U_33
_atom_site_aniso_U_12
_atom_site_aniso_U_13
_atom_site_aniso_U_23
Mo1 Mo6+ 0.01617(4) 0.01225(5) 0.01538(5) -0.00185(3) 0.00054(3) 
-0.00482(4)
Mo2 Mo6+ 0.01413(4) 0.01481(5) 0.01165(4) -0.00409(3) 0.00129(3) 
-0.00259(3)
Mo3 Mo6+ 0.01754(5) 0.01578(5) 0.01542(5) -0.00018(4) 0.00213(3) 
-0.00550(4)
Mo4 Mo6+ 0.02082(5) 0.01240(5) 0.01418(5) -0.00345(4) 0.00126(4) 
-0.00243(4)
Mo5 Mo6+ 0.01518(4) 0.01755(5) 0.01396(4) -0.00465(4) 0.00283(3) 
-0.00563(4)
P1 P5+ 0.01306(12) 0.01411(14) 0.01280(13) -0.00474(10) 0.00051(10) 
-0.00464(11)
P2 P5+ 0.01218(12) 0.01468(14) 0.01270(13) -0.00422(10) 0.00020(9) 
-0.00498(11)
O1 O2- 0.0167(4) 0.0261(5) 0.0247(5) -0.0107(4) 0.0004(3) -0.0089(4)
O2 O2- 0.0171(4) 0.0202(5) 0.0126(4) -0.0065(3) -0.0001(3) -0.0033(3)
O3 O2- 0.0193(4) 0.0145(4) 0.0138(4) -0.0031(3) 0.0007(3) -0.0056(3)
O4 O2- 0.0179(4) 0.0138(4) 0.0162(4) -0.0022(3) -0.0004(3) -0.0044(3)
O5 O2- 0.0142(4) 0.0290(6) 0.0231(5) -0.0043(4) -0.0033(3) -0.0095(4)
O6 O2- 0.0192(4) 0.0148(4) 0.0200(4) -0.0051(3) -0.0006(3) -0.0069(4)
O7 O2- 0.0166(4) 0.0164(4) 0.0155(4) -0.0057(3) 0.0021(3) -0.0044(3)
O8 O2- 0.0194(4) 0.0160(4) 0.0125(4) -0.0046(3) 0.0015(3) -0.0043(3)
O9 O2- 0.0199(5) 0.0229(5) 0.0268(5) -0.0003(4) -0.0035(4) -0.0046(4)
O10 O2- 0.0214(4) 0.0247(5) 0.0150(4) -0.0054(4) -0.0010(3) -0.0018(4)
O11 O2- 0.0471(7) 0.0181(5) 0.0256(6) -0.0024(5) 0.0010(5) -0.0110(4)
O12 O2- 0.0383(6) 0.0181(5) 0.0293(6) -0.0105(5) 0.0022(5) -0.0070(4)
O13 O2- 0.0174(5) 0.0394(7) 0.0396(7) -0.0084(5) 0.0059(4) -0.0166(6)
O14 O2- 0.0314(6) 0.0168(5) 0.0315(6) -0.0056(4) -0.0001(4) -0.0104(4)
O15 O2- 0.0196(4) 0.0250(5) 0.0198(5) -0.0102(4) 0.0009(3) -0.0025(4)
O16 O2- 0.0188(5) 0.0474(8) 0.0289(6) -0.0007(5) 0.0024(4) -0.0053(6)
O17 O2- 0.0339(6) 0.0248(6) 0.0170(5) -0.0046(5) -0.0014(4) -0.0011(4)
O18 O2- 0.0361(6) 0.0311(6) 0.0155(5) -0.0091(5) 0.0012(4) -0.0064(4)
O19 O2- 0.0217(4) 0.0148(4) 0.0157(4) -0.0028(3) 0.0030(3) -0.0037(3)
O20 O2- 0.0232(4) 0.0171(4) 0.0133(4) -0.0023(3) 0.0016(3) -0.0062(3)
O21 O2- 0.0185(4) 0.0187(5) 0.0167(4) 0.0002(3) 0.0003(3) -0.0028(4)
O22 O2- 0.0199(4) 0.0170(4) 0.0222(5) -0.0076(3) 0.0038(3) -0.0051(4)
O23 O2- 0.0268(5) 0.0158(4) 0.0156(4) -0.0046(4) 0.0033(3) -0.0067(3)
Mo6 Mo6+ 0.01374(4) 0.01404(5) 0.01068(4) -0.00449(3) 0.00104(3) 
-0.00208(3)
Mo7 Mo6+ 0.01503(4) 0.01176(4) 0.01424(4) -0.00222(3) 0.00020(3) 
-0.00397(4)
Mo8 Mo6+ 0.01626(4) 0.01601(5) 0.01367(4) -0.00422(4) 0.00364(3) 
-0.00431(4)
Mo9 Mo6+ 0.01617(4) 0.01305(5) 0.01367(4) -0.00304(3) 0.00121(3) 
-0.00079(4)
Mo10 Mo6+ 0.01213(4) 0.01431(5) 0.01421(4) -0.00206(3) 0.00130(3) 
-0.00441(4)
P3 P5+ 0.01225(12) 0.01427(14) 0.01123(12) -0.00434(10) -0.00025(9) 
-0.00368(10)
P4 P5+ 0.01083(11) 0.01214(13) 0.01187(12) -0.00324(9) -0.00013(9) 
-0.00371(10)
O24 O2- 0.0157(4) 0.0263(5) 0.0218(5) -0.0053(4) -0.0049(3) -0.0058(4)
O25 O2- 0.0184(4) 0.0146(4) 0.0176(4) -0.0045(3) -0.0015(3) -0.0058(3)
O26 O2- 0.0181(4) 0.0143(4) 0.0118(4) -0.0043(3) 0.0009(3) -0.0037(3)
O27 O2- 0.0166(4) 0.0171(4) 0.0128(4) -0.0063(3) 0.0018(3) -0.0025(3)
O28 O2- 0.0145(4) 0.0231(5) 0.0200(4) -0.0089(3) 0.0009(3) -0.0069(4)
O29 O2- 0.0154(4) 0.0169(4) 0.0120(4) -0.0049(3) -0.0003(3) -0.0025(3)
O30 O2- 0.0144(4) 0.0127(4) 0.0153(4) -0.0011(3) -0.0011(3) -0.0027(3)
O31 O2- 0.0174(4) 0.0133(4) 0.0135(4) -0.0031(3) 0.0007(3) -0.0051(3)
O32 O2- 0.0189(4) 0.0243(5) 0.0195(4) -0.0103(4) 0.0012(3) -0.0032(4)
O33 O2- 0.0299(5) 0.0158(5) 0.0304(6) -0.0066(4) -0.0001(4) -0.0085(4)
O34 O2- 0.0443(7) 0.0324(7) 0.0157(5) -0.0103(5) 0.0027(5) -0.0068(5)
O35 O2- 0.0278(5) 0.0321(6) 0.0162(5) -0.0062(5) -0.0015(4) 0.0013(4)
O36 O2- 0.0148(4) 0.0357(6) 0.0240(5) -0.0054(4) 0.0019(4) -0.0083(5)
O37 O2- 0.0220(4) 0.0257(5) 0.0133(4) -0.0069(4) -0.0010(3) -0.0019(4)
O38 O2- 0.0175(4) 0.0224(5) 0.0260(5) -0.0014(4) -0.0036(4) -0.0036(4)
O39 O2- 0.0188(5) 0.0315(6) 0.0421(7) -0.0072(4) 0.0080(4) -0.0120(5)
O40 O2- 0.0292(5) 0.0160(5) 0.0300(6) -0.0068(4) 0.0020(4) -0.0043(4)
O41 O2- 0.0248(5) 0.0169(5) 0.0245(5) -0.0038(4) 0.0014(4) -0.0082(4)
O42 O2- 0.0202(4) 0.0146(4) 0.0146(4) -0.0028(3) 0.0022(3) -0.0035(3)
O43 O2- 0.0258(5) 0.0164(4) 0.0146(4) -0.0052(4) 0.0037(3) -0.0069(3)
O44 O2- 0.0171(4) 0.0158(4) 0.0201(4) -0.0059(3) 0.0033(3) -0.0034(4)
O45 O2- 0.0146(4) 0.0198(5) 0.0145(4) -0.0013(3) -0.0003(3) -0.0009(3)
O46 O2- 0.0193(4) 0.0162(4) 0.0131(4) -0.0026(3) 0.0011(3) -0.0050(3)
Na1 Na1+ 0.0274(3) 0.0300(4) 0.0237(3) -0.0067(3) -0.0013(2) -0.0051(3)
Na2 Na1+ 0.0297(3) 0.0363(4) 0.0286(4) -0.0107(3) -0.0032(3) -0.0027(3)
Na3 Na1+ 0.0512(5) 0.0525(6) 0.0403(5) -0.0036(4) -0.0161(4) -0.0176(4)
Na4 Na1+ 0.0302(3) 0.0353(4) 0.0289(3) -0.0120(3) -0.0027(3) -0.0066(3)
Na5 Na1+ 0.0250(3) 0.0253(3) 0.0259(3) -0.0044(2) -0.0026(2) -0.0068(3)
Na6 Na1+ 0.0271(3) 0.0251(3) 0.0338(4) -0.0079(3) -0.0004(3) -0.0079(3)
Na7 Na1+ 0.0231(3) 0.0333(4) 0.0241(3) -0.0099(3) 0.0031(2) -0.0111(3)
O47 O2- 0.0167(4) 0.0261(5) 0.0247(5) -0.0107(4) 0.0004(3) -0.0089(4)
O48 O2- 0.0171(4) 0.0202(5) 0.0126(4) -0.0065(3) -0.0001(3) -0.0033(3)
O49 O2- 0.0193(4) 0.0145(4) 0.0138(4) -0.0031(3) 0.0007(3) -0.0056(3)
O50 O2- 0.0179(4) 0.0138(4) 0.0162(4) -0.0022(3) -0.0004(3) -0.0044(3)
O51 O2- 0.0142(4) 0.0290(6) 0.0231(5) -0.0043(4) -0.0033(3) -0.0095(4)
O52 O2- 0.0192(4) 0.0148(4) 0.0200(4) -0.0051(3) -0.0006(3) -0.0069(4)
O53 O2- 0.0166(4) 0.0164(4) 0.0155(4) -0.0057(3) 0.0021(3) -0.0044(3)
O54 O2- 0.0194(4) 0.0160(4) 0.0125(4) -0.0046(3) 0.0015(3) -0.0043(3)
O55 O2- 0.0199(5) 0.0229(5) 0.0268(5) -0.0003(4) -0.0035(4) -0.0046(4)
O56 O2- 0.0214(4) 0.0247(5) 0.0150(4) -0.0054(4) -0.0010(3) -0.0018(4)
O57 O2- 0.0471(7) 0.0181(5) 0.0256(6) -0.0024(5) 0.0010(5) -0.0110(4)
O58 O2- 0.0383(6) 0.0181(5) 0.0293(6) -0.0105(5) 0.0022(5) -0.0070(4)
O59 O2- 0.0174(5) 0.0394(7) 0.0396(7) -0.0084(5) 0.0059(4) -0.0166(6)
O60 O2- 0.0314(6) 0.0168(5) 0.0315(6) -0.0056(4) -0.0001(4) -0.0104(4)
O61 O2- 0.0196(4) 0.0250(5) 0.0198(5) -0.0102(4) 0.0009(3) -0.0025(4)
O62 O2- 0.0188(5) 0.0474(8) 0.0289(6) -0.0007(5) 0.0024(4) -0.0053(6)
O63 O2- 0.0339(6) 0.0248(6) 0.0170(5) -0.0046(5) -0.0014(4) -0.0011(4)
O64 O2- 0.0361(6) 0.0311(6) 0.0155(5) -0.0091(5) 0.0012(4) -0.0064(4)
O65 O2- 0.0217(4) 0.0148(4) 0.0157(4) -0.0028(3) 0.0030(3) -0.0037(3)
O66 O2- 0.0232(4) 0.0171(4) 0.0133(4) -0.0023(3) 0.0016(3) -0.0062(3)
O67 O2- 0.0185(4) 0.0187(5) 0.0167(4) 0.0002(3) 0.0003(3) -0.0028(4)
N1 N3- 0.0635(13) 0.0582(12) 0.0340(9) -0.0283(10) 0.0111(8) -0.0266(9)
N2 N3- 0.0218(6) 0.0331(8) 0.0285(7) -0.0064(5) -0.0009(5) -0.0059(6)
N3 N3- 0.0203(5) 0.0284(7) 0.0305(7) -0.0042(5) -0.0006(5) -0.0052(6)
N4 N3- 0.0305(6) 0.0221(6) 0.0258(6) -0.0087(5) -0.0044(5) -0.0006(5)
N5 N3- 0.0278(6) 0.0243(6) 0.0231(6) -0.0074(5) -0.0035(5) -0.0005(5)
#End of data_260725-ICSD


