data_40754-ICSD
#?2014 by Fachinformationszentrum Karlsruhe, and the U.S. Secretary of 
#Commerce on behalf of the United States.  All rights reserved.
_database_code_ICSD                40754
_audit_creation_date               2000/07/15
_chemical_name_systematic          'Dirubidium Trizinc Tetraoxide'
_chemical_formula_structural       'Rb2 Zn3 O4'
_chemical_formula_sum              'O4 Rb2 Zn3'
_publ_section_title
;
K2 Zn3 O4 und Rb2 Zn3 O4, zwei neue Oxozincate mit Gerueststruktur
;
loop_
_citation_id
_citation_journal_abbrev
_citation_year
_citation_journal_volume
_citation_page_first
_citation_page_last
_citation_journal_id_ASTM
primary 'Zeitschrift fuer Anorganische und Allgemeine Chemie (1950) (DE)'
 1987 551 163 172 ZAACAB
_publ_author_name                  'Baier, R.;Hoppe, R.'
_cell_length_a                     15.235(4)
_cell_length_b                     6.498(2)
_cell_length_c                     5.740(2)
_cell_angle_alpha                  90.
_cell_angle_beta                   101.43(3)
_cell_angle_gamma                  90.
_cell_volume                       556.97
_cell_formula_units_Z              4
_symmetry_space_group_name_H-M     'C 1 2/c 1'
_symmetry_Int_Tables_number        15
loop_
_symmetry_equiv_pos_site_id
_symmetry_equiv_pos_as_xyz
  1	'x, -y, z+.5'
  2	'-x, -y, -z'
  3	'-x, y, -z+.5'
  4	'x, y, z'
  5	'x+.5, -y+.5, z+.5'
  6	'-x+.5, -y+.5, -z'
  7	'-x+.5, y+.5, -z+.5'
  8	'x+.5, y+.5, z'
loop_
_atom_type_symbol
_atom_type_oxidation_number
O2-	-2
Rb1+	1
Zn2+	2
loop_
_atom_site_label
_atom_site_type_symbol
_atom_site_symmetry_multiplicity
_atom_site_Wyckoff_symbol
_atom_site_fract_x
_atom_site_fract_y
_atom_site_fract_z
_atom_site_occupancy
_atom_site_attached_hydrogens
Rb1 Rb1+ 8 f 0.8824(1) 0.1208(2) 0.5115(3) 1. 0 
Zn1 Zn2+ 4 e 0 0.4814(2) 0.25 1. 0 
Zn2 Zn2+ 8 f 0.6921(1) 0.1186(1) 0.0872(1) 1. 0 
O1 O2- 8 f 0.4408(3) 0.8223(8) 0.9541(9) 1. 0 
O2 O2- 8 f 0.7352(3) 0.8743(7) 0.2849(9) 1. 0 

loop_
_atom_site_aniso_label
_atom_site_aniso_type_symbol
_atom_site_aniso_U_11
_atom_site_aniso_U_22
_atom_site_aniso_U_33
_atom_site_aniso_U_12
_atom_site_aniso_U_13
_atom_site_aniso_U_23
Rb1 Rb1+ 0.0143(7) 0.0133(8) 0.0158(8) -.0026(5) 0.0019(6) -.0031(5)
Zn1 Zn2+ 0.0083(5) 0.0058(5) 0.0059(6) 0 0.0019(4) 0
Zn2 Zn2+ 0.0070(4) 0.0042(5) 0.0086(5) 0.0010(2) 0.0023(3) 0.0003(2)
O1 O2- 0.006(2) 0.009(2) 0.010(2) -.003(2) 0.000(2) -.004(2)
O2 O2- 0.009(2) 0.011(2) 0.008(2) -.001(2) 0.002(2) 0.000(2)
#End of data_40754-ICSD


