data_68824-ICSD
#?2014 by Fachinformationszentrum Karlsruhe, and the U.S. Secretary of 
#Commerce on behalf of the United States.  All rights reserved.
_database_code_ICSD                68824
_audit_creation_date               1992/01/20
_audit_update_record               2006/04/01
_chemical_name_systematic          'Dipotassium Tetrachlorozincate'
_chemical_formula_structural       'K2 (Zn Cl4)'
_chemical_formula_sum              'Cl4 K2 Zn1'
_publ_section_title
;
Neutron study of the normal-incommensurate phase transition in K2 Zn 
Cl4
;
loop_
_citation_id
_citation_journal_abbrev
_citation_year
_citation_journal_volume
_citation_page_first
_citation_page_last
_citation_journal_id_ASTM
primary 'Journal of Physics: Condensed Matter' 1990 2 4543 4558 JCOMEL
2 'Golden Book of Phase Transitions, Wroclaw' 2002 1 1 123 GBOPT5
_publ_author_name
;
Quilichini, M.;Bernede, P.;Lefebvre, J.;Schweiss, P.
;
_cell_length_a                     8.96(3)
_cell_length_b                     7.30(1)
_cell_length_c                     12.54(3)
_cell_angle_alpha                  90.
_cell_angle_beta                   90.
_cell_angle_gamma                  90.
_cell_volume                       820.22
_cell_formula_units_Z              4
_symmetry_space_group_name_H-M     'P n m a'
_symmetry_Int_Tables_number        62
_refine_ls_R_factor_all            .087
loop_
_symmetry_equiv_pos_site_id
_symmetry_equiv_pos_as_xyz
  1	'x+.5, y, -z+.5'
  2	'x, -y+.5, z'
  3	'-x+.5, y+.5, z+.5'
  4	'-x, -y, -z'
  5	'-x+.5, -y, z+.5'
  6	'-x, y+.5, -z'
  7	'x+.5, -y+.5, -z+.5'
  8	'x, y, z'
loop_
_atom_type_symbol
_atom_type_oxidation_number
Cl1-	-1
K1+	1
Zn2+	2
loop_
_atom_site_label
_atom_site_type_symbol
_atom_site_symmetry_multiplicity
_atom_site_Wyckoff_symbol
_atom_site_fract_x
_atom_site_fract_y
_atom_site_fract_z
_atom_site_occupancy
_atom_site_attached_hydrogens
K1 K1+ 4 c 0.6355(11) 0.25 0.4114(12) 1. 0 
K2 K1+ 4 c 0.4942(10) 0.25 0.8129(6) 1. 0 
Zn1 Zn2+ 4 c 0.2195(4) 0.25 0.4205(4) 1. 0 
Cl1 Cl1- 4 c 0.9768(4) 0.25 0.4288(4) 1. 0 
Cl2 Cl1- 4 c 0.3231(4) 0.25 0.5797(4) 1. 0 
Cl3 Cl1- 8 d 0.3063(4) 0.0055(5) 0.3368(6) 1. 0 

loop_
_atom_site_aniso_label
_atom_site_aniso_type_symbol
_atom_site_aniso_U_11
_atom_site_aniso_U_22
_atom_site_aniso_U_33
_atom_site_aniso_U_12
_atom_site_aniso_U_13
_atom_site_aniso_U_23
K1 K1+ 0.0860(66) 0.1668(98) 0.2154(99) 0 0 0
K2 K1+ 0.0833(58) 0.1445(95) 0.0872(66) 0 0 0
Zn1 Zn2+ 0.0593(26) 0.0734(31) 0.0657(28) 0 0 0
Cl1 Cl1- 0.0621(22) 0.2986(73) 0.1613(40) 0 0 0
Cl2 Cl1- 0.0945(30) 0.3109(66) 0.0883(25) 0 0 0
Cl3 Cl1- 0.1786(28) 0.0937(18) 0.2268(33) 0 0 0
#End of data_68824-ICSD


