data_62513-ICSD
#?2014 by Fachinformationszentrum Karlsruhe, and the U.S. Secretary of 
#Commerce on behalf of the United States.  All rights reserved.
_database_code_ICSD                62513
_audit_creation_date               1988/02/22
_audit_update_record               2007/04/01
_chemical_name_systematic          'Manganese Sodium Catena-disilicate'
_chemical_formula_structural       'Mn Na (Si2 O6)'
_chemical_formula_sum              'Mn1 Na1 O6 Si2'
_chemical_name_mineral             Namansilite
_publ_section_title
;
Refinement of structure of manganese sodium dimetasilicate
;
loop_
_citation_id
_citation_journal_abbrev
_citation_year
_citation_journal_volume
_citation_page_first
_citation_page_last
_citation_journal_id_ASTM
primary 'Acta Crystallographica, Section C: Crystal Structure Communications'
 1987 43 605 607 ACSCEE
_publ_author_name                  'Ohashi, H.;Osawa, T.;Tsukimura, K.'
_cell_length_a                     9.513(1)
_cell_length_b                     8.621(1)
_cell_length_c                     5.354(1)
_cell_angle_alpha                  90.
_cell_angle_beta                   105.14(1)
_cell_angle_gamma                  90.
_cell_volume                       423.85
_cell_formula_units_Z              4
_symmetry_space_group_name_H-M     'C 1 2/c 1'
_symmetry_Int_Tables_number        15
_refine_ls_R_factor_all            .034
loop_
_symmetry_equiv_pos_site_id
_symmetry_equiv_pos_as_xyz
  1	'x, -y, z+.5'
  2	'-x, -y, -z'
  3	'-x, y, -z+.5'
  4	'x, y, z'
  5	'x+.5, -y+.5, z+.5'
  6	'-x+.5, -y+.5, -z'
  7	'-x+.5, y+.5, -z+.5'
  8	'x+.5, y+.5, z'
loop_
_atom_type_symbol
_atom_type_oxidation_number
Mn3+	3
Na1+	1
O2-	-2
Si4+	4
loop_
_atom_site_label
_atom_site_type_symbol
_atom_site_symmetry_multiplicity
_atom_site_Wyckoff_symbol
_atom_site_fract_x
_atom_site_fract_y
_atom_site_fract_z
_atom_site_occupancy
_atom_site_attached_hydrogens
O1 O2- 8 f 0.1172(2) 0.0761(2) 0.1612(3) 1. 0 
O2 O2- 8 f 0.3609(2) 0.2597(2) 0.3038(3) 1. 0 
O3 O2- 8 f 0.3563(2) 0.0080(2) 0.0191(3) 1. 0 
Si1 Si4+ 8 f 0.29402(6) 0.08865(8) 0.2463(1) 1. 0 
Mn1 Mn3+ 4 e 0 0.90578(6) 0.25 1. 0 
Na1 Na1+ 4 e 0 0.2982(2) 0.25 1. 0 

#End of data_62513-ICSD


