data_420033-ICSD
#?2014 by Fachinformationszentrum Karlsruhe, and the U.S. Secretary of 
#Commerce on behalf of the United States.  All rights reserved.
_database_code_ICSD                420033
_audit_creation_date               2009/08/01
_chemical_name_systematic
;
Potassium Disilver Tetrathiophosphate(V)
;
_chemical_formula_structural       'K Ag2 (P S4)'
_chemical_formula_sum              'Ag2 K1 P1 S4'
_publ_section_title
;
Syntheses, crystal structures and spectroscopic properties of Ag2 Nb 
[P2 S6] [S2] and K Ag2 [P S4]
;
loop_
_citation_id
_citation_journal_abbrev
_citation_year
_citation_journal_volume
_citation_journal_issue
_citation_page_first
_citation_page_last
_citation_journal_id_ASTM
primary 'Journal of Solid State Chemistry' 2009 182 3 471 478 JSSCBI
_publ_author_name                  'Wu Yuan Dong;Bensch, W.'
_cell_length_a                     6.6471(7)
_cell_length_b                     6.6471(7)
_cell_length_c                     8.1693(11)
_cell_angle_alpha                  90.00
_cell_angle_beta                   90.00
_cell_angle_gamma                  90.00
_cell_volume                       360.95
_cell_formula_units_Z              2
_symmetry_space_group_name_H-M     'I -4 2 m'
_symmetry_Int_Tables_number        121
_refine_ls_R_factor_all            .0336
loop_
_symmetry_equiv_pos_site_id
_symmetry_equiv_pos_as_xyz
  1	'-y, -x, z'
  2	'y, x, z'
  3	'y, -x, -z'
  4	'-y, x, -z'
  5	'x, -y, -z'
  6	'-x, y, -z'
  7	'-x, -y, z'
  8	'x, y, z'
  9	'-y+.5, -x+.5, z+.5'
 10	'y+.5, x+.5, z+.5'
 11	'y+.5, -x+.5, -z+.5'
 12	'-y+.5, x+.5, -z+.5'
 13	'x+.5, -y+.5, -z+.5'
 14	'-x+.5, y+.5, -z+.5'
 15	'-x+.5, -y+.5, z+.5'
 16	'x+.5, y+.5, z+.5'
loop_
_atom_type_symbol
_atom_type_oxidation_number
Ag1+	1
K1+	1
P5+	5
S2-	-2
loop_
_atom_site_label
_atom_site_type_symbol
_atom_site_symmetry_multiplicity
_atom_site_Wyckoff_symbol
_atom_site_fract_x
_atom_site_fract_y
_atom_site_fract_z
_atom_site_occupancy
_atom_site_attached_hydrogens
_atom_site_U_iso_or_equiv
Ag1 Ag1+ 4 d 0.0000 0.5000 0.2500 1 0 0.0353(5) 
K1 K1+ 2 b 0.0000 0.0000 0.5000 1 0 0.0179(7) 
P1 P5+ 2 a 0.0000 0.0000 0.0000 1 0 0.0078(7) 
S1 S2- 8 i 0.18131(18) 0.18131(18) 0.1398(2) 1 0 0.0151(6) 

loop_
_atom_site_aniso_label
_atom_site_aniso_type_symbol
_atom_site_aniso_U_11
_atom_site_aniso_U_22
_atom_site_aniso_U_33
_atom_site_aniso_U_12
_atom_site_aniso_U_13
_atom_site_aniso_U_23
Ag1 Ag1+ 0.0211(5) 0.0211(5) 0.0638(9) 0.000 0.000 0.000
K1 K1+ 0.0171(10) 0.0171(10) 0.0195(14) 0.000 0.000 0.000
P1 P5+ 0.0068(9) 0.0068(9) 0.0099(13) 0.000 0.000 0.000
S1 S2- 0.0122(6) 0.0122(6) 0.0211(8) -0.0014(7) -0.0041(4) -0.0041(4)
#End of data_420033-ICSD


