data_72283-ICSD
#?2014 by Fachinformationszentrum Karlsruhe, and the U.S. Secretary of 
#Commerce on behalf of the United States.  All rights reserved.
_database_code_ICSD                72283
_audit_creation_date               1994/01/19
_chemical_name_systematic          'Neodymium Trialuminium Bromide'
_chemical_formula_structural       'Nd Al3 Br12'
_chemical_formula_sum              'Al3 Br12 Nd1'
_publ_section_title
;
Darstellung und Kristallstruktur von LnAl3Br12 (Ln=La,Ce,Pr, 
Nd,Sm,Gd) und thermischer Abbau zu LnBr3
;
loop_
_citation_id
_citation_journal_abbrev
_citation_year
_citation_journal_volume
_citation_page_first
_citation_page_last
_citation_journal_id_ASTM
primary 'Zeitschrift fuer Anorganische und Allgemeine Chemie (1950) (DE)'
 1992 613 45 48 ZAACAB
_publ_author_name                  'Hake, D.;Urland, W.'
_cell_length_a                     10.396(2)
_cell_length_b                     10.396(2)
_cell_length_c                     18.441(3)
_cell_angle_alpha                  90.
_cell_angle_beta                   90.
_cell_angle_gamma                  120.
_cell_volume                       1726.03
_cell_formula_units_Z              3
_symmetry_space_group_name_H-M     'P 31 2 1'
_symmetry_Int_Tables_number        152
_refine_ls_R_factor_all            .064
loop_
_symmetry_equiv_pos_site_id
_symmetry_equiv_pos_as_xyz
  1	'x-y, -y, -z+.6667'
  2	'-x, -x+y, -z+.3333'
  3	'y, x, -z'
  4	'-x+y, -x, z+.6667'
  5	'-y, x-y, z+.3333'
  6	'x, y, z'
loop_
_atom_type_symbol
_atom_type_oxidation_number
Al3+	3
Br1-	-1
Nd3+	3
loop_
_atom_site_label
_atom_site_type_symbol
_atom_site_symmetry_multiplicity
_atom_site_Wyckoff_symbol
_atom_site_fract_x
_atom_site_fract_y
_atom_site_fract_z
_atom_site_occupancy
_atom_site_attached_hydrogens
_atom_site_U_iso_or_equiv
Nd1 Nd3+ 3 a 0.2700(2) 0.2700(2) 0 1. 0 0.0347(9) 
Al1 Al3+ 3 b 0.900(1) 0.900(1) 0.5 1. 0 0.0529(56) 
Al2 Al3+ 6 c 0.6991(12) 0.3273(11) 0.6118(5) 1. 0 0.0900(65) 
Br1 Br1- 6 c 0.7063(3) 0.4728(3) 0.7105(2) 1. 0 0.0557(15) 
Br2 Br1- 6 c 0.9169(3) 0.5053(3) 0.5533(2) 1. 0 0.0742(19) 
Br3 Br1- 6 c 0.1286(3) 0.9297(3) 0.5310(1) 1. 0 0.0607(17) 
Br4 Br1- 6 c 0.2362(3) 0.0322(3) 0.7307(2) 1. 0 0.0675(18) 
Br5 Br1- 6 c 0.1372(4) 0.7175(6) 0.3515(3) 1. 0 0.1931(40) 
Br6 Br1- 6 c 0.5032(5) 0.2783(6) 0.5422(2) 1. 0 0.1816(38) 

#End of data_72283-ICSD


