data_79781-ICSD
#?2014 by Fachinformationszentrum Karlsruhe, and the U.S. Secretary of 
#Commerce on behalf of the United States.  All rights reserved.
_database_code_ICSD                79781
_audit_creation_date               1996/10/14
_audit_update_record               2003/04/01
_chemical_name_systematic          'Dipotassium Sulfate(VI) - Lt'
_chemical_formula_structural       'K2 (S O4)'
_chemical_formula_sum              'K2 O4 S1'
_publ_section_title
;
Structure of potassium sulfate at temperatures from 296 K down to 15 
K
;
loop_
_citation_id
_citation_journal_abbrev
_citation_year
_citation_journal_volume
_citation_page_first
_citation_page_last
_citation_journal_id_ASTM
primary 'Acta Crystallographica, Section B: Structural Science'
 1995 51 287 293 ASBSDK
2 'Phase Transition' 1992 38 127 220 PHTRDP
_publ_author_name                  'Ojima, K.;Nishihata, Y.;Sawada, A.'
_cell_length_a                     5.7226(4)
_cell_length_b                     9.9985(4)
_cell_length_c                     7.4218(4)
_cell_angle_alpha                  90.
_cell_angle_beta                   90.
_cell_angle_gamma                  90.
_cell_volume                       424.66
_cell_formula_units_Z              4
_symmetry_space_group_name_H-M     'P m c n'
_symmetry_Int_Tables_number        62
_refine_ls_R_factor_all            .025
loop_
_symmetry_equiv_pos_site_id
_symmetry_equiv_pos_as_xyz
  1	'x, -y+.5, z+.5'
  2	'-x+.5, y, z'
  3	'x+.5, y+.5, -z+.5'
  4	'-x, -y, -z'
  5	'-x, y+.5, -z+.5'
  6	'x+.5, -y, -z'
  7	'-x+.5, -y+.5, z+.5'
  8	'x, y, z'
loop_
_atom_type_symbol
_atom_type_oxidation_number
K1+	1
O2-	-2
S6+	6
loop_
_atom_site_label
_atom_site_type_symbol
_atom_site_symmetry_multiplicity
_atom_site_Wyckoff_symbol
_atom_site_fract_x
_atom_site_fract_y
_atom_site_fract_z
_atom_site_occupancy
_atom_site_attached_hydrogens
K1 K1+ 4 c 0.25 0.08942(3) 0.17137(4) 1. 0 
K2 K1+ 4 c 0.25 0.79729(3) 0.48881(4) 1. 0 
S1 S6+ 4 c 0.25 0.42002(3) 0.23263(5) 1. 0 
O1 O2- 4 c 0.25 0.4170(1) 0.0341(2) 1. 0 
O2 O2- 4 c 0.25 0.5601(1) 0.2990(2) 1. 0 
O3 O2- 8 d 0.0386(1) 0.3516(1) 0.3020(1) 1. 0 

loop_
_atom_site_aniso_label
_atom_site_aniso_type_symbol
_atom_site_aniso_U_11
_atom_site_aniso_U_22
_atom_site_aniso_U_33
_atom_site_aniso_U_12
_atom_site_aniso_U_13
_atom_site_aniso_U_23
K1 K1+ 0.00337(9) 0.00338(8) 0.00297(8) 0 0 0.00017(8)
K2 K1+ 0.00372(9) 0.00259(8) 0.00214(8) 0 0 -0.00004(7)
S1 S6+ 0.00193(10) 0.00124(9) 0.00137(9) 0 0 -0.00010(9)
O1 O2- 0.0080(4) 0.0065(4) 0.0012(3) 0 0 0.0006(3)
O2 O2- 0.0063(4) 0.0022(3) 0.0044(3) 0 0 -0.0011(3)
O3 O2- 0.0030(2) 0.0052(2) 0.0055(2) -0.0016(2) 0.0011(2) 0.0011(2)
#End of data_79781-ICSD


