data_71589-ICSD
#?2014 by Fachinformationszentrum Karlsruhe, and the U.S. Secretary of 
#Commerce on behalf of the United States.  All rights reserved.
_database_code_ICSD                71589
_audit_creation_date               1993/01/06
_chemical_name_systematic          'Tetracesium Trizinc Fluoride'
_chemical_formula_structural       'Cs4 Zn3 F10'
_chemical_formula_sum              'Cs4 F10 Zn3'
_publ_section_title
;
Structures of cesium containing fluorides,X: crystal structure 
refinements of the ternary fluorides Cs4M3F10 (M=Mg,Co,Ni, Zn) and 
magnetism of Cs4Ni3F10
;
loop_
_citation_id
_citation_journal_abbrev
_citation_year
_citation_journal_volume
_citation_page_first
_citation_page_last
_citation_journal_id_ASTM
primary 'European Journal of Solid State Inorganic Chemistry'
 1992 29 679 690 EJSCE5
_publ_author_name                  'Schmidt, R.E.;Pebler, J.;Babel, D.'
_cell_length_a                     6.205(1)
_cell_length_b                     14.547(2)
_cell_length_c                     13.827(2)
_cell_angle_alpha                  90.
_cell_angle_beta                   90.
_cell_angle_gamma                  90.
_cell_volume                       1248.08
_cell_formula_units_Z              4
_symmetry_space_group_name_H-M     'C m c a'
_symmetry_Int_Tables_number        64
_refine_ls_R_factor_all            .029
loop_
_symmetry_equiv_pos_site_id
_symmetry_equiv_pos_as_xyz
  1	'-x, -y+.5, z+.5'
  2	'-x, y+.5, -z+.5'
  3	'-x, y, z'
  4	'-x, -y, -z'
  5	'x, y+.5, -z+.5'
  6	'x, -y+.5, z+.5'
  7	'x, -y, -z'
  8	'x, y, z'
  9	'-x+.5, -y, z+.5'
 10	'-x+.5, y, -z+.5'
 11	'-x+.5, y+.5, z'
 12	'-x+.5, -y+.5, -z'
 13	'x+.5, y, -z+.5'
 14	'x+.5, -y, z+.5'
 15	'x+.5, -y+.5, -z'
 16	'x+.5, y+.5, z'
loop_
_atom_type_symbol
_atom_type_oxidation_number
Cs1+	1
F1-	-1
Zn2+	2
loop_
_atom_site_label
_atom_site_type_symbol
_atom_site_symmetry_multiplicity
_atom_site_Wyckoff_symbol
_atom_site_fract_x
_atom_site_fract_y
_atom_site_fract_z
_atom_site_occupancy
_atom_site_attached_hydrogens
Cs1 Cs1+ 8 f 0 0.54625(3) 0.13895(3) 1. 0 
Cs2 Cs1+ 8 f 0 0.24392(3) 0.10696(3) 1. 0 
Zn1 Zn2+ 4 a 0 0 0 1. 0 
Zn2 Zn2+ 8 f 0 0.87866(4) 0.15663(5) 1. 0 
F1 F1- 8 e 0.25 0.3866(3) 0.25 1. 0 
F2 F1- 8 f 0 0.7467(3) 0.1475(4) 1. 0 
F3 F1- 8 f 0 0.0255(3) 0.1443(3) 1. 0 
F4 F1- 16 g 0.2861(5) 0.4011(2) 0.0382(2) 1. 0 

loop_
_atom_site_aniso_label
_atom_site_aniso_type_symbol
_atom_site_aniso_U_11
_atom_site_aniso_U_22
_atom_site_aniso_U_33
_atom_site_aniso_U_12
_atom_site_aniso_U_13
_atom_site_aniso_U_23
Cs1 Cs1+ 0.0151(2) 0.0156(1) 0.0144(2) 0 0 0.0011(1)
Cs2 Cs1+ 0.0178(2) 0.0161(2) 0.0263(2) 0 0 -.0028(1)
Zn1 Zn2+ 0.0146(4) 0.0135(4) 0.0104(4) 0 0 0.0020(3)
Zn2 Zn2+ 0.0124(3) 0.0114(3) 0.0097(3) 0 0 0.0006(2)
F1 F1- 0.0188(17) 0.0219(16) 0.0168(15) 0 0.0084(16) 0
F2 F1- 0.0314(22) 0.0169(17) 0.0401(27) 0 0 -.0030(18)
F3 F1- 0.0186(16) 0.0204(17) 0.0112(15) 0 0 -.0003(13)
F4 F1- 0.0155(12) 0.0192(10) 0.0160(11) -.0031(9) -.0013(10) 0.0019(9)
#End of data_71589-ICSD


