data_180324-ICSD
#?2014 by Fachinformationszentrum Karlsruhe, and the U.S. Secretary of 
#Commerce on behalf of the United States.  All rights reserved.
_database_code_ICSD                180324
_audit_creation_date               2011/08/01
_chemical_name_systematic          'Dirubidium Dialuminotrisilicate'
_chemical_formula_structural       'Rb2 ((Al2 Si3) O10)'
_chemical_formula_sum              'Al2 O10 Rb2 Si3'
_chemical_name_mineral             'Natrolite (Rb-exchanged)'
_publ_section_title
;
In-situ dehydration studies of fully K-, Rb- and Cs-exchanged 
natrolites
;
loop_
_citation_id
_citation_journal_abbrev
_citation_year
_citation_journal_volume
_citation_page_first
_citation_page_last
_citation_journal_id_ASTM
primary 'American Mineralogist' 2011 96 393 401 AMMIAY
_publ_author_name
;
Lee Yong Moon;Seoung Dong Hoon;Liu Dan;Park Min Bum;Hong Suk 
Bong;Chen Haiyan;Bai Jianming;Kao Chi Chang;Vogt, T.;Lee Yong Jae
;
_cell_length_a                     17.608(1)
_cell_length_b                     18.687(2)
_cell_length_c                     6.5544(5)
_cell_angle_alpha                  90.
_cell_angle_beta                   90.
_cell_angle_gamma                  90.
_cell_volume                       2156.66
_cell_formula_units_Z              8
_symmetry_space_group_name_H-M     'F d d 2'
_symmetry_Int_Tables_number        43
_refine_ls_R_factor_all            .014
loop_
_symmetry_equiv_pos_site_id
_symmetry_equiv_pos_as_xyz
  1	'x+.25, -y+.25, z+.25'
  2	'-x+.25, y+.25, z+.25'
  3	'-x, -y, z'
  4	'x, y, z'
  5	'x+.25, -y+.75, z+.75'
  6	'x+.75, -y+.25, z+.75'
  7	'x+.75, -y+.75, z+.25'
  8	'-x+.25, y+.75, z+.75'
  9	'-x+.75, y+.25, z+.75'
 10	'-x+.75, y+.75, z+.25'
 11	'-x, -y+.5, z+.5'
 12	'-x+.5, -y, z+.5'
 13	'-x+.5, -y+.5, z'
 14	'x, y+.5, z+.5'
 15	'x+.5, y, z+.5'
 16	'x+.5, y+.5, z'
loop_
_atom_type_symbol
_atom_type_oxidation_number
Al3+	3
O2-	-2
Rb1+	1
Si4+	4
loop_
_atom_site_label
_atom_site_type_symbol
_atom_site_symmetry_multiplicity
_atom_site_Wyckoff_symbol
_atom_site_fract_x
_atom_site_fract_y
_atom_site_fract_z
_atom_site_occupancy
_atom_site_attached_hydrogens
_atom_site_U_iso_or_equiv
Si1 Si4+ 8 a 0 0 0.0072(5) 1. 0 0.016(3) 
Si2 Si4+ 16 b 0.1460(3) 0.2151(3) 0.6256(5) 1. 0 0.016(3) 
Al1 Al3+ 16 b 0.0385(3) 0.0903(3) 0.6142(4) 1. 0 0.016(3) 
O1 O2- 16 b 0.0294(6) 0.0660(3) 0.8682(5) 1. 0 0.041(6) 
O2 O2- 16 b 0.0627(3) 0.1800(3) 0.597(1) 1. 0 0.041(6) 
O3 O2- 16 b 0.1086(5) 0.0413(3) 0.492(1) 1. 0 0.041(6) 
O4 O2- 16 b 0.2026(4) 0.1590(5) 0.735(1) 1. 0 0.041(6) 
O5 O2- 16 b 0.1793(3) 0.2249(6) 0.3974(5) 1. 0 0.041(6) 
Rb1 Rb1+ 16 b 0.0453(3) 0.1933(3) 0.1361(9) 1. 0 0.045(2) 

#End of data_180324-ICSD


