data_26010-ICSD
#?2014 by Fachinformationszentrum Karlsruhe, and the U.S. Secretary of 
#Commerce on behalf of the United States.  All rights reserved.
_database_code_ICSD                26010
_audit_creation_date               1980/12/31
_audit_update_record               2005/10/01
_chemical_name_systematic          'Dicalcium Diniobate - Lt'
_chemical_formula_structural       'Ca2 (Nb2 O7)'
_chemical_formula_sum              'Ca2 Nb2 O7'
_publ_section_title
;
Compounds with perovskite-type slabs. III. The structure of a 
monoclinic modification of Ca2 Nb2 O7
;
loop_
_citation_id
_citation_journal_abbrev
_citation_year
_citation_journal_volume
_citation_page_first
_citation_page_last
_citation_journal_id_ASTM
primary 'Acta Crystallographica B (24,1968-38,1982)' 1980 36 763 766 ACBCAR
_publ_author_name
;
Ishizawa, N.;Marumo, F.;Iwai, S.I.;Kimura, M.;Kawamura, T.
;
_cell_length_a                     7.697(2)
_cell_length_b                     13.385(6)
_cell_length_c                     5.502(1)
_cell_angle_alpha                  90.
_cell_angle_beta                   90.
_cell_angle_gamma                  98.34(6)
_cell_volume                       560.85
_cell_formula_units_Z              4
_symmetry_space_group_name_H-M     'P 1 1 21'
_symmetry_Int_Tables_number        4
_refine_ls_R_factor_all            .039
loop_
_symmetry_equiv_pos_site_id
_symmetry_equiv_pos_as_xyz
  1	'-x, -y, z+.5'
  2	'x, y, z'
loop_
_atom_type_symbol
_atom_type_oxidation_number
Ca2+	2
Nb5+	5
O2-	-2
loop_
_atom_site_label
_atom_site_type_symbol
_atom_site_symmetry_multiplicity
_atom_site_Wyckoff_symbol
_atom_site_fract_x
_atom_site_fract_y
_atom_site_fract_z
_atom_site_occupancy
_atom_site_attached_hydrogens
_atom_site_B_iso_or_equiv
Ca1 Ca2+ 2 a 0.2285(2) 0.9106(1) 0.7599(6) 1. 0 0 
Ca2 Ca2+ 2 a 0.1405(2) 0.5681(1) 0.3432(6) 1. 0 0 
Ca3 Ca2+ 2 a 0.7184(2) 0.8798(1) 0.75 1. 0 0 
Ca4 Ca2+ 2 a 0.6428(2) 0.6026(1) 0.2767(7) 1. 0 0 
Nb1 Nb5+ 2 a 0.47430(8) 0.88302(5) 0.2602(5) 1. 0 0 
Nb2 Nb5+ 2 a 0.41239(8) 0.67439(5) 0.7858(5) 1. 0 0 
Nb3 Nb5+ 2 a 0.96768(8) 0.88464(5) 0.2612(5) 1. 0 0 
Nb4 Nb5+ 2 a 0.92168(8) 0.67701(5) 0.7814(5) 1. 0 0 
O1 O2- 2 a 0.5364(9) 0.9800(5) 0.534(1) 1. 0 0.68 
O2 O2- 2 a 0.5015(9) 0.7725(5) 0.454(1) 1. 0 0.71 
O3 O2- 2 a 0.4111(9) 0.5625(5) 0.583(1) 1. 0 0.72 
O4 O2- 2 a 0.2237(9) 0.8917(5) 0.325(1) 1. 0 0.73 
O5 O2- 2 a 0.1734(9) 0.6973(5) 0.683(1) 1. 0 0.68 
O6 O2- 2 a 0.4294(9) 0.8214(5) 0.945(1) 1. 0 0.52 
O7 O2- 2 a 0.3684(10) 0.6148(6) 0.076(2) 1. 0 0.92 
O8 O2- 2 a 0.9528(9) 0.9803(5) 0.536(1) 1. 0 0.7 
O9 O2- 2 a 0.8845(9) 0.7753(5) 0.457(2) 1. 0 0.74 
O10 O2- 2 a 0.8674(9) 0.5730(5) 0.564(1) 1. 0 0.54 
O11 O2- 2 a 0.7283(9) 0.9138(5) 0.165(1) 1. 0 0.59 
O12 O2- 2 a 0.6737(9) 0.6982(5) 0.847(2) 1. 0 0.71 
O13 O2- 2 a 0.9817(9) 0.8199(5) 0.948(1) 1. 0 0.58 
O14 O2- 2 a 0.9279(9) 0.5972(5) 0.055(1) 1. 0 0.71 

loop_
_atom_site_aniso_label
_atom_site_aniso_type_symbol
_atom_site_aniso_U_11
_atom_site_aniso_U_22
_atom_site_aniso_U_33
_atom_site_aniso_U_12
_atom_site_aniso_U_13
_atom_site_aniso_U_23
Ca1 Ca2+ 0.0051(5) 0.0112(6) 0.0104(7) 0.0010(4) 0.0001(7) 0.0014(9)
Ca2 Ca2+ 0.0049(6) 0.0101(7) 0.0097(7) 0.0016(5) -.0002(6) -.0004(6)
Ca3 Ca2+ 0.0044(5) 0.0112(6) 0.0082(8) 0.0024(4) -.0005(6) 0.0015(7)
Ca4 Ca2+ 0.0054(5) 0.0204(8) 0.0119(7) 0.0039(5) -.0003(7) -.0001(9)
Nb1 Nb5+ 0.0014(2) 0.0071(3) 0.0059(3) 0.0010(2) 0.0002(3) -.0001(3)
Nb2 Nb5+ 0.0017(2) 0.0070(3) 0.0075(3) 0.0010(2) -.0003(3) -.0001(3)
Nb3 Nb5+ 0.0010(2) 0.0072(3) 0.0063(3) 0.0012(2) 0.0003(3) 0.0001(3)
Nb4 Nb5+ 0.0018(2) 0.0066(3) 0.0077(3) 0.0014(2) -.0003(3) -.0002(3)
#End of data_26010-ICSD


