data_74593-ICSD
#?2014 by Fachinformationszentrum Karlsruhe, and the U.S. Secretary of 
#Commerce on behalf of the United States.  All rights reserved.
_database_code_ICSD                74593
_audit_creation_date               1995/10/17
_audit_update_record               2003/04/01
_chemical_name_systematic          'Potassium Oxotitanium Arsenate(V)'
_chemical_formula_structural       'K (Ti O) (As O4)'
_chemical_formula_sum              'As1 K1 O5 Ti1'
_publ_section_title
;
High-temperature single-crystal X-ray diffraction studies of 
potassium and (cesium,potassium) titanyl arsenates
;
loop_
_citation_id
_citation_journal_abbrev
_citation_year
_citation_journal_volume
_citation_page_first
_citation_page_last
_citation_journal_id_ASTM
primary 'Chemistry of Materials' 1994 6 434 440 CMATEX
_publ_author_name
;
Northrup, P.A.;Parise, J.B.;Cheng, L.K.;Cheng, L.T.;McCarron, E.M.
;
_cell_length_a                     13.2185(11)
_cell_length_b                     6.6234(9)
_cell_length_c                     10.7374(10)
_cell_angle_alpha                  90.
_cell_angle_beta                   90.
_cell_angle_gamma                  90.
_cell_volume                       940.07
_cell_formula_units_Z              8
_symmetry_space_group_name_H-M     'P n a 21'
_symmetry_Int_Tables_number        33
_refine_ls_R_factor_all            .045
loop_
_symmetry_equiv_pos_site_id
_symmetry_equiv_pos_as_xyz
  1	'x+.5, -y+.5, z'
  2	'-x+.5, y+.5, z+.5'
  3	'-x, -y, z+.5'
  4	'x, y, z'
loop_
_atom_type_symbol
_atom_type_oxidation_number
As5+	5
K1+	1
O2-	-2
Ti4+	4
loop_
_atom_site_label
_atom_site_type_symbol
_atom_site_symmetry_multiplicity
_atom_site_Wyckoff_symbol
_atom_site_fract_x
_atom_site_fract_y
_atom_site_fract_z
_atom_site_occupancy
_atom_site_attached_hydrogens
_atom_site_B_iso_or_equiv
K1 K1+ 4 a 0.3821(6) 0.7831(8) 0.3366(10) 1. 0 9.4(4) 
K2 K1+ 4 a 0.1086(5) 0.7024(10) 0.0881(9) 1. 0 8.2(4) 
Ti1 Ti4+ 4 a 0.8731(1) 0.9971(4) 0 1. 0 1.63(6) 
Ti2 Ti4+ 4 a 0.2506(2) 0.2626(3) 0.2508(4) 1. 0 1.70(5) 
As1 As5+ 4 a 0.4998(1) 0.3278(1) 0.2559(4) 1. 0 1.48(3) 
As2 As5+ 4 a 0.1801(1) 0.5014(2) 0.5083(3) 1. 0 1.55(3) 
O1 O2- 4 a 0.9883(10) 0.023(3) 0.1317(14) 1. 0 3.4(6) 
O2 O2- 4 a 0.5124(12) 0.476(3) 0.3813(16) 1. 0 3.6(6) 
O3 O2- 4 a 0.3959(8) 0.186(2) 0.2792(15) 1. 0 3.2(5) 
O4 O2- 4 a 0.0998(6) 0.327(1) 0.2350(11) 1. 0 2.0(4) 
O5 O2- 4 a 0.3934(8) 0.803(1) 0.0457(12) 1. 0 2.5(4) 
O6 O2- 4 a 0.6076(10) 0.797(2) 0.4771(14) 1. 0 3.6(5) 
O7 O2- 4 a 0.2420(11) 0.040(2) 0.1296(12) 1. 0 2.8(4) 
O8 O2- 4 a 0.2604(10) 0.460(2) 0.3907(13) 1. 0 3.3(5) 
O9 O2- 4 a 0.2168(10) 0.048(2) 0.3825(14) 1. 0 2.7(5) 
O10 O2- 4 a 0.2804(9) 0.448(2) 0.1319(13) 1. 0 2.4(4) 

#End of data_74593-ICSD


