data_73211-ICSD
#?2014 by Fachinformationszentrum Karlsruhe, and the U.S. Secretary of 
#Commerce on behalf of the United States.  All rights reserved.
_database_code_ICSD                73211
_audit_creation_date               1994/06/30
_chemical_name_systematic          'Trisodium Cobalt(I) Oxide'
_chemical_formula_structural       'Na3 Co O2'
_chemical_formula_sum              'Co1 Na3 O2'
_publ_section_title
;
Zur Existenz polynaerer Oxide der Alkalimetalle mit einwertigem 
Cobalt bzw. Nickel
;
loop_
_citation_id
_citation_journal_abbrev
_citation_year
_citation_journal_volume
_citation_page_first
_citation_page_last
_citation_journal_id_ASTM
primary 'Zeitschrift fuer Anorganische und Allgemeine Chemie (1950) (DE)'
 1993 619 923 933 ZAACAB
_publ_author_name
;
Burow, W.;Birx, J.;Bernhardt, F.;Hoppe, R.
;
_cell_length_a                     9.401
_cell_length_b                     9.401
_cell_length_c                     4.645
_cell_angle_alpha                  90.
_cell_angle_beta                   90.
_cell_angle_gamma                  90.
_cell_volume                       410.52
_cell_formula_units_Z              4
_symmetry_space_group_name_H-M     'P 42/m n m'
_symmetry_Int_Tables_number        136
_refine_ls_R_factor_all            .028
loop_
_symmetry_equiv_pos_site_id
_symmetry_equiv_pos_as_xyz
  1	'-y+.5, x+.5, -z+.5'
  2	'y+.5, -x+.5, -z+.5'
  3	'y, x, -z'
  4	'-y, -x, -z'
  5	'y+.5, -x+.5, z+.5'
  6	'-y+.5, x+.5, z+.5'
  7	'-y, -x, z'
  8	'y, x, z'
  9	'x+.5, -y+.5, -z+.5'
 10	'-x+.5, y+.5, -z+.5'
 11	'x, y, -z'
 12	'-x, -y, -z'
 13	'-x+.5, y+.5, z+.5'
 14	'x+.5, -y+.5, z+.5'
 15	'-x, -y, z'
 16	'x, y, z'
loop_
_atom_type_symbol
_atom_type_oxidation_number
Co1+	1
Na1+	1
O2-	-2
loop_
_atom_site_label
_atom_site_type_symbol
_atom_site_symmetry_multiplicity
_atom_site_Wyckoff_symbol
_atom_site_fract_x
_atom_site_fract_y
_atom_site_fract_z
_atom_site_occupancy
_atom_site_attached_hydrogens
Co1 Co1+ 4 f 0.3241 0.3241 0 1. 0 
Na1 Na1+ 4 g 0.3564(1) 0.6436(1) 0 1. 0 
Na2 Na1+ 8 i 0.0248(1) 0.6571(1) 0 1. 0 
O1 O2- 8 i 0.1964(2) 0.4604(2) 0 1. 0 

loop_
_atom_site_aniso_label
_atom_site_aniso_type_symbol
_atom_site_aniso_U_11
_atom_site_aniso_U_22
_atom_site_aniso_U_33
_atom_site_aniso_U_12
_atom_site_aniso_U_13
_atom_site_aniso_U_23
Co1 Co1+ 0.0111(1) 0.0111(1) 0.0125(2) -.0017(4) 0 0
Na1 Na1+ 0.0211(5) 0.0211(5) 0.0484(11) -.0083(5) 0 0
Na2 Na1+ 0.0165(4) 0.0207(5) 0.0137(4) -.0017(4) 0 0
O1 O2- 0.0120(7) 0.0141(6) 0.0156(7) 0.0021(5) 0 0
#End of data_73211-ICSD


