data_183639-ICSD
#?2014 by Fachinformationszentrum Karlsruhe, and the U.S. Secretary of 
#Commerce on behalf of the United States.  All rights reserved.
_database_code_ICSD                183639
_audit_creation_date               2012/08/01
_chemical_name_systematic          'Potassium Chromium Oxide (2/8/16)'
_chemical_formula_structural       'K2 Cr8 O16'
_chemical_formula_sum              'Cr8 K2 O16'
_publ_section_title
;
Driving Curie temperature toward room temperature in the half-
metallic ferromagnet K2 Cr8 O16 by soft redox chemistry
;
loop_
_citation_id
_citation_journal_abbrev
_citation_year
_citation_journal_volume
_citation_page_first
_citation_page_last
_citation_journal_id_ASTM
primary 'Dalton Transactions' 2012 41 1840 1847 DTARAF
_publ_author_name
;
Pirrotta, I.;Fernandez-Sanjulian, J.;Moran, E.;Alario-Franco, 
M.A.;Gonzalo, E.;Kuhn, A.;Garcia-Alvarado, F.
;
_cell_length_a                     9.7471(4)
_cell_length_b                     9.7471(4)
_cell_length_c                     2.9292(6)
_cell_angle_alpha                  90
_cell_angle_beta                   90
_cell_angle_gamma                  90
_cell_volume                       278.29
_cell_formula_units_Z              1
_symmetry_space_group_name_H-M     'I 4/m'
_symmetry_Int_Tables_number        87
_refine_ls_R_factor_all            .057
loop_
_symmetry_equiv_pos_site_id
_symmetry_equiv_pos_as_xyz
  1	'-y, x, -z'
  2	'y, -x, -z'
  3	'x, y, -z'
  4	'-x, -y, -z'
  5	'y, -x, z'
  6	'-y, x, z'
  7	'-x, -y, z'
  8	'x, y, z'
  9	'-y+.5, x+.5, -z+.5'
 10	'y+.5, -x+.5, -z+.5'
 11	'x+.5, y+.5, -z+.5'
 12	'-x+.5, -y+.5, -z+.5'
 13	'y+.5, -x+.5, z+.5'
 14	'-y+.5, x+.5, z+.5'
 15	'-x+.5, -y+.5, z+.5'
 16	'x+.5, y+.5, z+.5'
loop_
_atom_type_symbol
_atom_type_oxidation_number
Cr3.75+	3.75
K1+	1
O2-	-2
loop_
_atom_site_label
_atom_site_type_symbol
_atom_site_symmetry_multiplicity
_atom_site_Wyckoff_symbol
_atom_site_fract_x
_atom_site_fract_y
_atom_site_fract_z
_atom_site_occupancy
_atom_site_attached_hydrogens
_atom_site_B_iso_or_equiv
K1 K1+ 2 b 0 0 0.50000 1.0 0 2.182 
Cr1 Cr3.75+ 8 h 0.35143(46) 0.16800(49) 0 1.0 0 0.340 
O1 O2- 8 h 0.15745(41) 0.21040(44) 0 1.0 0 0.440 
O2 O2- 8 h 0.55494(45) 0.16320(34) 0 1.0 0 0.480 

#End of data_183639-ICSD


