data_50997-ICSD
#?2014 by Fachinformationszentrum Karlsruhe, and the U.S. Secretary of 
#Commerce on behalf of the United States.  All rights reserved.
_database_code_ICSD                50997
_audit_creation_date               2001/07/16
_audit_update_record               2006/04/01
_chemical_name_systematic          'Calcium Manganate(IV)'
_chemical_formula_structural       'Ca (Mn O3)'
_chemical_formula_sum              'Ca1 Mn1 O3'
_publ_section_title
;
Relationship between angles for Mn-O-Mn and electrical properties of 
orthorhombic perovskite-type (Ca(1-x)Sr(x)) Mn O3
;
loop_
_citation_id
_citation_journal_abbrev
_citation_year
_citation_journal_volume
_citation_page_first
_citation_page_last
_citation_journal_id_ASTM
primary 'Journal of Solid State Chemistry' 1998 137 82 86 JSSCBI
_publ_author_name                  'Taguchi, H.;Sonoda, M.;Nagao, M.'
_cell_length_a                     5.2819(1)
_cell_length_b                     7.4547(2)
_cell_length_c                     5.2658(1)
_cell_angle_alpha                  90.
_cell_angle_beta                   90.
_cell_angle_gamma                  90.
_cell_volume                       207.34
_cell_formula_units_Z              4
_symmetry_space_group_name_H-M     'P n m a'
_symmetry_Int_Tables_number        62
_refine_ls_R_factor_all            .0356
loop_
_symmetry_equiv_pos_site_id
_symmetry_equiv_pos_as_xyz
  1	'x+.5, y, -z+.5'
  2	'x, -y+.5, z'
  3	'-x+.5, y+.5, z+.5'
  4	'-x, -y, -z'
  5	'-x+.5, -y, z+.5'
  6	'-x, y+.5, -z'
  7	'x+.5, -y+.5, -z+.5'
  8	'x, y, z'
loop_
_atom_type_symbol
_atom_type_oxidation_number
Ca2+	2
Mn4+	4
O2-	-2
loop_
_atom_site_label
_atom_site_type_symbol
_atom_site_symmetry_multiplicity
_atom_site_Wyckoff_symbol
_atom_site_fract_x
_atom_site_fract_y
_atom_site_fract_z
_atom_site_occupancy
_atom_site_attached_hydrogens
_atom_site_B_iso_or_equiv
Ca1 Ca2+ 4 c 0.034(1) 0.25 -.005(3) 1. 0 0.18(10) 
Mn1 Mn4+ 4 b 0 0 0.5 1. 0 0.18(10) 
O1 O2- 4 c 0.491(3) 0.25 0.085(6) 1. 0 0.18(10) 
O2 O2- 8 d 0.287(3) 0.030(2) -.292(3) 1. 0 0.18(10) 

#End of data_50997-ICSD


