data_10054-ICSD
#?2014 by Fachinformationszentrum Karlsruhe, and the U.S. Secretary of 
#Commerce on behalf of the United States.  All rights reserved.
_database_code_ICSD                10054
_audit_creation_date               1980/01/01
_audit_update_record               2005/10/01
_chemical_name_systematic          'Potassium Copper Sulfide (3/8/6)'
_chemical_formula_structural       'K3 Cu8 S6'
_chemical_formula_sum              'Cu8 K3 S6'
_publ_section_title
;
Zur Kristallstruktur der Thiocuprate K3 Cu8 S6 und Rb3 Cu8 S6
;
loop_
_citation_id
_citation_journal_abbrev
_citation_year
_citation_journal_volume
_citation_page_first
_citation_page_last
_citation_journal_id_ASTM
primary
;
Zeitschrift fuer Naturforschung, Teil B. Anorganische Chemie, 
Organische Chemie (33,1978-41,1986)
;
 1979 34 675 677 ZNBAD2
2 'Phase Transition' 1992 38 127 220 PHTRDP
_publ_author_name                  'Burschka, C.'
_cell_length_a                     17.332(4)
_cell_length_b                     3.830(2)
_cell_length_c                     9.889(4)
_cell_angle_alpha                  90.
_cell_angle_beta                   104.12(2)
_cell_angle_gamma                  90.
_cell_volume                       636.61
_cell_formula_units_Z              2
_symmetry_space_group_name_H-M     'C 1 2/m 1'
_symmetry_Int_Tables_number        12
_refine_ls_R_factor_all            .06
loop_
_symmetry_equiv_pos_site_id
_symmetry_equiv_pos_as_xyz
  1	'-x, y, -z'
  2	'-x, -y, -z'
  3	'x, -y, z'
  4	'x, y, z'
  5	'-x+.5, y+.5, -z'
  6	'-x+.5, -y+.5, -z'
  7	'x+.5, -y+.5, z'
  8	'x+.5, y+.5, z'
loop_
_atom_type_symbol
_atom_type_oxidation_number
Cu1+	1
Cu1.5+	1.5
K1+	1
S2-	-2
loop_
_atom_site_label
_atom_site_type_symbol
_atom_site_symmetry_multiplicity
_atom_site_Wyckoff_symbol
_atom_site_fract_x
_atom_site_fract_y
_atom_site_fract_z
_atom_site_occupancy
_atom_site_attached_hydrogens
_atom_site_B_iso_or_equiv
K1 K1+ 2 b 0 0.5 0 1. 0 1.65 
K2 K1+ 4 i 0.1890(1) 0.5 0.2991(2) 1. 0 1.84 
Cu1 Cu1+ 4 i 0.3914(1) 0.5 0.2131(1) 1. 0 0 
Cu2 Cu1+ 4 i 0.4092(1) 0.5 0.4761(1) 1. 0 0 
Cu3 Cu1.5+ 4 i 0.2967(1) 0 0.0626(3) 1. 0 0 
Cu4 Cu1+ 4 i 0.4819(1) 0 0.3534(1) 1. 0 0 
S1 S2- 4 i 0.1558(1) 0 0.0181(2) 1. 0 1.13 
S2 S2- 4 i 0.0370(1) 0 0.2917(2) 1. 0 1.24 
S3 S2- 4 i 0.3448(1) 0 0.3586(2) 1. 0 1.38 

loop_
_atom_site_aniso_label
_atom_site_aniso_type_symbol
_atom_site_aniso_B_11
_atom_site_aniso_B_22
_atom_site_aniso_B_33
_atom_site_aniso_B_12
_atom_site_aniso_B_13
_atom_site_aniso_B_23
Cu1 Cu1+ 3.1(1) 6.7(1) 1.2 0 -.3 0
Cu2 Cu1+ 2. 1.7(1) 1.2 0 0.3 0
Cu3 Cu1.5+ 2.5(1) 1.2(1) 11.6(2) 0 3.6(1) 0
Cu4 Cu1+ 2.9 1.2(1) 2.3 0 1.4 0
#End of data_10054-ICSD


