data_152753-ICSD
#?2014 by Fachinformationszentrum Karlsruhe, and the U.S. Secretary of 
#Commerce on behalf of the United States.  All rights reserved.
_database_code_ICSD                152753
_audit_creation_date               2006/10/01
_audit_update_record               2013/02/01
_chemical_name_systematic
;
Disilver(I) Cadmium Germanium Sulfide
;
_chemical_formula_structural       'Ag2 Cd Ge S4'
_chemical_formula_sum              'Ag2 Cd1 Ge1 S4'
_publ_section_title
;
The quasi-ternary system (Ag2 S) - (Cd S) - (Ge S2) and the crystal 
structure  of Ag2 Cd Ge S4
;
loop_
_citation_id
_citation_journal_abbrev
_citation_year
_citation_journal_volume
_citation_page_first
_citation_page_last
_citation_journal_id_ASTM
primary 'Journal of Alloys and Compounds' 2005 397 95 98 JALCEU
2 'Acta Crystallographica B (24,1968-38,1982)' 1969 25 1164 1174 ACBCAR
_publ_author_name
;
Parasyuk, O.V.;Piskach, L.V.;Olekseyuk, I.D.;Pekhnyo, V.I.
;
_cell_length_a                     8.0338(3)
_cell_length_b                     6.8680(2)
_cell_length_c                     6.5866(3)
_cell_angle_alpha                  90.
_cell_angle_beta                   90.
_cell_angle_gamma                  90.
_cell_volume                       363.42
_cell_formula_units_Z              2
_symmetry_space_group_name_H-M     'P m n 21'
_symmetry_Int_Tables_number        31
_refine_ls_R_factor_all            .0766
loop_
_symmetry_equiv_pos_site_id
_symmetry_equiv_pos_as_xyz
  1	'x+.5, -y, z+.5'
  2	'-x+.5, -y, z+.5'
  3	'-x, y, z'
  4	'x, y, z'
loop_
_atom_type_symbol
_atom_type_oxidation_number
Ag1+	1
Cd2+	2
Ge4+	4
S2-	-2
loop_
_atom_site_label
_atom_site_type_symbol
_atom_site_symmetry_multiplicity
_atom_site_Wyckoff_symbol
_atom_site_fract_x
_atom_site_fract_y
_atom_site_fract_z
_atom_site_occupancy
_atom_site_attached_hydrogens
_atom_site_B_iso_or_equiv
Ag1 Ag1+ 4 b 0.2546(3) 0.3155(2) 0 1. 0 0.96(3) 
Cd1 Cd2+ 2 a 0 0.8471(3) 0.9868(10) 1. 0 1.43(6) 
Ge1 Ge4+ 2 a 0 0.1848(5) 0.491(2) 1. 0 0.92(8) 
S1 S2- 4 b 0.2371(10) 0.3266(8) 0.3871(10) 1. 0 0.94(11) 
S2 S2- 2 a 0 0.1854(14) 0.8216(14) 1. 0 0.9(2) 
S3 S2- 2 a 0 0.8831(13) 0.3633(14) 1. 0 0.6(2) 

#End of data_152753-ICSD


