data_73586-ICSD
#?2014 by Fachinformationszentrum Karlsruhe, and the U.S. Secretary of 
#Commerce on behalf of the United States.  All rights reserved.
_database_code_ICSD                73586
_audit_creation_date               1994/06/30
_chemical_name_systematic          'Potassium Hexachlororhodate'
_chemical_formula_structural       'K3 (Rh Cl6)'
_chemical_formula_sum              'Cl6 K3 Rh1'
_publ_section_title                'Crystal structure of K3(RhCl6)'
loop_
_citation_id
_citation_journal_abbrev
_citation_year
_citation_journal_volume
_citation_page_first
_citation_page_last
_citation_journal_id_ASTM
primary 'Journal of Crystallographic and Spectroscopic Research'
 1993 23 345 347 JCREDB
_publ_author_name
;
Puranik, V.G.;Tavale, S.S.;Umapathy, P.;Dorai, C.S.
;
_cell_length_a                     11.903(1)
_cell_length_b                     7.406(1)
_cell_length_c                     12.529
_cell_angle_alpha                  90.
_cell_angle_beta                   108.266(7)
_cell_angle_gamma                  90.
_cell_volume                       1048.82
_cell_formula_units_Z              4
_symmetry_space_group_name_H-M     'P 1 21/a 1'
_symmetry_Int_Tables_number        14
_refine_ls_R_factor_all            .03
loop_
_symmetry_equiv_pos_site_id
_symmetry_equiv_pos_as_xyz
  1	'x+.5, -y+.5, z'
  2	'-x, -y, -z'
  3	'-x+.5, y+.5, -z'
  4	'x, y, z'
loop_
_atom_type_symbol
_atom_type_oxidation_number
Cl1-	-1
K1+	1
Rh3+	3
loop_
_atom_site_label
_atom_site_type_symbol
_atom_site_symmetry_multiplicity
_atom_site_Wyckoff_symbol
_atom_site_fract_x
_atom_site_fract_y
_atom_site_fract_z
_atom_site_occupancy
_atom_site_attached_hydrogens
_atom_site_B_iso_or_equiv
Rh1 Rh3+ 2 a 0 0 0 1. 0 0.97(3) 
Rh2 Rh3+ 2 b 0.5 0 0.5 1. 0 0.99(3) 
Cl1 Cl1- 4 e 0.1789(2) 0.8697(3) -.0001(2) 1. 0 1.68(6) 
Cl2 Cl1- 4 e -.0054(2) 0.8085(4) 0.1467(2) 1. 0 2.36(7) 
Cl3 Cl1- 4 e 0.1022(2) 0.2063(4) 0.1393(2) 1. 0 2.33(7) 
Cl4 Cl1- 4 e 0.6205(2) -.0004(5) 0.3841(2) 1. 0 2.22(7) 
Cl5 Cl1- 4 e 0.6008(2) 0.7440(4) 0.5954(2) 1. 0 2.15(7) 
Cl6 Cl1- 4 e 0.6362(2) 0.1912(4) 0.6229(2) 1. 0 2.22(7) 
K1 K1+ 4 e 0.3861(2) 0.0652(3) 0.1793(2) 1. 0 2.14(6) 
K2 K1+ 4 e 0.1381(2) 0.0303(4) 0.4007(2) 1. 0 3.24(8) 
K3 K1+ 4 e 0.2356(2) 0.5666(3) 0.1847(2) 1. 0 2.32(7) 

#End of data_73586-ICSD


