data_159955-ICSD
#?2014 by Fachinformationszentrum Karlsruhe, and the U.S. Secretary of 
#Commerce on behalf of the United States.  All rights reserved.
_database_code_ICSD                159955
_audit_creation_date               2008/08/01
_chemical_name_systematic          'Dimagnesium Silicate - Beta'
_chemical_formula_structural       'Mg2 (Si O4)'
_chemical_formula_sum              'Mg2 O4 Si1'
_chemical_name_mineral             Wadsleyite
_publ_section_title
;
Effects of hydration on the structure and compressibility of 
wadsleyite, beta-(Mg2 Si O4)
;
loop_
_citation_id
_citation_journal_abbrev
_citation_year
_citation_journal_volume
_citation_page_first
_citation_page_last
_citation_journal_id_ASTM
primary 'American Mineralogist' 2008 93 598 607 AMMIAY
_publ_author_name
;
Holl, C.M.;Smyth, J.R.;Jacobsen, S.D.;Frost, D.J.
;
_cell_length_a                     5.7008(5)
_cell_length_b                     11.4407(12)
_cell_length_c                     8.2582(7)
_cell_angle_alpha                  90.
_cell_angle_beta                   90.
_cell_angle_gamma                  90.
_cell_volume                       538.61
_cell_formula_units_Z              8
_symmetry_space_group_name_H-M     'I m m a'
_symmetry_Int_Tables_number        74
_refine_ls_R_factor_all            .0268
loop_
_symmetry_equiv_pos_site_id
_symmetry_equiv_pos_as_xyz
  1	'-x, y+.5, -z'
  2	'-x, -y+.5, z'
  3	'-x, y, z'
  4	'-x, -y, -z'
  5	'x, -y+.5, z'
  6	'x, y+.5, -z'
  7	'x, -y, -z'
  8	'x, y, z'
  9	'-x+.5, y, -z+.5'
 10	'-x+.5, -y, z+.5'
 11	'-x+.5, y+.5, z+.5'
 12	'-x+.5, -y+.5, -z+.5'
 13	'x+.5, -y, z+.5'
 14	'x+.5, y, -z+.5'
 15	'x+.5, -y+.5, -z+.5'
 16	'x+.5, y+.5, z+.5'
loop_
_atom_type_symbol
_atom_type_oxidation_number
Mg2+	2
O2-	-2
Si4+	4
loop_
_atom_site_label
_atom_site_type_symbol
_atom_site_symmetry_multiplicity
_atom_site_Wyckoff_symbol
_atom_site_fract_x
_atom_site_fract_y
_atom_site_fract_z
_atom_site_occupancy
_atom_site_attached_hydrogens
_atom_site_U_iso_or_equiv
Mg1 Mg2+ 4 a 0 0 0 1. 0 0.0053(4) 
Mg2 Mg2+ 4 e 0 0.250 0.97088(19) 1. 0 0.0050(4) 
Mg3 Mg2+ 8 g 0.250 0.12750(8) 0.250 1. 0 0.0054(4) 
Si1 Si4+ 8 h 0 0.11990(6) 0.61705(10) 1. 0 0.0037(3) 
O1 O2- 4 e 0 0.250 0.2161(4) 1. 0 0.0048(6) 
O2 O2- 4 e 0 0.250 0.7165(4) 1. 0 0.0051(6) 
O3 O2- 8 h 0 0.98993(16) 0.2554(3) 1. 0 0.0051(5) 
O4 O2- 16 j 0.2617(3) 0.12277(11) 0.99216(19) 1. 0 0.0051(4) 

loop_
_atom_site_aniso_label
_atom_site_aniso_type_symbol
_atom_site_aniso_U_11
_atom_site_aniso_U_22
_atom_site_aniso_U_33
_atom_site_aniso_U_12
_atom_site_aniso_U_13
_atom_site_aniso_U_23
Mg1 Mg2+ 0.0050(8) 0.0024(7) 0.0086(8) 0. 0. -0.0008(5)
Mg2 Mg2+ 0.0057(8) 0.0020(6) 0.0073(8) 0. 0. 0.
Mg3 Mg2+ 0.0045(6) 0.0043(6) 0.0073(7) 0. -0.0012(4) 0.
Si1 Si4+ 0.0035(5) 0.0025(4) 0.0052(5) 0. 0. -0.0002(3)
O1 O2- 0.0040(16) 0.0052(13) 0.0050(15) 0. 0. 0.
O2 O2- 0.0072(16) 0.0019(12) 0.0062(15) 0. 0. 0.
O3 O2- 0.0068(13) 0.0021(9) 0.0065(12) 0. 0. 0.
O4 O2- 0.0048(8) 0.0027(7) 0.0077(9) -0.0004(5) 0.0000(5) -0.0002(5)
#End of data_159955-ICSD


