data_70114-ICSD
#?2014 by Fachinformationszentrum Karlsruhe, and the U.S. Secretary of 
#Commerce on behalf of the United States.  All rights reserved.
_database_code_ICSD                70114
_audit_creation_date               1997/11/10
_chemical_name_systematic
;
Iron Iron(III) Calcium Silicate Hydroxide *
;
_chemical_formula_structural       'Fe Fe Ca2 Si5 O14 (O H)'
_chemical_formula_sum              'H1 Ca2 Fe2 O15 Si5'
_chemical_name_mineral             Babingtonite
_publ_section_title                'The structure of babingtonite'
loop_
_citation_id
_citation_journal_abbrev
_citation_year
_citation_journal_volume
_citation_page_first
_citation_page_last
_citation_journal_id_ASTM
primary Kristallografiya 1975 20 730 739 KRISAJ
2 'Soviet Physics, Crystallography (= Kristallografiya)'
 1975 20 446 451 SPHCA6
_publ_author_name                  'Kosoi, A.L.'
_cell_length_a                     12.18(1)
_cell_length_b                     6.68(1)
_cell_length_c                     7.50(1)
_cell_angle_alpha                  93.98(8)
_cell_angle_beta                   112.32(8)
_cell_angle_gamma                  86.05(8)
_cell_volume                       562.54
_cell_formula_units_Z              2
_symmetry_space_group_name_H-M     'P -1'
_symmetry_Int_Tables_number        2
_refine_ls_R_factor_all            .064
loop_
_symmetry_equiv_pos_site_id
_symmetry_equiv_pos_as_xyz
  1	'-x, -y, -z'
  2	'x, y, z'
loop_
_atom_type_symbol
_atom_type_oxidation_number
Ca2+	2
Fe2+	2
Fe3+	3
H1+	1
O2-	-2
Si4+	4
loop_
_atom_site_label
_atom_site_type_symbol
_atom_site_symmetry_multiplicity
_atom_site_Wyckoff_symbol
_atom_site_fract_x
_atom_site_fract_y
_atom_site_fract_z
_atom_site_occupancy
_atom_site_attached_hydrogens
_atom_site_B_iso_or_equiv
Ca1 Ca2+ 2 i 0.0583(1) 0.1430(2) 0.3395(2) 1. 0 0.86(2) 
Ca2 Ca2+ 2 i 0.4793(1) 0.3037(2) 0.2172(2) 1. 0 0.87(2) 
Fe1 Fe2+ 2 i 0.3562(1) 0.0602(1) 0.4496(2) 1. 0 0.77(1) 
Fe2 Fe3+ 2 i 0.7645(7) 0.1839(1) 0.3117(2) 1. 0 0.69(1) 
Si1 Si4+ 2 i 0.3131(1) 0.5754(2) 0.3524(3) 1. 0 0.55(2) 
Si2 Si4+ 2 i 0.0532(1) 0.6594(2) 0.2657(3) 1. 0 0.59(2) 
Si3 Si4+ 2 i 0.8355(1) 0.8940(2) 0.0081(3) 1. 0 0.66(2) 
Si4 Si4+ 2 i 0.7132(1) 0.6893(2) 0.2265(3) 1. 0 0.56(2) 
Si5 Si4+ 2 i 0.4449(1) 0.7905(2) 0.1384(3) 1. 0 0.51(2) 
O1 O2- 2 i 0.3702(3) 0.6275(6) 0.1911(8) 1. 0 0.85(6) 
O2 O2- 2 i 0.3796(3) 0.3661(6) 0.4299(7) 1. 0 0.71(6) 
O3 O2- 2 i 0.3378(3) 0.7545(6) 0.5207(8) 1. 0 0.73(6) 
O4 O2- 2 i 0.1711(3) 0.5635(6) 0.2390(8) 1. 0 0.82(6) 
O5 O2- 2 i 0.0801(3) 0.8150(6) 0.4509(7) 1. 0 0.79(6) 
O6 O2- 2 i 0.9871(4) 0.4655(7) 0.2889(8) 1. 0 0.89(6) 
O7 O2- 2 i 0.7366(3) 0.7489(6) 0.0339(8) 1. 0 0.90(6) 
O8 O2- 2 i 0.8573(3) 0.0821(6) 0.1618(8) 1. 0 0.76(6) 
O9 O2- 2 i 0.7982(3) 0.9436(6) 0.7895(7) 1. 0 0.88(6) 
O10 O2- 2 i 0.7789(3) 0.4794(6) 0.3017(7) 1. 0 0.68(6) 
O11 O2- 2 i 0.7554(3) 0.8752(6) 0.3837(7) 1. 0 0.62(5) 
O12 O2- 2 i 0.5683(3) 0.6615(6) 0.1429(7) 1. 0 0.56(5) 
O13 O2- 2 i 0.4752(3) 0.9734(6) 0.2973(7) 1. 0 0.74(6) 
O14 O2- 2 i 0.3853(3) 0.8430(6) 0.9175(7) 1. 0 0.84(6) 
O15 O2- 2 i 0.9672(3) 0.7764(6) 0.0698(8) 1. 0 0.82(6) 
H1 H1+ 2 i 0.891(8) 0.463(15) 0.277(16) 1. 0 3.30(18) 

#End of data_70114-ICSD


