data_2373-ICSD
#?2014 by Fachinformationszentrum Karlsruhe, and the U.S. Secretary of 
#Commerce on behalf of the United States.  All rights reserved.
_database_code_ICSD                2373
_audit_creation_date               1980/01/01
_audit_update_record               2005/10/01
_chemical_name_systematic          'Calcium Stannate'
_chemical_formula_structural       'Ca (Sn O3)'
_chemical_formula_sum              'Ca1 O3 Sn1'
_publ_section_title
;
Crystal data for an ilmenite variety of calcium stannate Ca Sn O3
;
loop_
_citation_id
_citation_journal_abbrev
_citation_year
_citation_journal_volume
_citation_page_first
_citation_page_last
_citation_journal_id_ASTM
primary 'Journal of Applied Crystallography' 1978 11 289 290 JACGAR
_publ_author_name                  'Durand, B.;Loiseleur, H.'
_cell_length_a                     6.000(2)
_cell_length_b                     6.000(2)
_cell_length_c                     6.000(2)
_cell_angle_alpha                  54.42(3)
_cell_angle_beta                   54.42(3)
_cell_angle_gamma                  54.42(3)
_cell_volume                       132.86
_cell_formula_units_Z              2
_symmetry_space_group_name_H-M     'R -3 R'
_symmetry_Int_Tables_number        148
_refine_ls_R_factor_all            .092
loop_
_symmetry_equiv_pos_site_id
_symmetry_equiv_pos_as_xyz
  1	'-z, -x, -y'
  2	'-y, -z, -x'
  3	'-x, -y, -z'
  4	'z, x, y'
  5	'y, z, x'
  6	'x, y, z'
loop_
_atom_type_symbol
_atom_type_oxidation_number
Ca2+	2
O2-	-2
Sn4+	4
loop_
_atom_site_label
_atom_site_type_symbol
_atom_site_symmetry_multiplicity
_atom_site_Wyckoff_symbol
_atom_site_fract_x
_atom_site_fract_y
_atom_site_fract_z
_atom_site_occupancy
_atom_site_attached_hydrogens
Sn1 Sn4+ 2 c 0.1553(7) 0.1553(7) 0.1553(7) 1. 0 
Ca1 Ca2+ 2 c 0.367(2) 0.367(2) 0.367(2) 1. 0 
O1 O2- 6 f 0.553(4) -.040(4) 0.200(4) 1. 0 

#End of data_2373-ICSD


