data_92315-ICSD
#?2014 by Fachinformationszentrum Karlsruhe, and the U.S. Secretary of 
#Commerce on behalf of the United States.  All rights reserved.
_database_code_ICSD                92315
_audit_creation_date               2002/10/01
_chemical_name_systematic          'Lithium Pentasodium Nitride'
_chemical_formula_structural       'Li Na5 N2'
_chemical_formula_sum              'Li1 N2 Na5'
_publ_section_title
;
Investigation of the possible ternary nitrides in the system (Li3 
N)/(Na3 N)
;
loop_
_citation_id
_citation_journal_abbrev
_citation_year
_citation_journal_volume
_citation_page_first
_citation_page_last
_citation_journal_id_ASTM
primary 'Solid State Sciences' 2000 2 449 456 SSSCFJ
_publ_author_name
;
Schoen, J.C.;Wevers, M.A.C.;Jansen, M.
;
_cell_length_a                     6.731
_cell_length_b                     5.944
_cell_length_c                     6.383
_cell_angle_alpha                  90.
_cell_angle_beta                   91.18
_cell_angle_gamma                  90.
_cell_volume                       255.32
_cell_formula_units_Z              2
_symmetry_space_group_name_H-M     'C 1 2 1'
_symmetry_Int_Tables_number        5
loop_
_symmetry_equiv_pos_site_id
_symmetry_equiv_pos_as_xyz
  1	'-x, y, -z'
  2	'x, y, z'
  3	'-x+.5, y+.5, -z'
  4	'x+.5, y+.5, z'
loop_
_atom_type_symbol
_atom_type_oxidation_number
Li1+	1
N3-	-3
Na1+	1
loop_
_atom_site_label
_atom_site_type_symbol
_atom_site_symmetry_multiplicity
_atom_site_Wyckoff_symbol
_atom_site_fract_x
_atom_site_fract_y
_atom_site_fract_z
_atom_site_occupancy
_atom_site_attached_hydrogens
N1 N3- 4 c 0.73 0.15 0.237 1. 0 
Na1 Na1+ 4 c 0.715 0.152 0.768 1. 0 
Na2 Na1+ 2 b 0.5 0.416 0.5 1. 0 
Na3 Na1+ 2 b 0.5 0.883 0.5 1. 0 
Na4 Na1+ 2 a 0.5 0.869 0 1. 0 
Li1 Li1+ 2 a 0.5 0.407 0 1. 0 

#End of data_92315-ICSD


