data_2402-ICSD
#?2014 by Fachinformationszentrum Karlsruhe, and the U.S. Secretary of 
#Commerce on behalf of the United States.  All rights reserved.
_database_code_ICSD                2402
_audit_creation_date               1980/01/01
_audit_update_record               2006/04/01
_chemical_name_systematic          'Dipotassium Chromate - Alpha'
_chemical_formula_structural       'K2 (Cr O4)'
_chemical_formula_sum              'Cr1 K2 O4'
_chemical_name_mineral             Tarapacaite
_publ_section_title
;
Electron density distribution in crystals of alpha- K2 Cr O4
;
loop_
_citation_id
_citation_journal_abbrev
_citation_year
_citation_journal_volume
_citation_page_first
_citation_page_last
_citation_journal_id_ASTM
primary 'Acta Crystallographica B (24,1968-38,1982)' 1978 34 3149 3156 ACBCAR
2 'Golden Book of Phase Transitions, Wroclaw' 2002 1 1 123 GBOPT5
_publ_author_name                  'Toriumi, K.;Saito, Y.'
_cell_length_a                     7.662(2)
_cell_length_b                     5.919(1)
_cell_length_c                     10.391(1)
_cell_angle_alpha                  90.
_cell_angle_beta                   90.
_cell_angle_gamma                  90.
_cell_volume                       471.25
_cell_formula_units_Z              4
_symmetry_space_group_name_H-M     'P n m a'
_symmetry_Int_Tables_number        62
_refine_ls_R_factor_all            .0305
loop_
_symmetry_equiv_pos_site_id
_symmetry_equiv_pos_as_xyz
  1	'x+.5, y, -z+.5'
  2	'x, -y+.5, z'
  3	'-x+.5, y+.5, z+.5'
  4	'-x, -y, -z'
  5	'-x+.5, -y, z+.5'
  6	'-x, y+.5, -z'
  7	'x+.5, -y+.5, -z+.5'
  8	'x, y, z'
loop_
_atom_type_symbol
_atom_type_oxidation_number
Cr6+	6
K1+	1
O2-	-2
loop_
_atom_site_label
_atom_site_type_symbol
_atom_site_symmetry_multiplicity
_atom_site_Wyckoff_symbol
_atom_site_fract_x
_atom_site_fract_y
_atom_site_fract_z
_atom_site_occupancy
_atom_site_attached_hydrogens
Cr1 Cr6+ 4 c 0.22911(2) 0.25 0.42061(2) 1. 0 
K1 K1+ 4 c 0.66568(5) 0.25 0.41434(5) 1. 0 
K2 K1+ 4 c -.01099(4) 0.25 0.69989(3) 1. 0 
O1 O2- 4 c 0.01549(18) 0.25 0.42001(25) 1. 0 
O2 O2- 4 c 0.30187(25) 0.25 0.57044(14) 1. 0 
O3 O2- 8 d 0.30294(23) 0.47750(21) 0.34716(16) 1. 0 

loop_
_atom_site_aniso_label
_atom_site_aniso_type_symbol
_atom_site_aniso_U_11
_atom_site_aniso_U_22
_atom_site_aniso_U_33
_atom_site_aniso_U_12
_atom_site_aniso_U_13
_atom_site_aniso_U_23
Cr1 Cr6+ 0.01102(5) 0.01339(5) 0.01256(5) 0 -0.00004(5) 0
K1 K1+ 0.01709(10) 0.02501(13) 0.02890(15) 0 -0.00212(11) 0
K2 K1+ 0.01605(9) 0.02449(12) 0.01699(9) 0 0.00036(7) 0
O1 O2- 0.0116(3) 0.0511(11) 0.0360(7) 0 -0.0029(5) 0
O2 O2- 0.02535 0.0416(8) 0.0165(4) 0 -0.0072(4) 0
O3 O2- 0.0369(5) 0.0210(3) 0.0350(5) 0.0031(4) 0.0099(4) -0.0097(4)
#End of data_2402-ICSD


