data_61086-ICSD
#?2014 by Fachinformationszentrum Karlsruhe, and the U.S. Secretary of 
#Commerce on behalf of the United States.  All rights reserved.
_database_code_ICSD                61086
_audit_creation_date               1986/12/03
_audit_update_record               1986/12/13
_chemical_name_systematic          'Dirubidium Dilithium Silicate'
_chemical_formula_structural       'Rb2 Li2 Si O4'
_chemical_formula_sum              'Li2 O4 Rb2 Si1'
_publ_section_title
;
Neue Oxide des Formeltyps A2 (T3 O4): Rb2 Li2 Si O4 und Rb2 Li2 Ge O4
;
loop_
_citation_id
_citation_journal_abbrev
_citation_year
_citation_journal_volume
_citation_page_first
_citation_page_last
_citation_journal_id_ASTM
primary
;
Zeitschrift fuer Naturforschung, Teil B. Anorganische Chemie, 
Organische Chemie (33,1978-41,1986)
;
 1985 40 1441 1452 ZNBAD2
_publ_author_name                  'Hofmann, R.;Nowitzki, B.;Hoppe, R.'
_cell_length_a                     8.9792(11)
_cell_length_b                     5.6473(5)
_cell_length_c                     5.4699(6)
_cell_angle_alpha                  93.95(10)
_cell_angle_beta                   111.24(9)
_cell_angle_gamma                  93.75(10)
_cell_volume                       256.69
_cell_formula_units_Z              2
_symmetry_space_group_name_H-M     'P -1'
_symmetry_Int_Tables_number        2
_refine_ls_R_factor_all            .0837
loop_
_symmetry_equiv_pos_site_id
_symmetry_equiv_pos_as_xyz
  1	'-x, -y, -z'
  2	'x, y, z'
loop_
_atom_type_symbol
_atom_type_oxidation_number
Li1+	1
O2-	-2
Rb1+	1
Si4+	4
loop_
_atom_site_label
_atom_site_type_symbol
_atom_site_symmetry_multiplicity
_atom_site_Wyckoff_symbol
_atom_site_fract_x
_atom_site_fract_y
_atom_site_fract_z
_atom_site_occupancy
_atom_site_attached_hydrogens
Si1 Si4+ 2 i 0.2781(3) 0.3128(3) 0.4262(5) 1. 0 
Rb1 Rb1+ 2 i 0.2637(1) 0.8477(1) 0.7921(2) 1. 0 
Rb2 Rb1+ 2 i 0.0203(1) 0.2740(1) 0.8119(2) 1. 0 
Li1 Li1+ 2 i 0.5748(12) 0.5914(13) 0.8693(15) 1. 0 
Li2 Li1+ 2 i 0.5641(13) 0.1862(13) 0.6316(15) 1. 0 
O1 O2- 2 i 0.3843(7) 0.3565(8) 0.7475(10) 1. 0 
O2 O2- 2 i 0.2807(7) 0.5589(8) 0.2838(10) 1. 0 
O3 O2- 2 i 0.3789(7) 0.1339(8) 0.3053(10) 1. 0 
O4 O2- 2 i 0.0960(7) 0.2076(8) 0.3692(10) 1. 0 

loop_
_atom_site_aniso_label
_atom_site_aniso_type_symbol
_atom_site_aniso_U_11
_atom_site_aniso_U_22
_atom_site_aniso_U_33
_atom_site_aniso_U_12
_atom_site_aniso_U_13
_atom_site_aniso_U_23
Si1 Si4+ 0.0212(9) 0.0090(7) 0.0146(9) 0.0024(7) 0.0099(8) 0.0032(7)
Rb1 Rb1+ 0.0397(5) 0.0174(4) 0.0249(5) 0.0072(3) 0.0136(4) 0.0019(3)
Rb2 Rb1+ 0.0308(5) 0.0199(4) 0.0199(4) 0.0072(3) 0.0129(4) -.0002(3)
Li1 Li1+ 0.0270(16) 0.0080(15) 0.0492(16) 0.0077(15) 0.0260(15) 0.0037(15)
Li2 Li1+ 0.0516(16) 0.0017(15) 0.0350(16) -.0014(15) 0.0194(16) 0.0043(15)
O1 O2- 0.0274(14) 0.0148(13) 0.0204(14) 0.0005(13) 0.0118(13) 0.0003(13)
O2 O2- 0.0225(14) 0.0102(13) 0.0288(14) 0.0059(12) 0.0166(13) 0.0065(12)
O3 O2- 0.0326(14) 0.0095(13) 0.0195(14) 0.0073(12) 0.0145(13) 0.0022(12)
O4 O2- 0.0194(14) 0.0208(14) 0.0269(14) -.0035(13) 0.0175(12) -.0002(13)
#End of data_61086-ICSD


