data_290259-ICSD
#?2014 by Fachinformationszentrum Karlsruhe, and the U.S. Secretary of 
#Commerce on behalf of the United States.  All rights reserved.
_database_code_ICSD                290259
_audit_creation_date               2013/08/01
_chemical_name_systematic          'Calcium Iron Hexaoxodigermanate'
_chemical_formula_structural       'Ca Fe Ge2 O6'
_chemical_formula_sum              'Ca1 Fe1 Ge2 O6'
_publ_section_title
;
Crystal and magnetic spin structure of Germanium-Hedenbergite, Ca Fe 
Ge2 O6, and a comparison with other 
magnetic/magnetoelectric/multiferroic pyroxenes
;
loop_
_citation_id
_citation_journal_abbrev
_citation_year
_citation_journal_volume
_citation_journal_issue
_citation_page_first
_citation_page_last
_citation_journal_id_ASTM
primary 'Zeitschrift fuer Kristallographie - Crystalline Materials'
 2013 228 3 134 139 ZKCMAJ
_publ_author_name
;
Redhammer, G.J.;Roth, G.;Senyshyn, A.;Tippelt, G.;Pietzonka, C.
;
_cell_length_a                     10.1787(3)
_cell_length_b                     9.0549(3)
_cell_length_c                     5.4322(1)
_cell_angle_alpha                  90
_cell_angle_beta                   104.265(1)
_cell_angle_gamma                  90
_cell_volume                       485.23
_cell_formula_units_Z              4
_symmetry_space_group_name_H-M     'C 1 2/c 1'
_symmetry_Int_Tables_number        15
_refine_ls_R_factor_all            .0727
loop_
_symmetry_equiv_pos_site_id
_symmetry_equiv_pos_as_xyz
  1	'x, -y, z+.5'
  2	'-x, -y, -z'
  3	'-x, y, -z+.5'
  4	'x, y, z'
  5	'x+.5, -y+.5, z+.5'
  6	'-x+.5, -y+.5, -z'
  7	'-x+.5, y+.5, -z+.5'
  8	'x+.5, y+.5, z'
loop_
_atom_type_symbol
_atom_type_oxidation_number
Ca2+	2
Fe2+	2
Ge4+	4
O2-	-2
loop_
_atom_site_label
_atom_site_type_symbol
_atom_site_symmetry_multiplicity
_atom_site_Wyckoff_symbol
_atom_site_fract_x
_atom_site_fract_y
_atom_site_fract_z
_atom_site_occupancy
_atom_site_attached_hydrogens
_atom_site_B_iso_or_equiv
Ca1 Ca2+ 4 e 0 0.3028(4) 0.25 1. 0 0.80(7) 
Fe1 Fe2+ 4 e 0 0.9105(2) 0.25 1. 0 0.55(3) 
Ge1 Ge4+ 8 f 0.2856(1) 0.0976(2) 0.2283(2) 1. 0 0.46(7) 
O1 O2- 8 f 0.1124(2) 0.0930(3) 0.1419(3) 1. 0 0.51(3) 
O2 O2- 8 f 0.3655(2) 0.2584(2) 0.3434(4) 1. 0 0.99(4) 
O3 O2- 8 f 0.3572(2) 0.0304(2) 0.9801(4) 1. 0 0.82(4) 

#End of data_290259-ICSD


