data_422148-ICSD
#?2014 by Fachinformationszentrum Karlsruhe, and the U.S. Secretary of 
#Commerce on behalf of the United States.  All rights reserved.
_database_code_ICSD                422148
_audit_creation_date               2011/08/01
_chemical_name_systematic
;
Nonarubidium Tetraoxoaluminate Tetrahydroxide
;
_chemical_formula_structural       'Rb9 (Al O4) (O H)4'
_chemical_formula_sum              'H4 Al1 O8 Rb9'
_publ_section_title
;
Crystal structures of new alkali metal-rich oxometallates: Rubidium 
aluminate tetrahydroxide, Rb9 (Al O4) (O H)4, rubidium orthogallate, 
Rb5 Ga O4, cesium bis-chromate(IV) oxide, Cs10 (Cr O4)2 O, and cesium 
diindate, Cs8 In2 O7
;
loop_
_citation_id
_citation_journal_abbrev
_citation_year
_citation_journal_volume
_citation_journal_issue
_citation_page_first
_citation_page_last
_citation_journal_id_ASTM
primary 'Zeitschrift fuer Naturforschung, B: Chemical Sciences'
 2010 65 12 1416 1426 ZNBSEN
_publ_author_name                  'Bender, J.;Wohlfart, A.;Hoch, C.'
_cell_length_a                     13.1162(12)
_cell_length_b                     6.9266(5)
_cell_length_c                     18.934(2)
_cell_angle_alpha                  90.00
_cell_angle_beta                   92.053(12)
_cell_angle_gamma                  90.00
_cell_volume                       1719.06
_cell_formula_units_Z              4
_symmetry_space_group_name_H-M     'P 1 21/c 1'
_symmetry_Int_Tables_number        14
_refine_ls_R_factor_all            .0352
loop_
_symmetry_equiv_pos_site_id
_symmetry_equiv_pos_as_xyz
  1	'x, -y+.5, z+.5'
  2	'-x, -y, -z'
  3	'-x, y+.5, -z+.5'
  4	'x, y, z'
loop_
_atom_type_symbol
_atom_type_oxidation_number
Al3+	3
H1+	1
O2-	-2
Rb1+	1
loop_
_atom_site_label
_atom_site_type_symbol
_atom_site_symmetry_multiplicity
_atom_site_Wyckoff_symbol
_atom_site_fract_x
_atom_site_fract_y
_atom_site_fract_z
_atom_site_occupancy
_atom_site_attached_hydrogens
_atom_site_U_iso_or_equiv
Rb1 Rb1+ 4 e 0.03088(4) 0.25288(10) 0.49187(4) 1 0 0.02715(17) 
Rb2 Rb1+ 4 e 0.05777(5) 0.35967(12) 0.31663(5) 1 0 0.03442(19) 
Rb3 Rb1+ 4 e 0.23342(5) 0.69600(11) 0.19482(4) 1 0 0.02735(17) 
Rb4 Rb1+ 4 e 0.25204(5) 0.60551(10) 0.01054(4) 1 0 0.02364(15) 
Rb5 Rb1+ 4 e 0.27747(6) 0.11298(12) 0.08101(4) 1 0 0.03537(18) 
Rb6 Rb1+ 4 e 0.33055(6) 0.21252(12) 0.28015(5) 1 0 0.0385(2) 
Rb7 Rb1+ 4 e 0.47438(5) 0.25035(11) 0.46714(5) 1 0 0.03431(19) 
Rb8 Rb1+ 4 e 0.56253(5) 0.20876(11) 0.16159(4) 1 0 0.02907(17) 
Rb9 Rb1+ 4 e 0.86474(5) 0.38656(11) 0.14641(4) 1 0 0.02833(17) 
Al1 Al3+ 4 e 0.24674(12) 0.4776(3) 0.41590(10) 1 0 0.0142(4) 
O1 O2- 4 e 0.1359(3) 0.5763(7) 0.4541(3) 1 0 0.0241(11) 
O2 O2- 4 e 0.2435(4) 0.2183(7) 0.4203(3) 1 0 0.0276(11) 
O3 O2- 4 e 0.2456(3) 0.5517(7) 0.3242(3) 1 0 0.0214(10) 
O4 O2- 4 e 0.6432(3) 0.0717(7) 0.0386(3) 1 0 0.0198(10) 
O5 O2- 4 e 0.0710(4) 0.5136(10) 0.1142(3) 1 0 0.0396(15) 
H1 H1+ 4 e 0.134(15) 0.46(6) 0.10(2) 1 0 0.40(12) 
O6 O2- 4 e 0.1352(4) 0.0665(9) 0.2119(3) 1 0 0.0360(14) 
H2 H1+ 4 e 0.15(3) 0.11(6) 0.258(10) 1 0 0.40(12) 
O7 O2- 4 e 0.3931(4) 0.4554(10) 0.1133(4) 1 0 0.0431(16) 
H3 H1+ 4 e 0.36(3) 0.49(6) 0.068(10) 1 0 0.40(12) 
O8 O2- 4 e 0.5738(5) 0.4032(10) 0.3067(4) 1 0 0.0486(16) 
H4 H1+ 4 e 0.52(2) 0.35(6) 0.274(17) 1 0 0.40(12) 

loop_
_atom_site_aniso_label
_atom_site_aniso_type_symbol
_atom_site_aniso_U_11
_atom_site_aniso_U_22
_atom_site_aniso_U_33
_atom_site_aniso_U_12
_atom_site_aniso_U_13
_atom_site_aniso_U_23
Rb1 Rb1+ 0.0244(3) 0.0189(4) 0.0389(4) 0.0001(2) 0.0107(3) 0.0013(3)
Rb2 Rb1+ 0.0257(3) 0.0319(5) 0.0449(5) -0.0037(3) -0.0089(3) -0.0002(4)
Rb3 Rb1+ 0.0309(3) 0.0322(4) 0.0189(3) -0.0020(3) -0.0002(2) 0.0025(3)
Rb4 Rb1+ 0.0281(3) 0.0184(4) 0.0241(3) -0.0001(2) -0.0020(2) 0.0025(3)
Rb5 Rb1+ 0.0474(4) 0.0329(5) 0.0264(4) -0.0057(3) 0.0090(3) -0.0033(3)
Rb6 Rb1+ 0.0413(4) 0.0323(5) 0.0422(5) 0.0055(3) 0.0079(3) -0.0139(4)
Rb7 Rb1+ 0.0262(3) 0.0264(4) 0.0497(5) 0.0073(3) -0.0069(3) -0.0106(4)
Rb8 Rb1+ 0.0221(3) 0.0351(4) 0.0300(4) 0.0083(3) 0.0024(3) -0.0038(3)
Rb9 Rb1+ 0.0356(3) 0.0237(4) 0.0257(4) -0.0089(3) 0.0012(3) -0.0026(3)
Al1 Al3+ 0.0120(8) 0.0164(11) 0.0143(10) 0.0001(7) 0.0009(7) -0.0008(8)
O1 O2- 0.021(2) 0.026(3) 0.026(3) -0.0009(18) 0.0089(19) 0.000(2)
O2 O2- 0.033(2) 0.015(3) 0.035(3) 0.0005(19) 0.003(2) -0.001(2)
O3 O2- 0.020(2) 0.026(3) 0.018(3) -0.0011(18) -0.0010(18) 0.000(2)
O4 O2- 0.019(2) 0.021(3) 0.020(3) -0.0009(17) 0.0002(18) 0.004(2)
O5 O2- 0.021(2) 0.026(3) 0.026(3) -0.0009(18) 0.0089(19) 0.000(2)
O6 O2- 0.035(3) 0.035(4) 0.038(3) -0.001(2) 0.000(2) 0.000(3)
O7 O2- 0.042(3) 0.035(4) 0.051(4) 0.006(2) -0.007(3) 0.006(3)
O8 O2- 0.050(3) 0.043(4) 0.053(4) 0.013(3) 0.009(3) -0.004(3)
#End of data_422148-ICSD


