data_69429-ICSD
#?2014 by Fachinformationszentrum Karlsruhe, and the U.S. Secretary of 
#Commerce on behalf of the United States.  All rights reserved.
_database_code_ICSD                69429
_audit_creation_date               1992/08/20
_audit_update_record               2003/04/01
_chemical_name_systematic          'Potassium Oxoantimony(V) Silicate'
_chemical_formula_structural       'K (Sb O) (Si O4)'
_chemical_formula_sum              'K1 O5 Sb1 Si1'
_publ_section_title
;
K Sb O Si O4: a new isomorphous derivative of K Ti O P O4
;
loop_
_citation_id
_citation_journal_abbrev
_citation_year
_citation_journal_volume
_citation_page_first
_citation_page_last
_citation_journal_id_ASTM
primary 'European Journal of Solid State Inorganic Chemistry'
 1990 27 845 854 EJSCE5
2 'Phase Transition' 1992 38 127 220 PHTRDP
_publ_author_name
;
Crosnier, M.P.;Guyomard, D.;Verbaere, A.;Piffard, Y.
;
_cell_length_a                     13.005(1)
_cell_length_b                     6.4748(6)
_cell_length_c                     10.614(1)
_cell_angle_alpha                  90.
_cell_angle_beta                   90.
_cell_angle_gamma                  90.
_cell_volume                       893.75
_cell_formula_units_Z              8
_symmetry_space_group_name_H-M     'P n a 21'
_symmetry_Int_Tables_number        33
_refine_ls_R_factor_all            .026
loop_
_symmetry_equiv_pos_site_id
_symmetry_equiv_pos_as_xyz
  1	'x+.5, -y+.5, z'
  2	'-x+.5, y+.5, z+.5'
  3	'-x, -y, z+.5'
  4	'x, y, z'
loop_
_atom_type_symbol
_atom_type_oxidation_number
K1+	1
O2-	-2
Sb5+	5
Si4+	4
loop_
_atom_site_label
_atom_site_type_symbol
_atom_site_symmetry_multiplicity
_atom_site_Wyckoff_symbol
_atom_site_fract_x
_atom_site_fract_y
_atom_site_fract_z
_atom_site_occupancy
_atom_site_attached_hydrogens
_atom_site_B_iso_or_equiv
Sb1 Sb5+ 4 a 0.38119(1) 0.5002(2) 0 1. 0 0 
Sb2 Sb5+ 4 a 0.24768(7) 0.2526(2) 0.2488(2) 1. 0 0 
Si1 Si4+ 4 a 0.4998(4) 0.3271(3) 0.2488(8) 1. 0 0 
Si2 Si4+ 4 a 0.1815(1) 0.5039(9) 0.4994(7) 1. 0 0 
K1 K1+ 4 a 0.3816(2) 0.7766(4) 0.3107(2) 1. 0 0 
K2 K1+ 4 a 0.1073(2) 0.6962(4) 0.0656(3) 1. 0 0 
O1 O2- 4 a 0.4846(5) 0.491(1) 0.1344(6) 1. 0 0.97(9) 
O2 O2- 4 a 0.5082(4) 0.4661(8) 0.3765(5) 1. 0 0.35(8) 
O3 O2- 4 a 0.3966(4) 0.1834(9) 0.2677(5) 1. 0 0.49(8) 
O4 O2- 4 a 0.5993(5) 0.194(1) 0.2318(6) 1. 0 1.0(1) 
O5 O2- 4 a 0.1112(5) 0.303(1) 0.5314(5) 1. 0 0.9(1) 
O6 O2- 4 a 0.1077(5) 0.6979(9) 0.4723(5) 1. 0 0.63(9) 
O7 O2- 4 a 0.2558(5) 0.5380(9) 0.6188(5) 1. 0 0.68(9) 
O8 O2- 4 a 0.2626(5) 0.452(1) 0.3849(6) 1. 0 0.8(1) 
O9 O2- 4 a 0.2229(4) 0.980(1) 0.6322(5) 1. 0 0.39(8) 
O10 O2- 4 a 0.2286(4) 0.0390(9) 0.3777(5) 1. 0 0.45(9) 

loop_
_atom_site_aniso_label
_atom_site_aniso_type_symbol
_atom_site_aniso_U_11
_atom_site_aniso_U_22
_atom_site_aniso_U_33
_atom_site_aniso_U_12
_atom_site_aniso_U_13
_atom_site_aniso_U_23
Sb1 Sb5+ 0.0057(1) 0.0069(1) 0.0043(1) 0.0005(8) 0.0007(5) 0.0008(2)
Sb2 Sb5+ 0.0057(1) 0.0074(1) 0.0044(1) -0.0004(2) 0.0003(2) -0.0002(2)
Si1 Si4+ 0.0060(6) 0.0086(6) 0.0063(6) -0.002(2) -0.0001(7) -0.002(3)
Si2 Si4+ 0.0081(6) 0.0060(6) 0.0062(6) 0.000(2) 0.005(2) -0.0001(8)
K1 K1+ 0.024(1) 0.015(1) 0.032(1) 0.0064(9) 0.0068(9) 0.0049(9)
K2 K1+ 0.0138(9) 0.024(1) 0.036(1) 0.0060(9) 0.0001(9) 0.003(1)
#End of data_69429-ICSD


