data_16689-ICSD
#?2014 by Fachinformationszentrum Karlsruhe, and the U.S. Secretary of 
#Commerce on behalf of the United States.  All rights reserved.
_database_code_ICSD                16689
_audit_creation_date               1980/01/01
_audit_update_record               2012/02/01
_chemical_name_systematic          'Lithium Trivanadium Oxide'
_chemical_formula_structural       'Li V3 O8'
_chemical_formula_sum              'Li1 O8 V3'
_publ_section_title
;
Crystal chemistry of non-stoichiometric pentavalent vanadium O 
crystal structure of Li(1+X) V3 O8
;
loop_
_citation_id
_citation_journal_abbrev
_citation_year
_citation_journal_volume
_citation_page_first
_citation_page_last
_citation_journal_id_ASTM
primary 'Acta Crystallographica (1,1948-23,1967)' 1957 10 261 267 ACCRA9
_publ_author_name                  'Wadsley, A.D.'
_cell_length_a                     6.68(2)
_cell_length_b                     3.60(1)
_cell_length_c                     12.03(2)
_cell_angle_alpha                  90.
_cell_angle_beta                   107.83
_cell_angle_gamma                  90.
_cell_volume                       275.4
_cell_formula_units_Z              2
_symmetry_space_group_name_H-M     'P 1 21/m 1'
_symmetry_Int_Tables_number        11
_refine_ls_R_factor_all            .12
loop_
_symmetry_equiv_pos_site_id
_symmetry_equiv_pos_as_xyz
  1	'x, -y+.5, z'
  2	'-x, -y, -z'
  3	'-x, y+.5, -z'
  4	'x, y, z'
loop_
_atom_type_symbol
_atom_type_oxidation_number
Li1+	1
O2-	-2
V5+	5
loop_
_atom_site_label
_atom_site_type_symbol
_atom_site_symmetry_multiplicity
_atom_site_Wyckoff_symbol
_atom_site_fract_x
_atom_site_fract_y
_atom_site_fract_z
_atom_site_occupancy
_atom_site_attached_hydrogens
Li1 Li1+ 2 e 0.494 0.25 0.69 1. 0 
V1 V5+ 2 e 0.839(2) 0.25 0.536 1. 0 
V2 V5+ 2 e 0.204(2) 0.25 0.077(8) 1. 0 
V3 V5+ 2 e 0.069(4) 0.25 0.802(2) 1. 0 
O1 O2- 2 e 0.075 0.25 0.458 1. 0 
O2 O2- 2 e 0.879 0.25 0.928 1. 0 
O3 O2- 2 e 0.796 0.25 0.675 1. 0 
O4 O2- 2 e 0.422 0.25 0.188 1. 0 
O5 O2- 2 e 0.616 0.25 0.438 1. 0 
O6 O2- 2 e 0.286 0.25 0.956 1. 0 
O7 O2- 2 e 0.225 0.25 0.725 1. 0 
O8 O2- 2 e 0.992 0.25 0.175 1. 0 

#End of data_16689-ICSD


