data_9681-ICSD
#?2014 by Fachinformationszentrum Karlsruhe, and the U.S. Secretary of 
#Commerce on behalf of the United States.  All rights reserved.
_database_code_ICSD                9681
_audit_creation_date               1980/01/01
_chemical_name_systematic          'Sodium Indium Molybdate'
_chemical_formula_structural       'Na In (Mo O4)2'
_chemical_formula_sum              'In1 Mo2 Na1 O8'
_publ_section_title
;
Preparation of Crystals, Thermal Stability, and Structure of Sodium 
Indium Molybdate Na In (Mo O4)2
;
loop_
_citation_id
_citation_journal_abbrev
_citation_year
_citation_journal_volume
_citation_page_first
_citation_page_last
_citation_journal_id_ASTM
primary Kristallografiya 1972 17 955 959 KRISAJ
2 'Soviet Physics, Crystallography (= Kristallografiya)'
 1972 17 843 846 SPHCA6
_publ_author_name                  'Klevtsova, R.F.;Klevtsov, P.V.'
_cell_length_a                     7.18
_cell_length_b                     7.18
_cell_length_c                     14.9
_cell_angle_alpha                  92.
_cell_angle_beta                   88.
_cell_angle_gamma                  82.
_cell_volume                       759.58
_cell_formula_units_Z              4
_symmetry_space_group_name_H-M     'P -1'
_symmetry_Int_Tables_number        2
_refine_ls_R_factor_all            .103
loop_
_symmetry_equiv_pos_site_id
_symmetry_equiv_pos_as_xyz
  1	'-x, -y, -z'
  2	'x, y, z'
loop_
_atom_type_symbol
_atom_type_oxidation_number
In3+	3
Mo6+	6
Na1+	1
O2-	-2
loop_
_atom_site_label
_atom_site_type_symbol
_atom_site_symmetry_multiplicity
_atom_site_Wyckoff_symbol
_atom_site_fract_x
_atom_site_fract_y
_atom_site_fract_z
_atom_site_occupancy
_atom_site_attached_hydrogens
_atom_site_B_iso_or_equiv
Na1 Na1+ 2 i 0.036(5) 0.303(6) 0.3808(20) 1. 0 2.8 
Na2 Na1+ 2 i 0.512(5) 0.321(6) 0.1254(20) 1. 0 2.9 
In1 In3+ 2 i 0.1856(6) 0.7199(8) 0.0865(2) 1. 0 0.49 
In2 In3+ 2 i 0.6758(6) 0.6967(8) 0.3893(2) 1. 0 0.49 
Mo1 Mo6+ 2 i 0.1574(7) 0.7771(9) 0.3494(3) 1. 0 0.74 
Mo2 Mo6+ 2 i 0.0443(8) 0.2473(9) 0.1165(3) 1. 0 0.84 
Mo3 Mo6+ 2 i 0.5296(7) 0.2357(10) 0.3825(3) 1. 0 0.63 
Mo4 Mo6+ 2 i 0.6622(8) 0.7741(10) 0.1385(3) 1. 0 0.74 
O1 O2- 2 i 0.180(6) 0.026(8) 0.0806(25) 1. 0 1.6 
O2 O2- 2 i 0.198(5) 0.415(7) 0.1002(22) 1. 0 0.8 
O3 O2- 2 i -.165(7) 0.312(8) 0.0584(26) 1. 0 1.6 
O4 O2- 2 i -.014(7) 0.236(8) 0.2228(27) 1. 0 1.9 
O5 O2- 2 i 0.174(7) 0.751(9) 0.2366(27) 1. 0 2.2 
O6 O2- 2 i 0.377(5) 0.672(7) 0.3893(22) 1. 0 0.6 
O7 O2- 2 i -.005(7) 0.655(9) 0.3880(28) 1. 0 1.7 
O8 O2- 2 i 0.085(8) -.026(10) 0.3890(33) 1. 0 3.3 
O9 O2- 2 i 0.408(6) 0.294(8) 0.2827(25) 1. 0 1.3 
O10 O2- 2 i 0.652(6) -.015(9) 0.3827(26) 1. 0 1.8 
O11 O2- 2 i 0.702(5) 0.388(7) 0.4002(21) 1. 0 0.2 
O12 O2- 2 i 0.339(6) 0.291(5) 0.4660(22) 1. 0 1.1 
O13 O2- 2 i 0.680(6) 0.667(8) 0.2431(23) 1. 0 0.9 
O14 O2- 2 i 0.889(5) 0.721(6) 0.0766(20) 1. 0 0.1 
O15 O2- 2 i 0.494(6) 0.681(8) 0.0745(26) 1. 0 1.4 
O16 O2- 2 i 0.605(8) -.01(1) 0.1585(33) 1. 0 3.8 

#End of data_9681-ICSD


