data_171458-ICSD
#?2014 by Fachinformationszentrum Karlsruhe, and the U.S. Secretary of 
#Commerce on behalf of the United States.  All rights reserved.
_database_code_ICSD                171458
_audit_creation_date               2006/10/01
_chemical_name_systematic          'Disodium Oxalate'
_chemical_formula_structural       'Na2 C2 O4'
_chemical_formula_sum              'C2 Na2 O4'
_publ_section_title
;
Effect of hydrostatic pressure on the crystal structure of sodium 
oxalate: x-ray diffraction study and ab initio simulations
;
loop_
_citation_id
_citation_journal_abbrev
_citation_year
_citation_journal_volume
_citation_page_first
_citation_page_last
_citation_journal_id_ASTM
primary 'Zeitschrift fuer Kristallographie (1979-2010)' 2006 221 186 197 ZEKRDZ
_publ_author_name
;
Boldyreva, E.V.;Ahsbahs, H.;Chernyshev, V.V.;Ivashevskaya, 
S.N.;Oganov, A.R.
;
_cell_length_a                     3.482(1)
_cell_length_b                     5.262(1)
_cell_length_c                     10.432(2)
_cell_angle_alpha                  90
_cell_angle_beta                   93.08(2)
_cell_angle_gamma                  90
_cell_volume                       190.86
_cell_formula_units_Z              2
_symmetry_space_group_name_H-M     'P 1 21/c 1'
_symmetry_Int_Tables_number        14
loop_
_symmetry_equiv_pos_site_id
_symmetry_equiv_pos_as_xyz
  1	'x, -y+.5, z+.5'
  2	'-x, -y, -z'
  3	'-x, y+.5, -z+.5'
  4	'x, y, z'
loop_
_atom_type_symbol
_atom_type_oxidation_number
C3+	3
Na1+	1
O2-	-2
loop_
_atom_site_label
_atom_site_type_symbol
_atom_site_symmetry_multiplicity
_atom_site_Wyckoff_symbol
_atom_site_fract_x
_atom_site_fract_y
_atom_site_fract_z
_atom_site_occupancy
_atom_site_attached_hydrogens
Na1 Na1+ 4 e 0.309(2) 0.058(1) 0.356(1) 1. 0 
O1 O2- 4 e 0.159(4) -0.127(2) 0.159(2) 1. 0 
O2 O2- 4 e 0.230(4) 0.276(3) 0.070(1) 1. 0 
C1 C3+ 4 e 0.101(7) 0.037(5) 0.063(2) 1. 0 

#End of data_171458-ICSD


