data_108936-ICSD
#?2014 by Fachinformationszentrum Karlsruhe, and the U.S. Secretary of 
#Commerce on behalf of the United States.  All rights reserved.
_database_code_ICSD                108936
_audit_creation_date               2007/04/01
_audit_update_record               2014/08/01
_chemical_name_systematic          'Tripotassium Vanadate - Gamma'
_chemical_formula_structural       'K3 (V O4)'
_chemical_formula_sum              'K3 O4 V1'
_publ_section_title
;
Preparation, proprietes cristallographiques et magnetiques des phases 
K3 X O4 (X= V, Cr, Mn)
;
loop_
_citation_id
_citation_journal_abbrev
_citation_year
_citation_journal_volume
_citation_page_first
_citation_page_last
_citation_journal_id_ASTM
primary 'Zeitschrift fuer Anorganische und Allgemeine Chemie (1950) (DE)'
 1975 412 271 280 ZAACAB
_publ_author_name
;
Olazcuaga, R.;Reau, J.M.;le Flem, G.;Hagenmuller, P.
;
_cell_length_a                     8.304(2)
_cell_length_b                     8.304(2)
_cell_length_c                     8.304(2)
_cell_angle_alpha                  90.
_cell_angle_beta                   90.
_cell_angle_gamma                  90.
_cell_volume                       572.61
_cell_formula_units_Z              4
_symmetry_space_group_name_H-M     'P 21 3'
_symmetry_Int_Tables_number        198
loop_
_symmetry_equiv_pos_site_id
_symmetry_equiv_pos_as_xyz
  1	'-z+.5, -x, y+.5'
  2	'-y+.5, -z, x+.5'
  3	'-x+.5, -y, z+.5'
  4	'-z, x+.5, -y+.5'
  5	'-y, z+.5, -x+.5'
  6	'-x, y+.5, -z+.5'
  7	'z+.5, -x+.5, -y'
  8	'y+.5, -z+.5, -x'
  9	'x+.5, -y+.5, -z'
 10	'z, x, y'
 11	'y, z, x'
 12	'x, y, z'
loop_
_atom_type_symbol
_atom_type_oxidation_number
K1+	1
O2-	-2
V5+	5
loop_
_atom_site_label
_atom_site_type_symbol
_atom_site_symmetry_multiplicity
_atom_site_Wyckoff_symbol
_atom_site_fract_x
_atom_site_fract_y
_atom_site_fract_z
_atom_site_occupancy
_atom_site_attached_hydrogens
K1 K1+ 4 a 0.5 0.5 0.5 1. 0 
K2 K1+ 4 a 0.75 0.75 0.75 1. 0 
K3 K1+ 4 a 0.99 0.99 0.99 1. 0 
V1 V5+ 4 a 0.25 0.25 0.25 1. 0 
O1 O2- 4 a 0.13 0.13 0.13 1. 0 
O2 O2- 12 b 0.56 0.67 0.22 1. 0 

#End of data_108936-ICSD


