data_200695-ICSD
#?2014 by Fachinformationszentrum Karlsruhe, and the U.S. Secretary of 
#Commerce on behalf of the United States.  All rights reserved.
_database_code_ICSD                200695
_audit_creation_date               1980/12/31
_chemical_name_systematic
;
Potassium Bis(carbonato)cuprate(II)
;
_chemical_formula_structural       'K2 Cu (C O3)2'
_chemical_formula_sum              'C2 Cu1 K2 O6'
_publ_section_title
;
Crystal structure of the ferromagnetic polymer potassium 
bis(carbonato)cuprate(II)
;
loop_
_citation_id
_citation_journal_abbrev
_citation_year
_citation_journal_volume
_citation_page_first
_citation_page_last
_citation_journal_id_ASTM
primary 'Australian Journal of Chemistry' 1980 33 431 434 AJCHAS
_publ_author_name
;
Farrand, A.;Gregson, A.K.;Skelton, B.W.;White, A.H.
;
_cell_length_a                     11.425(3)
_cell_length_b                     17.658(4)
_cell_length_c                     6.154(2)
_cell_angle_alpha                  90.
_cell_angle_beta                   90.
_cell_angle_gamma                  90.
_cell_volume                       1241.52
_cell_formula_units_Z              8
_symmetry_space_group_name_H-M     'F d d 2'
_symmetry_Int_Tables_number        43
_refine_ls_R_factor_all            .027
loop_
_symmetry_equiv_pos_site_id
_symmetry_equiv_pos_as_xyz
  1	'x+.25, -y+.25, z+.25'
  2	'-x+.25, y+.25, z+.25'
  3	'-x, -y, z'
  4	'x, y, z'
  5	'x+.25, -y+.75, z+.75'
  6	'x+.75, -y+.25, z+.75'
  7	'x+.75, -y+.75, z+.25'
  8	'-x+.25, y+.75, z+.75'
  9	'-x+.75, y+.25, z+.75'
 10	'-x+.75, y+.75, z+.25'
 11	'-x, -y+.5, z+.5'
 12	'-x+.5, -y, z+.5'
 13	'-x+.5, -y+.5, z'
 14	'x, y+.5, z+.5'
 15	'x+.5, y, z+.5'
 16	'x+.5, y+.5, z'
loop_
_atom_type_symbol
_atom_type_oxidation_number
C4+	4
Cu2+	2
K1+	1
O2-	-2
loop_
_atom_site_label
_atom_site_type_symbol
_atom_site_symmetry_multiplicity
_atom_site_Wyckoff_symbol
_atom_site_fract_x
_atom_site_fract_y
_atom_site_fract_z
_atom_site_occupancy
_atom_site_attached_hydrogens
K1 K1+ 16 b 0.57791(4) 0.20008(3) 0.19583(10) 1. 0 
Cu1 Cu2+ 8 a 0 0 0 1. 0 
C1 C4+ 16 b 0.08175(15) 0.12684(9) 0.20453(42) 1. 0 
O1 O2- 16 b 0.08257(14) 0.09554(8) 0.01276(35) 1. 0 
O2 O2- 16 b 0.10067(15) 0.19974(8) 0.21375(46) 1. 0 
O3 O2- 16 b 0.05933(18) 0.08847(10) 0.37186(40) 1. 0 

loop_
_atom_site_aniso_label
_atom_site_aniso_type_symbol
_atom_site_aniso_U_11
_atom_site_aniso_U_22
_atom_site_aniso_U_33
_atom_site_aniso_U_12
_atom_site_aniso_U_13
_atom_site_aniso_U_23
K1 K1+ 0.0199(2) 0.0188(2) 0.0242(2) 0.0027(1) 0.0038(1) 0.0027(2)
Cu1 Cu2+ 0.01258(9) 0.00846(8) 0.0163(1) 0.00139(9) 0 0
C1 C4+ 0.0112(5) 0.0114(4) 0.0246(7) 0.0003(4) -.0012(5) -.0014(5)
O1 O2- 0.0197(5) 0.0131(4) 0.0231(6) -.0017(4) 0.0006(5) -.0018(5)
O2 O2- 0.0167(5) 0.0090(4) 0.0446(12) -.0021(3) -.0032(6) -.0042(5)
O3 O2- 0.0257(7) 0.0222(6) 0.0241(7) 0.0002(5) 0.0017(6) 0.0029(6)
#End of data_200695-ICSD


