data_32655-ICSD
#?2014 by Fachinformationszentrum Karlsruhe, and the U.S. Secretary of 
#Commerce on behalf of the United States.  All rights reserved.
_database_code_ICSD                32655
_audit_creation_date               1980/01/01
_audit_update_record               2005/10/01
_chemical_name_systematic          'Silver Indium Sulfide'
_chemical_formula_structural       'Ag In S2'
_chemical_formula_sum              'Ag1 In1 S2'
_publ_section_title
;
Eine Hochdruckmodifikation des Ag In S2 mit alpha-Na Fe O2-Struktur
;
loop_
_citation_id
_citation_journal_abbrev
_citation_year
_citation_journal_volume
_citation_page_first
_citation_page_last
_citation_journal_id_ASTM
primary
;
Zeitschrift fuer Naturforschung, Teil B. Anorganische Chemie, 
Organische Chemie (2,1947-32,1977)
;
 1969 24 1060 1061 ZENBAX
_publ_author_name                  'Range, K.J.;Keubler, M.;Weiss, A.'
_cell_length_a                     6.81
_cell_length_b                     6.81
_cell_length_c                     6.81
_cell_angle_alpha                  32.05
_cell_angle_beta                   32.05
_cell_angle_gamma                  32.05
_cell_volume                       79.02
_cell_formula_units_Z              1
_symmetry_space_group_name_H-M     'R -3 m R'
_symmetry_Int_Tables_number        166
loop_
_symmetry_equiv_pos_site_id
_symmetry_equiv_pos_as_xyz
  1	'-z, -y, -x'
  2	'-z, -x, -y'
  3	'-x, -z, -y'
  4	'-y, -z, -x'
  5	'-y, -x, -z'
  6	'-x, -y, -z'
  7	'z, y, x'
  8	'z, x, y'
  9	'x, z, y'
 10	'y, z, x'
 11	'y, x, z'
 12	'x, y, z'
loop_
_atom_type_symbol
_atom_type_oxidation_number
Ag1+	1
In3+	3
S2-	-2
loop_
_atom_site_label
_atom_site_type_symbol
_atom_site_symmetry_multiplicity
_atom_site_Wyckoff_symbol
_atom_site_fract_x
_atom_site_fract_y
_atom_site_fract_z
_atom_site_occupancy
_atom_site_attached_hydrogens
In1 In3+ 1 a 0 0 0 1. 0 
Ag1 Ag1+ 1 b 0.5 0.5 0.5 1. 0 
S1 S2- 2 c 0.265 0.265 0.265 1. 0 

#End of data_32655-ICSD


