data_605837-ICSD
#?2014 by Fachinformationszentrum Karlsruhe, and the U.S. Secretary of 
#Commerce on behalf of the United States.  All rights reserved.
_database_code_ICSD                605837
_audit_creation_date               2012/02/01
_chemical_name_systematic          'Ytterbium Silver Selenide (1/1/2)'
_chemical_formula_structural       'Yb Ag Se2'
_chemical_formula_sum              'Ag1 Se2 Yb1'
_publ_section_title
;
Chimie minerale. Etude cristallographique des systemes formes entre 
les seleniures L2Se3 des terres rares et le seleni
;
loop_
_citation_id
_citation_journal_abbrev
_citation_year
_citation_journal_volume
_citation_page_first
_citation_page_last
_citation_journal_id_ASTM
primary
;
Comptes Rendus Hebdomadaires des Seances de l`Academie des Sciences, 
Serie C, Sciences Chimiques (1966-)
;
 1969 269 316 319 CHDCAQ
_publ_author_name                  'Julien-Pouzol, M.;Guittard, M.'
_cell_length_a                     6.77
_cell_length_b                     13.54
_cell_length_c                     4.16
_cell_angle_alpha                  90.0
_cell_angle_beta                   90.0
_cell_angle_gamma                  90.0
_cell_volume                       381.33
_cell_formula_units_Z              4
_symmetry_space_group_name_H-M     'P 21 21 21'
_symmetry_Int_Tables_number        19
loop_
_symmetry_equiv_pos_site_id
_symmetry_equiv_pos_as_xyz
  1	'-x, y+.5, -z+.5'
  2	'x+.5, -y+.5, -z'
  3	'-x+.5, -y, z+.5'
  4	'x, y, z'
loop_
_atom_type_symbol
_atom_type_oxidation_number
Ag1+	1
Se2-	-2
Yb3+	3
loop_
_atom_site_label
_atom_site_type_symbol
_atom_site_symmetry_multiplicity
_atom_site_Wyckoff_symbol
_atom_site_fract_x
_atom_site_fract_y
_atom_site_fract_z
_atom_site_occupancy
_atom_site_attached_hydrogens
Ag1 Ag1+ 4 a 0.296 0.379 0.002 1. 0 
Yb1 Yb3+ 4 a 0.290 0.129 0.230 1. 0 
Se1 Se2- 4 a 0.085 0.227 0.730 1. 0 
Se2 Se2- 4 a 0.485 0.027 0.728 1. 0 

#End of data_605837-ICSD


