data_73185-ICSD
#?2014 by Fachinformationszentrum Karlsruhe, and the U.S. Secretary of 
#Commerce on behalf of the United States.  All rights reserved.
_database_code_ICSD                73185
_audit_creation_date               1994/06/30
_chemical_name_systematic          'Barium Zinc Didysprosium Oxide'
_chemical_formula_structural       'Ba Zn Dy2 O5'
_chemical_formula_sum              'Ba1 Dy2 O5 Zn1'
_publ_section_title
;
Zwei neue Verbindungen mit Zink in tetragonal pyramidaler 
Koordination: BaZnDy2O5 und Ba1.25ZnHo2O5.25 (Ba5Zn4Ho8O21)
;
loop_
_citation_id
_citation_journal_abbrev
_citation_year
_citation_journal_volume
_citation_page_first
_citation_page_last
_citation_journal_id_ASTM
primary 'Zeitschrift fuer Anorganische und Allgemeine Chemie (1950) (DE)'
 1993 619 529 533 ZAACAB
_publ_author_name                  'Mueller Buschbaum, H.;Rabbow, C.'
_cell_length_a                     7.0842(18)
_cell_length_b                     12.3676(11)
_cell_length_c                     5.7278(13)
_cell_angle_alpha                  90.
_cell_angle_beta                   90.
_cell_angle_gamma                  90.
_cell_volume                       501.84
_cell_formula_units_Z              4
_symmetry_space_group_name_H-M     'P b n m'
_symmetry_Int_Tables_number        62
_refine_ls_R_factor_all            .064
loop_
_symmetry_equiv_pos_site_id
_symmetry_equiv_pos_as_xyz
  1	'-x+.5, y+.5, z'
  2	'x, y, -z+.5'
  3	'x+.5, -y+.5, z+.5'
  4	'-x, -y, -z'
  5	'x+.5, -y+.5, -z'
  6	'-x, -y, z+.5'
  7	'-x+.5, y+.5, -z+.5'
  8	'x, y, z'
loop_
_atom_type_symbol
_atom_type_oxidation_number
Ba2+	2
Dy3+	3
O2-	-2
Zn2+	2
loop_
_atom_site_label
_atom_site_type_symbol
_atom_site_symmetry_multiplicity
_atom_site_Wyckoff_symbol
_atom_site_fract_x
_atom_site_fract_y
_atom_site_fract_z
_atom_site_occupancy
_atom_site_attached_hydrogens
_atom_site_B_iso_or_equiv
Ba1 Ba2+ 4 c 0.9238(2) 0.8999(2) 0.25 1. 0 0.58(2) 
Zn1 Zn2+ 4 c 0.6915(5) 0.6504(3) 0.25 1. 0 0.43(5) 
Dy1 Dy3+ 4 c 0.1206(2) 0.2923(1) 0.25 1. 0 0.32(2) 
Dy2 Dy3+ 4 c 0.3987(2) 0.0743(1) 0.25 1. 0 0.31(2) 
O1 O2- 8 d 0.167(2) 0.436(1) 0.992(3) 1. 0 0.63(24) 
O2 O2- 8 d 0.356(2) 0.224(1) 0.501(3) 1. 0 0.79(24) 
O3 O2- 4 c 0.065(3) 0.102(2) 0.25 1. 0 1.26(39) 

#End of data_73185-ICSD


