data_10355-ICSD
#?2014 by Fachinformationszentrum Karlsruhe, and the U.S. Secretary of 
#Commerce on behalf of the United States.  All rights reserved.
_database_code_ICSD                10355
_audit_creation_date               1980/01/01
_audit_update_record               2012/08/01
_chemical_name_systematic          'Disodium Copper Carbonate'
_chemical_formula_structural       'Na2 Cu (C O3)2'
_chemical_formula_sum              'C2 Cu1 Na2 O6'
_publ_section_title
;
Crystal structure and physical properties of anhydrous sodium copper 
carbonate
;
loop_
_citation_id
_citation_journal_abbrev
_citation_year
_citation_journal_volume
_citation_page_first
_citation_page_last
_citation_journal_id_ASTM
primary
;
Journal of the Chemical Society. Dalton Transactions, Inorganic 
Chemistry (1972-)
;
 1972 1972 1913 1917 JCDTBI
_publ_author_name                  'Healy, P.C.;White, A.H.'
_cell_length_a                     6.18(2)
_cell_length_b                     8.19(2)
_cell_length_c                     5.64(2)
_cell_angle_alpha                  90.
_cell_angle_beta                   116.2(2)
_cell_angle_gamma                  90.
_cell_volume                       256.14
_cell_formula_units_Z              2
_symmetry_space_group_name_H-M     'P 1 21/a 1'
_symmetry_Int_Tables_number        14
_refine_ls_R_factor_all            .11
loop_
_symmetry_equiv_pos_site_id
_symmetry_equiv_pos_as_xyz
  1	'x+.5, -y+.5, z'
  2	'-x, -y, -z'
  3	'-x+.5, y+.5, -z'
  4	'x, y, z'
loop_
_atom_type_symbol
_atom_type_oxidation_number
C4+	4
Cu2+	2
Na1+	1
O2-	-2
loop_
_atom_site_label
_atom_site_type_symbol
_atom_site_symmetry_multiplicity
_atom_site_Wyckoff_symbol
_atom_site_fract_x
_atom_site_fract_y
_atom_site_fract_z
_atom_site_occupancy
_atom_site_attached_hydrogens
_atom_site_B_iso_or_equiv
Cu1 Cu2+ 2 a 0 0 0 1. 0 0 
Na1 Na1+ 4 e 0.672(1) 0.093(1) 0.356(2) 1. 0 0 
C1 C4+ 4 e 0.632(3) 0.239(3) 0.815(3) 1. 0 1.7 
O1 O2- 4 e 0.674(2) 0.080(2) 0.790(2) 1. 0 2.2 
O2 O2- 4 e 0.629(2) 0.286(2) 0.032(2) 1. 0 2.3 
O3 O2- 4 e 0.597(2) 0.332(2) 0.628(3) 1. 0 2.6 

#End of data_10355-ICSD


