data_50282-ICSD
#?2014 by Fachinformationszentrum Karlsruhe, and the U.S. Secretary of 
#Commerce on behalf of the United States.  All rights reserved.
_database_code_ICSD                50282
_audit_creation_date               1999/06/02
_audit_update_record               2006/04/01
_chemical_name_systematic          'Calcium Titanium Silicate Oxide'
_chemical_formula_structural       'Ca Ti (Si O4) O'
_chemical_formula_sum              'Ca1 O5 Si1 Ti1'
_chemical_name_mineral             Titanite
_publ_section_title
;
The two-step phase transition of titanate, Ca Ti Si O5: a synchroton 
radiation study
;
loop_
_citation_id
_citation_journal_abbrev
_citation_year
_citation_journal_volume
_citation_page_first
_citation_page_last
_citation_journal_id_ASTM
primary 'Zeitschrift fuer Kristallographie (1979-2010)' 1997 212 9 19 ZEKRDZ
2 'Golden Book of Phase Transitions, Wroclaw' 2002 1 1 123 GBOPT5
_publ_author_name
;
Kek, S.;Aroyo, M.;Bismayer, U.;Schmidt, C.;Eichhorn, K.D.;Krane, H.G.
;
_cell_length_a                     7.0677(4)
_cell_length_b                     8.7419(4)
_cell_length_c                     6.5765(4)
_cell_angle_alpha                  90.
_cell_angle_beta                   113.757(4)
_cell_angle_gamma                  90.
_cell_volume                       371.9
_cell_formula_units_Z              4
_symmetry_space_group_name_H-M     'A 1 2/a 1'
_symmetry_Int_Tables_number        15
_refine_ls_R_factor_all            .046
loop_
_symmetry_equiv_pos_site_id
_symmetry_equiv_pos_as_xyz
  1	'-x+.5, y, -z'
  2	'-x, -y, -z'
  3	'x+.5, -y, z'
  4	'x, y, z'
  5	'-x+.5, y+.5, -z+.5'
  6	'-x, -y+.5, -z+.5'
  7	'x+.5, -y+.5, z+.5'
  8	'x, y+.5, z+.5'
loop_
_atom_type_symbol
_atom_type_oxidation_number
Ca2+	2
O2-	-2
Si4+	4
Ti4+	4
loop_
_atom_site_label
_atom_site_type_symbol
_atom_site_symmetry_multiplicity
_atom_site_Wyckoff_symbol
_atom_site_fract_x
_atom_site_fract_y
_atom_site_fract_z
_atom_site_occupancy
_atom_site_attached_hydrogens
Ca1 Ca2+ 4 e 0.25 0.66898(5) 0.5 1. 0 
Ti1 Ti4+ 4 b 0.5 0.5 0 1. 0 
Si1 Si4+ 4 e 0.75 0.68274(6) 0.5 1. 0 
O1 O2- 4 e 0.75 0.57033(10) 0 1. 0 
O2 O2- 8 f 0.91140(3) 0.56641(6) 0.68545(14) 1. 0 
O3 O2- 8 f 0.38230(3) 0.71069(6) 0.89650(15) 1. 0 

loop_
_atom_site_aniso_label
_atom_site_aniso_type_symbol
_atom_site_aniso_U_11
_atom_site_aniso_U_22
_atom_site_aniso_U_33
_atom_site_aniso_U_12
_atom_site_aniso_U_13
_atom_site_aniso_U_23
Ca1 Ca2+ 0.0344(6) 0.0085(5) 0.0112(5) 0.0009 -.0012(4) 0
Ti1 Ti4+ 0.0147(6) 0.0083(6) 0.0068(5) 0.0027(1) 0.0023(4) -.0001(1)
Si1 Si4+ 0.0064(3) 0.0044(5) 0.0038(5) 0 0.0016(3) 0
O1 O2- 0.0084(7) 0.0094(7) 0.0175(8) 0 0.0069(6) 0
O2 O2- 0.0149(6) 0.0121(6) 0.0085(6) 0.0028(2) 0.0018(4) 0.0013(3)
O3 O2- 0.0155(7) 0.0095(6) 0.0122(6) 0.0031(2) 0.0072(4) 0.0012(2)
#End of data_50282-ICSD


