data_80860-ICSD
#?2014 by Fachinformationszentrum Karlsruhe, and the U.S. Secretary of 
#Commerce on behalf of the United States.  All rights reserved.
_database_code_ICSD                80860
_audit_creation_date               1997/05/13
_audit_update_record               2006/04/01
_chemical_name_systematic          'Dipotassium Tetrachlorozincate'
_chemical_formula_structural       'K2 (Zn Cl4)'
_chemical_formula_sum              'Cl4 K2 Zn1'
_publ_section_title
;
The comparative study of the commensurate structure of K2 Zn Cl4
;
loop_
_citation_id
_citation_journal_abbrev
_citation_year
_citation_journal_volume
_citation_page_first
_citation_page_last
_citation_journal_id_ASTM
primary 'Applied Crystallography, Proceedings of the Conference on ...'
 1995 6 268 272 APCRE2
2 'Phase Transition' 1992 38 127 220 PHTRDP
_publ_author_name                  'Kusz, J.;Kucharczyk, D.'
_cell_length_a                     26.75099
_cell_length_b                     12.393
_cell_length_c                     7.247
_cell_angle_alpha                  90.
_cell_angle_beta                   90.
_cell_angle_gamma                  90.
_cell_volume                       2402.56
_cell_formula_units_Z              12
_symmetry_space_group_name_H-M     'P n a 21'
_symmetry_Int_Tables_number        33
_refine_ls_R_factor_all            .046
loop_
_symmetry_equiv_pos_site_id
_symmetry_equiv_pos_as_xyz
  1	'x+.5, -y+.5, z'
  2	'-x+.5, y+.5, z+.5'
  3	'-x, -y, z+.5'
  4	'x, y, z'
loop_
_atom_type_symbol
_atom_type_oxidation_number
Cl1-	-1
K1+	1
Zn2+	2
loop_
_atom_site_label
_atom_site_type_symbol
_atom_site_symmetry_multiplicity
_atom_site_Wyckoff_symbol
_atom_site_fract_x
_atom_site_fract_y
_atom_site_fract_z
_atom_site_occupancy
_atom_site_attached_hydrogens
K1 K1+ 4 a 0.0440(9) 0.0843(34) 0.7872(35) 1. 0 
K2 K1+ 4 a 0.3805(9) 0.0840(38) 0.7658(34) 1. 0 
K3 K1+ 4 a 0.7095(9) 0.0821(28) 0.7262(29) 1. 0 
K4 K1+ 4 a 0.3322(9) 0.6852(23) 0.7219(24) 1. 0 
K5 K1+ 4 a 0.6661(9) 0.6852(23) 0.7380(24) 1. 0 
K6 K1+ 4 a 0.9984(8) 0.6895(14) 0.7901(26) 1. 0 
Zn1 Zn2+ 4 a 0.0721(4) 0.4190(13) 0.75 1. 0 
Zn2 Zn2+ 4 a 0.4053(4) 0.4171(11) 0.7782(9) 1. 0 
Zn3 Zn2+ 4 a 0.7401(4) 0.4190(19) 0.7365(8) 1. 0 
Cl1 Cl1- 4 a -.0086(8) 0.442(2) 0.6771(26) 1. 0 
Cl2 Cl1- 4 a 0.3230(7) 0.4378(22) 0.8116(32) 1. 0 
Cl3 Cl1- 4 a 0.6597(7) 0.4361(22) 0.8041(31) 1. 0 
Cl4 Cl1- 4 a 0.1121(7) 0.5758(19) 0.8164(27) 1. 0 
Cl5 Cl1- 4 a 0.4437(7) 0.5781(18) 0.8124(32) 1. 0 
Cl6 Cl1- 4 a 0.7802(9) 0.5749(21) 0.6628(30) 1. 0 
Cl7 Cl1- 4 a 0.0848(9) 0.3041(22) -.0182(29) 1. 0 
Cl8 Cl1- 4 a 0.4351(8) 0.3105(19) 0.0007(27) 1. 0 
Cl9 Cl1- 4 a 0.7775(9) 0.3618(21) 0.0043(27) 1. 0 
Cl10 Cl1- 4 a 0.1101(9) 0.3556(22) 0.4931(27) 1. 0 
Cl11 Cl1- 4 a 0.4305(9) 0.3468(22) 0.5137(28) 1. 0 
Cl12 Cl1- 4 a 0.7559(9) 0.2927(18) 0.5189(28) 1. 0 

loop_
_atom_site_aniso_label
_atom_site_aniso_type_symbol
_atom_site_aniso_U_11
_atom_site_aniso_U_22
_atom_site_aniso_U_33
_atom_site_aniso_U_12
_atom_site_aniso_U_13
_atom_site_aniso_U_23
K1 K1+ 0.039(12) 0.079(20) 0.101(15) 0.004(14) 0.012(11) 0.000(16)
K2 K1+ 0.036(11) 0.092(21) 0.095(14) 0.005(14) 0.027(10) 0.011(14)
K3 K1+ 0.033(12) 0.069(19) 0.060(11) -0.015(13) 0.003(8) 0.006(12)
K4 K1+ 0.037(12) 0.034(16) 0.051(10) -0.007(10) 0.000(8) 0.004(9)
K5 K1+ 0.036(12) 0.048(15) 0.059(11) -0.003(10) -0.006(8) 0.009(9)
K6 K1+ 0.032(11) 0.021(9) 0.046(9) 0.005(9) -0.003(9) 0.007(9)
Zn1 Zn2+ 0.024(5) 0.031(8) 0.033(4) 0.001(6) 0.003(4) -0.012(4)
Zn2 Zn2+ 0.024(5) 0.025(6) 0.031(5) -0.001(5) 0.003(4) -0.008(4)
Zn3 Zn2+ 0.023(6) 0.032(8) 0.031(5) -0.001(6) 0.002(4) -0.009(4)
Cl1 Cl1- 0.033(10) 0.061(14) 0.034(8) 0.007(10) -0.005(8) 0.018(9)
Cl2 Cl1- 0.014(8) 0.057(15) 0.125(16) -0.001(8) 0.002(11) 0.020(17)
Cl3 Cl1- 0.021(9) 0.052(13) 0.113(15) -0.003(8) 0.013(12) 0.021(16)
Cl4 Cl1- 0.035(9) 0.029(10) 0.080(12) -0.007(8) 0.001(9) 0.003(12)
Cl5 Cl1- 0.037(10) 0.027(10) 0.165(20) -0.012(8) -0.015(14) -0.003(17)
Cl6 Cl1- 0.038(11) 0.040(12) 0.057(11) -0.009(10) -0.007(9) -0.007(9)
Cl7 Cl1- 0.055(13) 0.068(15) 0.04(1) 0.024(11) 0.009(19) 0.019(9)
Cl8 Cl1- 0.050(12) 0.112(21) 0.078(11) 0.030(12) 0.004(9) 0.048(11)
Cl9 Cl1- 0.056(13) 0.050(13) 0.033(10) 0.009(11) 0.007(8) -0.016(9)
Cl10 Cl1- 0.036(11) 0.072(15) 0.036(10) 0.009(11) 0.007(118) -0.016(9)
Cl11 Cl1- 0.086(16) 0.113(23) 0.045(10) 0.050(14) -0.002(11) -0.028(11)
Cl12 Cl1- 0.062(13) 0.036(10) 0.038(10) 0.005(10) 0.002(9) -0.009(8)
#End of data_80860-ICSD


