data_72929-ICSD
#?2014 by Fachinformationszentrum Karlsruhe, and the U.S. Secretary of 
#Commerce on behalf of the United States.  All rights reserved.
_database_code_ICSD                72929
_audit_creation_date               1994/06/30
_chemical_name_systematic          'Lithium Nickel Phosphate'
_chemical_formula_structural       'Li Ni (P O4)'
_chemical_formula_sum              'Li1 Ni1 O4 P1'
_publ_section_title
;
Structure of lithium nickel phosphate
;
loop_
_citation_id
_citation_journal_abbrev
_citation_year
_citation_journal_volume
_citation_page_first
_citation_page_last
_citation_journal_id_ASTM
primary 'Acta Crystallographica, Section C: Crystal Structure Communications'
 1993 49 925 926 ACSCEE
_publ_author_name                  'Abrahams, I.;Easson, K.S.'
_cell_length_a                     10.0317(1)
_cell_length_b                     5.8539(1)
_cell_length_c                     4.6768(1)
_cell_angle_alpha                  90.
_cell_angle_beta                   90.
_cell_angle_gamma                  90.
_cell_volume                       274.64
_cell_formula_units_Z              4
_symmetry_space_group_name_H-M     'P n m a'
_symmetry_Int_Tables_number        62
_refine_ls_R_factor_all            .092
loop_
_symmetry_equiv_pos_site_id
_symmetry_equiv_pos_as_xyz
  1	'x+.5, y, -z+.5'
  2	'x, -y+.5, z'
  3	'-x+.5, y+.5, z+.5'
  4	'-x, -y, -z'
  5	'-x+.5, -y, z+.5'
  6	'-x, y+.5, -z'
  7	'x+.5, -y+.5, -z+.5'
  8	'x, y, z'
loop_
_atom_type_symbol
_atom_type_oxidation_number
Li1+	1
Ni2+	2
O2-	-2
P5+	5
loop_
_atom_site_label
_atom_site_type_symbol
_atom_site_symmetry_multiplicity
_atom_site_Wyckoff_symbol
_atom_site_fract_x
_atom_site_fract_y
_atom_site_fract_z
_atom_site_occupancy
_atom_site_attached_hydrogens
_atom_site_U_iso_or_equiv
Li1 Li1+ 4 a 0 0 0 1. 0 0.028(5) 
Ni1 Ni2+ 4 c 0.2756(1) 0.25 0.9825(3) 1. 0 0.0096(5) 
P1 P5+ 4 c 0.0943(2) 0.25 0.4167(5) 1. 0 0.0081(8) 
O1 O2- 4 c 0.1008(5) 0.25 0.7427(10) 1. 0 0.003(2) 
O2 O2- 4 c 0.4492(5) 0.25 0.1978(10) 1. 0 0.004(2) 
O3 O2- 8 d 0.1668(4) 0.0439(6) 0.2783(7) 1. 0 0.008(1) 

#End of data_72929-ICSD


