data_161817-ICSD
#?2014 by Fachinformationszentrum Karlsruhe, and the U.S. Secretary of 
#Commerce on behalf of the United States.  All rights reserved.
_database_code_ICSD                161817
_audit_creation_date               2009/02/01
_chemical_name_systematic          'Calcium Carbonate'
_chemical_formula_structural       'Ca (C O3)'
_chemical_formula_sum              'C1 Ca1 O3'
_chemical_name_mineral             Aragonite
_publ_section_title
;
High-pressure phases of Ca C O3: crystal structure prediction and 
experiment
;
loop_
_citation_id
_citation_journal_abbrev
_citation_year
_citation_journal_volume
_citation_page_first
_citation_page_last
_citation_journal_id_ASTM
primary 'Earth and Planetary Science Letters' 2006 241 95 103 EPSLA2
_publ_author_name                  'Oganov, A.R.;Glass, C.W.;Ono, S.'
_cell_length_a                     5.0192
_cell_length_b                     8.0393
_cell_length_c                     5.7952
_cell_angle_alpha                  90.
_cell_angle_beta                   90.
_cell_angle_gamma                  90.
_cell_volume                       233.84
_cell_formula_units_Z              4
_symmetry_space_group_name_H-M     'P m c n'
_symmetry_Int_Tables_number        62
loop_
_symmetry_equiv_pos_site_id
_symmetry_equiv_pos_as_xyz
  1	'x, -y+.5, z+.5'
  2	'-x+.5, y, z'
  3	'x+.5, y+.5, -z+.5'
  4	'-x, -y, -z'
  5	'-x, y+.5, -z+.5'
  6	'x+.5, -y, -z'
  7	'-x+.5, -y+.5, z+.5'
  8	'x, y, z'
loop_
_atom_type_symbol
_atom_type_oxidation_number
C4+	4
Ca2+	2
O2-	-2
loop_
_atom_site_label
_atom_site_type_symbol
_atom_site_symmetry_multiplicity
_atom_site_Wyckoff_symbol
_atom_site_fract_x
_atom_site_fract_y
_atom_site_fract_z
_atom_site_occupancy
_atom_site_attached_hydrogens
Ca1 Ca2+ 4 c 0.250 0.5859 0.2594 1. 0 
C1 C4+ 4 c 0.250 0.2377 0.4144 1. 0 
O1 O2- 4 c 0.250 0.0772 0.4043 1. 0 
O2 O2- 8 d 0.4738 0.3195 0.4126 1. 0 

#End of data_161817-ICSD


