data_82143-ICSD
#?2014 by Fachinformationszentrum Karlsruhe, and the U.S. Secretary of 
#Commerce on behalf of the United States.  All rights reserved.
_database_code_ICSD                82143
_audit_creation_date               1999/11/30
_audit_update_record               2006/04/01
_chemical_name_systematic
;
Potassium Tecto-tetrathiodiargentoantimonate
;
_chemical_formula_structural       'K (Ag2 Sb S4)'
_chemical_formula_sum              'Ag2 K1 S4 Sb1'
_publ_section_title
;
Supercritical ammonia synthesis and characterization of four new 
alkali metal silver antimony sulfides: M Ag2 Sb S4 and M2 Ag Sb S4 
(M= K, Rb)
;
loop_
_citation_id
_citation_journal_abbrev
_citation_year
_citation_journal_volume
_citation_page_first
_citation_page_last
_citation_journal_id_ASTM
primary 'Journal of Solid State Chemistry' 1996 123 277 284 JSSCBI
_publ_author_name
;
Schimek, G.L.;Pennington, W.T.;Wood, P.T.;Kolis, J.W.
;
_cell_length_a                     6.886(1)
_cell_length_b                     6.886(1)
_cell_length_c                     8.438(2)
_cell_angle_alpha                  90.
_cell_angle_beta                   90.
_cell_angle_gamma                  90.
_cell_volume                       400.1
_cell_formula_units_Z              2
_symmetry_space_group_name_H-M     'I -4 2 m'
_symmetry_Int_Tables_number        121
_refine_ls_R_factor_all            .04
loop_
_symmetry_equiv_pos_site_id
_symmetry_equiv_pos_as_xyz
  1	'-y, -x, z'
  2	'y, x, z'
  3	'y, -x, -z'
  4	'-y, x, -z'
  5	'x, -y, -z'
  6	'-x, y, -z'
  7	'-x, -y, z'
  8	'x, y, z'
  9	'-y+.5, -x+.5, z+.5'
 10	'y+.5, x+.5, z+.5'
 11	'y+.5, -x+.5, -z+.5'
 12	'-y+.5, x+.5, -z+.5'
 13	'x+.5, -y+.5, -z+.5'
 14	'-x+.5, y+.5, -z+.5'
 15	'-x+.5, -y+.5, z+.5'
 16	'x+.5, y+.5, z+.5'
loop_
_atom_type_symbol
_atom_type_oxidation_number
Ag1+	1
K1+	1
S2-	-2
Sb5+	5
loop_
_atom_site_label
_atom_site_type_symbol
_atom_site_symmetry_multiplicity
_atom_site_Wyckoff_symbol
_atom_site_fract_x
_atom_site_fract_y
_atom_site_fract_z
_atom_site_occupancy
_atom_site_attached_hydrogens
_atom_site_U_iso_or_equiv
K1 K1+ 2 a 0 0 0 1. 0 0.033(4) 
Ag1 Ag1+ 4 d 0 0.5 0.25 1. 0 0.053(1) 
Sb1 Sb5+ 2 b 0 0 0.5 1. 0 0.014(1) 
S1 S2- 8 i 0.3010(6) 0.6990(6) 0.1580(7) 1. 0 0.023(2) 

#End of data_82143-ICSD


