data_97828-ICSD
#?2014 by Fachinformationszentrum Karlsruhe, and the U.S. Secretary of 
#Commerce on behalf of the United States.  All rights reserved.
_database_code_ICSD                97828
_audit_creation_date               2004/10/01
_audit_update_record               2006/04/01
_chemical_name_systematic          'Calcium Titanate'
_chemical_formula_structural       'Ca (Ti O3)'
_chemical_formula_sum              'Ca1 O3 Ti1'
_publ_section_title
;
Evolution of crystallographic phases in the system (Pb1-x Cax) Ti O3: 
a Rietveld study
;
loop_
_citation_id
_citation_journal_abbrev
_citation_year
_citation_journal_volume
_citation_journal_issue
_citation_page_first
_citation_page_last
_citation_journal_id_ASTM
primary 'Journal of Materials Research' 2003 18 2 407 414 JMREEE
2 'Golden Book of Phase Transitions, Wroclaw' 2002 1- 1 123 GBOPT5
_publ_author_name                  'Chandra, A.;Pandey, D.'
_cell_length_a                     5.378(7)
_cell_length_b                     5.439(7)
_cell_length_c                     7.638(1)
_cell_angle_alpha                  90
_cell_angle_beta                   90
_cell_angle_gamma                  90
_cell_volume                       223.42
_cell_formula_units_Z              4
_symmetry_space_group_name_H-M     'P b n m'
_symmetry_Int_Tables_number        62
_refine_ls_R_factor_all            .0471
loop_
_symmetry_equiv_pos_site_id
_symmetry_equiv_pos_as_xyz
  1	'-x+.5, y+.5, z'
  2	'x, y, -z+.5'
  3	'x+.5, -y+.5, z+.5'
  4	'-x, -y, -z'
  5	'x+.5, -y+.5, -z'
  6	'-x, -y, z+.5'
  7	'-x+.5, y+.5, -z+.5'
  8	'x, y, z'
loop_
_atom_type_symbol
_atom_type_oxidation_number
Ca2+	2
O2-	-2
Ti4+	4
loop_
_atom_site_label
_atom_site_type_symbol
_atom_site_symmetry_multiplicity
_atom_site_Wyckoff_symbol
_atom_site_fract_x
_atom_site_fract_y
_atom_site_fract_z
_atom_site_occupancy
_atom_site_attached_hydrogens
_atom_site_B_iso_or_equiv
Ca1 Ca2+ 4 c -0.006(4) 0.5354(7) 0.250 1. 0 1.42(5) 
Ti1 Ti4+ 4 a 0 0 0 1. 0 1.36(6) 
O1 O2- 4 c -0.088(9) -0.015(6) 0.250 1. 0 1.29(6) 
O2 O2- 8 d 0.2109(4) 0.2890(4) 0.038(4) 1. 0 1.51(3) 

#End of data_97828-ICSD


