data_60025-ICSD
#?2014 by Fachinformationszentrum Karlsruhe, and the U.S. Secretary of 
#Commerce on behalf of the United States.  All rights reserved.
_database_code_ICSD                60025
_audit_creation_date               1986/04/14
_audit_update_record               2012/08/01
_chemical_name_systematic          'Potassium Disulfate(IV)'
_chemical_formula_structural       'K2 S2 O5'
_chemical_formula_sum              'K2 O5 S2'
_publ_section_title
;
Reinvestigation of the structure of potassium pyrosulfite, K2 S2 O5
;
loop_
_citation_id
_citation_journal_abbrev
_citation_year
_citation_journal_volume
_citation_page_first
_citation_page_last
_citation_journal_id_ASTM
primary 'Acta Crystallographica, Section C: Crystal Structure Communications'
 1984 40 1780 1781 ACSCEE
2 'Acta Crystallographica B (24,1968-38,1982)' 1971 27 517 522 ACBCAR
3 'Acta Crystallographica, Section C: Crystal Structure Communications'
 1983 39 819 822 ACSCEE
_publ_author_name                  'Chen, I.C.;Wang, Y.'
_cell_length_a                     6.921(1)
_cell_length_b                     6.160(1)
_cell_length_c                     7.537(1)
_cell_angle_alpha                  90.
_cell_angle_beta                   102.79(1)
_cell_angle_gamma                  90.
_cell_volume                       313.35
_cell_formula_units_Z              2
_symmetry_space_group_name_H-M     'P 1 21/m 1'
_symmetry_Int_Tables_number        11
_refine_ls_R_factor_all            .04
loop_
_symmetry_equiv_pos_site_id
_symmetry_equiv_pos_as_xyz
  1	'x, -y+.5, z'
  2	'-x, -y, -z'
  3	'-x, y+.5, -z'
  4	'x, y, z'
loop_
_atom_type_symbol
_atom_type_oxidation_number
K1+	1
O2-	-2
S4+	4
loop_
_atom_site_label
_atom_site_type_symbol
_atom_site_symmetry_multiplicity
_atom_site_Wyckoff_symbol
_atom_site_fract_x
_atom_site_fract_y
_atom_site_fract_z
_atom_site_occupancy
_atom_site_attached_hydrogens
K1 K1+ 2 e 0.2131(1) 0.25 0.93530(5) 1. 0 
K2 K1+ 2 e 0.6398(1) 0.25 0.67278(4) 1. 0 
S1 S4+ 2 e 0.0291(1) 0.25 0.3300(1) 1. 0 
S2 S4+ 2 e 0.7014(1) 0.25 0.2384(1) 1. 0 
O1 O2- 4 f 0.0741(1) 0.0515(1) 0.2343(1) 1. 0 
O2 O2- 4 f 0.6350(1) 0.0530(1) 0.3147(1) 1. 0 
O3 O2- 2 e 0.6555(1) 0.25 0.0407(1) 1. 0 

loop_
_atom_site_aniso_label
_atom_site_aniso_type_symbol
_atom_site_aniso_U_11
_atom_site_aniso_U_22
_atom_site_aniso_U_33
_atom_site_aniso_U_12
_atom_site_aniso_U_13
_atom_site_aniso_U_23
K1 K1+ 0.0283(2) 0.0247(3) 0.0363(3) 0 0.0121(2) 0
K2 K1+ 0.0217(2) 0.0198(2) 0.0263(2) 0 0.0098(2) 0
S1 S4+ 0.0178(3) 0.0239(3) 0.0271(3) 0 0.0038(2) 0
S2 S4+ 0.0164(2) 0.0221(3) 0.0211(3) 0 0.0058(2) 0
O1 O2- 0.0245(5) 0.0241(5) 0.0433(6) 0.00544(4) 0.0123(4) -.0047(5)
O2 O2- 0.0310(5) 0.0279(6) 0.0464(5) -.0092(4) 0.0165(4) 0.0063(5)
O3 O2- 0.0268(7) 0.0692(11) 0.0170(7) 0 0.0000(6) 0
#End of data_60025-ICSD


