data_408052-ICSD
#?2014 by Fachinformationszentrum Karlsruhe, and the U.S. Secretary of 
#Commerce on behalf of the United States.  All rights reserved.
_database_code_ICSD                408052
_audit_creation_date               1999/06/02
_chemical_name_systematic
;
Disilver Strontium Manganese Bis(vanadate)
;
_chemical_formula_structural       'Ag2 Sr Mn (V O4)2'
_chemical_formula_sum              'Ag2 Mn1 O8 Sr1 V2'
_publ_section_title
;
Ag+ als Substituent eines Alkalimetalls in Ag2 Sr Mn V2 O8
;
loop_
_citation_id
_citation_journal_abbrev
_citation_year
_citation_journal_volume
_citation_page_first
_citation_page_last
_citation_journal_id_ASTM
primary 'Zeitschrift fuer Naturforschung, B: Chemical Sciences'
 1998 53 279 282 ZNBSEN
_publ_author_name                  'Rettich, R.;Mueller Buschbaum, H.'
_cell_length_a                     9.7022(9)
_cell_length_b                     5.5882(5)
_cell_length_c                     13.8941(10)
_cell_angle_alpha                  90.
_cell_angle_beta                   90.408(8)
_cell_angle_gamma                  90.
_cell_volume                       753.29
_cell_formula_units_Z              4
_symmetry_space_group_name_H-M     'C 1 2/c 1'
_symmetry_Int_Tables_number        15
_refine_ls_R_factor_all            .0473
loop_
_symmetry_equiv_pos_site_id
_symmetry_equiv_pos_as_xyz
  1	'x, -y, z+.5'
  2	'-x, -y, -z'
  3	'-x, y, -z+.5'
  4	'x, y, z'
  5	'x+.5, -y+.5, z+.5'
  6	'-x+.5, -y+.5, -z'
  7	'-x+.5, y+.5, -z+.5'
  8	'x+.5, y+.5, z'
loop_
_atom_type_symbol
_atom_type_oxidation_number
Ag1+	1
Mn2+	2
O2-	-2
Sr2+	2
V5+	5
loop_
_atom_site_label
_atom_site_type_symbol
_atom_site_symmetry_multiplicity
_atom_site_Wyckoff_symbol
_atom_site_fract_x
_atom_site_fract_y
_atom_site_fract_z
_atom_site_occupancy
_atom_site_attached_hydrogens
Ag1 Ag1+ 8 f 0.83609(6) 0.54469(10) 0.40558(4) 1. 0 
Sr1 Sr2+ 4 e 0 0.0712(2) 0.25 1. 0 
Mn1 Mn2+ 4 a 0 0 0.5 1. 0 
V1 V5+ 8 f 0.32716(9) 0.0358(2) 0.12967(7) 1. 0 
O1 O2- 8 f 0.1099(5) 0.3016(9) 0.4362(4) 1. 0 
O2 O2- 8 f 0.3311(7) 0.9475(10) 0.2454(4) 1. 0 
O3 O2- 8 f 0.1592(5) 0.0901(10) 0.0955(4) 1. 0 
O4 O2- 8 f 0.4274(5) 0.2869(9) 0.1156(4) 1. 0 

loop_
_atom_site_aniso_label
_atom_site_aniso_type_symbol
_atom_site_aniso_U_11
_atom_site_aniso_U_22
_atom_site_aniso_U_33
_atom_site_aniso_U_12
_atom_site_aniso_U_13
_atom_site_aniso_U_23
Ag1 Ag1+ 0.0294(3) 0.0248(3) 0.0258(3) -.0019(2) 0.0001(2) -.0059(2)
Sr1 Sr2+ 0.0389(5) 0.0182(4) 0.0100(3) 0 0.0048(3) 0
Mn1 Mn2+ 0.0149(5) 0.0155(6) 0.0152(5) 0.0004(4) -.0004(4) -.0010(5)
V1 V5+ 0.0138(4) 0.0111(4) 0.0128(4) -.0002(3) 0.0001(3) 0.0007(3)
O1 O2- 0.024(2) 0.021(2) 0.031(3) -.006(2) 0.002(2) 0.007(2)
O2 O2- 0.080(5) 0.026(3) 0.018(2) -.004(3) -.005(3) 0.006(2)
O3 O2- 0.021(2) 0.032(3) 0.030(3) 0.005(2) -.004(2) -.012(2)
O4 O2- 0.036(3) 0.020(2) 0.029(2) -.010(2) 0.007(2) 0.000(2)
#End of data_408052-ICSD


