data_202644-ICSD
#?2014 by Fachinformationszentrum Karlsruhe, and the U.S. Secretary of 
#Commerce on behalf of the United States.  All rights reserved.
_database_code_ICSD                202644
_audit_creation_date               1989/06/19
_audit_update_record               1991/04/20
_chemical_name_systematic          'Sodium Molybdenum(III) Diphosphate'
_chemical_formula_structural       'Na Mo (P2 O7)'
_chemical_formula_sum              'Mo1 Na1 O7 P2'
_publ_section_title
;
A Mo(III) Phosphate with a Cage Structure: Na Mo P2 O7
;
loop_
_citation_id
_citation_journal_abbrev
_citation_year
_citation_journal_volume
_citation_page_first
_citation_page_last
_citation_journal_id_ASTM
primary 'Journal of Solid State Chemistry' 1988 76 131 135 JSSCBI
_publ_author_name
;
Leclaire, A.;Borel, M.M.;Grandin, A.;Raveau, B.
;
_cell_length_a                     7.4195(3)
_cell_length_b                     8.1084(4)
_cell_length_c                     9.7598(4)
_cell_angle_alpha                  90.
_cell_angle_beta                   111.868(3)
_cell_angle_gamma                  90.
_cell_volume                       544.9
_cell_formula_units_Z              4
_symmetry_space_group_name_H-M     'P 1 21/c 1'
_symmetry_Int_Tables_number        14
_refine_ls_R_factor_all            .035
loop_
_symmetry_equiv_pos_site_id
_symmetry_equiv_pos_as_xyz
  1	'x, -y+.5, z+.5'
  2	'-x, -y, -z'
  3	'-x, y+.5, -z+.5'
  4	'x, y, z'
loop_
_atom_type_symbol
_atom_type_oxidation_number
Mo3+	3
Na1+	1
O2-	-2
P5+	5
loop_
_atom_site_label
_atom_site_type_symbol
_atom_site_symmetry_multiplicity
_atom_site_Wyckoff_symbol
_atom_site_fract_x
_atom_site_fract_y
_atom_site_fract_z
_atom_site_occupancy
_atom_site_attached_hydrogens
Mo1 Mo3+ 4 e 0.25843(2) 0.00547(2) 0.24845(1) 1. 0 
P1 P5+ 4 e 0.07446(6) 0.25293(6) 0.45875(5) 1. 0 
P2 P5+ 4 e -.32763(6) 0.21689(6) 0.45738(5) 1. 0 
Na1 Na1+ 4 e 0.28421(23) 0.48235(22) 0.28787(19) 1. 0 
O1 O2- 4 e 0.53989(21) 0.08981(20) 0.35713(17) 1. 0 
O2 O2- 4 e 0.30868(25) -.20968(18) 0.38279(15) 1. 0 
O3 O2- 4 e 0.17033(27) 0.12870(21) 0.39527(19) 1. 0 
O4 O2- 4 e -.02348(20) -.08760(17) 0.13034(16) 1. 0 
O5 O2- 4 e 0.19160(26) 0.22060(18) 0.12102(16) 1. 0 
O6 O2- 4 e 0.37151(22) -.10667(18) 0.09997(16) 1. 0 
O7 O2- 4 e -.12504(21) 0.16453(19) 0.44471(19) 1. 0 

#End of data_202644-ICSD


