data_50960-ICSD
#?2014 by Fachinformationszentrum Karlsruhe, and the U.S. Secretary of 
#Commerce on behalf of the United States.  All rights reserved.
_database_code_ICSD                50960
_audit_creation_date               2000/12/16
_chemical_name_systematic
;
Dipotassium Mercury Hexaselenodiphosphate(IV)
;
_chemical_formula_structural       'K2 Hg P2 Se6'
_chemical_formula_sum              'Hg1 K2 P2 Se6'
_publ_section_title
;
Group 10 and Group 12 one-dimensional selenodiphosphates: A2 M P2 Se6 
(A = K, Rb, Cs; M= Pd, Zn, Cd, Hg)
;
loop_
_citation_id
_citation_journal_abbrev
_citation_year
_citation_journal_volume
_citation_page_first
_citation_page_last
_citation_journal_id_ASTM
primary 'Journal of Solid State Chemistry' 1998 138 321 328 JSSCBI
_publ_author_name                  'Chondroudis, K.;Kanatzidis, M.G.'
_cell_length_a                     13.031(2)
_cell_length_b                     7.308(2)
_cell_length_c                     14.167(2)
_cell_angle_alpha                  90.
_cell_angle_beta                   110.63(1)
_cell_angle_gamma                  90.
_cell_volume                       1262.62
_cell_formula_units_Z              4
_symmetry_space_group_name_H-M     'P 1 21/c 1'
_symmetry_Int_Tables_number        14
_refine_ls_R_factor_all            .056
loop_
_symmetry_equiv_pos_site_id
_symmetry_equiv_pos_as_xyz
  1	'x, -y+.5, z+.5'
  2	'-x, -y, -z'
  3	'-x, y+.5, -z+.5'
  4	'x, y, z'
loop_
_atom_type_symbol
_atom_type_oxidation_number
Hg2+	2
K1+	1
P4+	4
Se2-	-2
loop_
_atom_site_label
_atom_site_type_symbol
_atom_site_symmetry_multiplicity
_atom_site_Wyckoff_symbol
_atom_site_fract_x
_atom_site_fract_y
_atom_site_fract_z
_atom_site_occupancy
_atom_site_attached_hydrogens
_atom_site_B_iso_or_equiv
Hg1 Hg2+ 4 e 0.74271(5) 0.10675(9) 0.97753(6) 1. 0 2.14(3) 
Se1 Se2- 4 e 0.5991(1) 0.3313(2) 0.0002(1) 1. 0 1.51(5) 
Se2 Se2- 4 e 0.6195(2) 0.0114(2) 0.2039(1) 1. 0 2.60(7) 
Se3 Se2- 4 e 0.6412(1) -.2206(2) 0.9461(1) 1. 0 1.74(6) 
Se4 Se2- 4 e 0.9084(1) 0.0112(3) 0.1473(1) 1. 0 2.24(6) 
Se5 Se2- 4 e 0.8421(1) 0.1884(2) 0.8511(1) 1. 0 1.87(6) 
Se6 Se2- 4 e 0.8865(1) -.3021(2) 0.8955(2) 1. 0 2.38(7) 
K1 K1+ 4 e 0.6013(4) -.0524(7) 0.7152(3) 1. 0 3.9(2) 
K2 K1+ 4 e 0.1017(4) 0.0376(7) 0.3784(4) 1. 0 4.1(2) 
P1 P4+ 4 e 0.5192(3) 0.1120(5) 0.0592(3) 1. 0 1.3(1) 
P2 P4+ 4 e 0.0389(3) 0.0360(5) 0.0829(3) 1. 0 1.4(1) 

#End of data_50960-ICSD


