data_154319-ICSD
#?2014 by Fachinformationszentrum Karlsruhe, and the U.S. Secretary of 
#Commerce on behalf of the United States.  All rights reserved.
_database_code_ICSD                154319
_audit_creation_date               2007/04/01
_chemical_name_systematic          'Dicalcium Ditantalate - 8o'
_chemical_formula_structural       'Ca2 (Ta2 O7)'
_chemical_formula_sum              'Ca2 O7 Ta2'
_publ_section_title
;
Crystal structure and optical properties of the new 8O polytype of 
Ca2 Ta2 O7
;
loop_
_citation_id
_citation_journal_abbrev
_citation_year
_citation_journal_volume
_citation_page_first
_citation_page_last
_citation_journal_id_ASTM
primary 'Zeitschrift fuer Kristallographie (1979-2010)' 2005 220 269 276 ZEKRDZ
_publ_author_name
;
Ebbinghaus, S.G.;Kalytta, A.;Kopf, J.;Weidenkaff, A.;Reller, A.
;
_cell_length_a                     7.3690(2)
_cell_length_b                     12.7296(3)
_cell_length_c                     48.263(1)
_cell_angle_alpha                  90.
_cell_angle_beta                   90.
_cell_angle_gamma                  90.
_cell_volume                       4527.28
_cell_formula_units_Z              32
_symmetry_space_group_name_H-M     'C 2 2 21'
_symmetry_Int_Tables_number        20
_refine_ls_R_factor_all            .0413
loop_
_symmetry_equiv_pos_site_id
_symmetry_equiv_pos_as_xyz
  1	'-x, y, -z+.5'
  2	'-x, -y, z+.5'
  3	'x, -y, -z'
  4	'x, y, z'
  5	'-x+.5, y+.5, -z+.5'
  6	'-x+.5, -y+.5, z+.5'
  7	'x+.5, -y+.5, -z'
  8	'x+.5, y+.5, z'
loop_
_atom_type_symbol
_atom_type_oxidation_number
Ca2+	2
O2-	-2
Ta5+	5
loop_
_atom_site_label
_atom_site_type_symbol
_atom_site_symmetry_multiplicity
_atom_site_Wyckoff_symbol
_atom_site_fract_x
_atom_site_fract_y
_atom_site_fract_z
_atom_site_occupancy
_atom_site_attached_hydrogens
_atom_site_U_iso_or_equiv
Ta1 Ta5+ 4 a 0.26100(6) 0 0 1. 0 0.01361(6) 
Ta2 Ta5+ 8 c 0.50776(4) 0.74902(2) 0.00159(1) 1. 0 0.01306(4) 
Ca1 Ca2+ 4 a 0.2606(4) 0.5 0 1. 0 0.0245(4) 
Ta3 Ta5+ 8 c 0.24125(4) 0.65440(2) 0.06271(1) 1. 0 0.01362(4) 
Ca2 Ca2+ 8 c 0.7551(3) 0.6769(1) 0.06366(4) 1. 0 0.0224(3) 
Ca3 Ca2+ 8 c 0.0102(2) 0.4206(1) 0.06263(4) 1. 0 0.0195(3) 
Ca4 Ca2+ 8 c 0.5222(2) 0.4215(1) 0.06076(4) 1. 0 0.0212(3) 
Ta4 Ta5+ 8 c 0.25417(5) 0.33590(2) 0.12450(1) 1. 0 0.01346(5) 
Ta5 Ta5+ 8 c 0.50425(5) 0.58398(3) 0.12619(1) 1. 0 0.01311(5) 
Ta6 Ta5+ 8 c 0.75271(5) 0.33433(2) 0.12357(1) 1. 0 0.01332(5) 
Ca5 Ca2+ 8 c 0.4991(3) 0.0827(2) 0.12569(4) 1. 0 0.0257(4) 
Ta7 Ta5+ 8 c 0.27356(4) 0.00083(2) 0.18881(1) 1. 0 0.01380(5) 
Ca6 Ca2+ 8 c 0.9956(3) 0.2464(1) 0.18599(4) 1. 0 0.0240(4) 
Ca7 Ca2+ 8 c 0.2477(3) 0.4984(1) 0.18765(3) 1. 0 0.0204(3) 
Ca8 Ca2+ 8 c 0.4956(3) 0.2569(2) 0.18563(5) 1. 0 0.0306(5) 
Ta8 Ta5+ 4 b 0.5 0.41122(4) 0.250 1. 0 0.01359(8) 
Ta9 Ta5+ 8 c 0.75044(5) 0.16033(2) 0.24719(1) 1. 0 0.01377(5) 
Ca9 Ca2+ 4 b 0 0.4094(2) 0.250 1. 0 0.0285(6) 
O1 O2- 8 c 0.5570(7) 0.3985(4) 0.0059(1) 1. 0 0.0181(1) 
O2 O2- 8 c 0.9637(7) 0.4020(4) 0.0062(1) 1. 0 0.0157(10) 
O3 O2- 8 c 0.2611(8) 0.2779(4) 0.0122(1) 1. 0 0.0206(9) 
O4 O2- 8 c 0.5690(8) 0.2282(5) 0.0384(1) 1. 0 0.0203(10) 
O5 O2- 8 c 0.9561(7) 0.2271(5) 0.0407(1) 1. 0 0.0175(10) 
O6 O2- 8 c 0.7624(8) 0.0233(4) 0.0442(1) 1. 0 0.0171(8) 
O7 O2- 8 c 0.2581(8) 0.0176(4) 0.0408(1) 1. 0 0.0183(9) 
O8 O2- 8 c 0.9434(8) 0.1057(4) 0.0864(1) 1. 0 0.0181(10) 
O9 O2- 8 c 0.5351(7) 0.1002(4) 0.0819(1) 1. 0 0.0176(10) 
O10 O2- 8 c 0.7453(8) 0.2979(4) 0.0840(1) 1. 0 0.0164(8) 
O11 O2- 8 c 0.2826(7) 0.3423(4) 0.0841(1) 1. 0 0.0174(9) 
O12 O2- 8 c 0.8397(8) 0.1993(4) 0.1374(1) 1. 0 0.0181(9) 
O13 O2- 8 c 0.6735(8) 0.4759(4) 0.1126(1) 1. 0 0.0187(1) 
O14 O2- 8 c 0.5046(9) 0.2840(4) 0.1299(1) 1. 0 0.0214(10) 
O15 O2- 8 c 0.2023(8) 0.1859(4) 0.1198(1) 1. 0 0.0204(10) 
O16 O2- 8 c 0.2992(7) 0.4881(4) 0.1300(1) 1. 0 0.0158(9) 
O17 O2- 8 c 0.9999(8) 0.3885(4) 0.1183(1) 1. 0 0.0171(9) 
O18 O2- 8 c 0.4607(7) 0.0794(5) 0.1702(1) 1. 0 0.0179(9) 
O19 O2- 8 c 0.0624(7) 0.0651(4) 0.1653(1) 1. 0 0.0176(10) 
O20 O2- 8 c 0.2337(8) 0.3288(4) 0.1655(1) 1. 0 0.0180(9) 
O21 O2- 8 c 0.7530(9) 0.3792(4) 0.1627(1) 1. 0 0.0187(8) 
O22 O2- 8 c 0.2250(8) 0.1261(4) 0.2114(1) 1. 0 0.0201(10) 
O23 O2- 8 c 0.7435(8) 0.1784(4) 0.2074(1) 1. 0 0.0180(8) 
O24 O2- 8 c 0.5670(7) 0.4216(5) 0.2101(1) 1. 0 0.0171(9) 
O25 O2- 8 c 0.9628(7) 0.4212(5) 0.2059(1) 1. 0 0.0187(10) 
O26 O2- 8 c 0.8031(7) 0.0109(4) 0.2399(1) 1. 0 0.0169(9) 
O27 O2- 4 b 0 0.6162(6) 0.250 1. 0 0.0229(15) 
O28 O2- 4 b 0 0.2175(5) 0.250 1. 0 0.0160(12) 
O29 O2- 8 c 0.3224(8) 0.3007(4) 0.2410(1) 1. 0 0.0198(10) 

loop_
_atom_site_aniso_label
_atom_site_aniso_type_symbol
_atom_site_aniso_U_11
_atom_site_aniso_U_22
_atom_site_aniso_U_33
_atom_site_aniso_U_12
_atom_site_aniso_U_13
_atom_site_aniso_U_23
Ta1 Ta5+ 0.0139(1) 0.0133(1) 0.0136(2) 0.0000 0.0000 -0.0001(1)
Ta2 Ta5+ 0.0133(1) 0.0128(1) 0.0131(1) 0.0002(1) -0.0001(1) 0.0001(1)
Ca1 Ca2+ 0.027(10) 0.0355(11) 0.0111(8) 0.0000 0.0000 -0.0025(7)
Ta3 Ta5+ 0.0145(1) 0.0133(1) 0.0131(1) 0.0001(1) -0.0004(1) 0.0003(1)
Ca2 Ca2+ 0.0256(7) 0.0158(5) 0.0259(7) 0.0060(6) -0.0067(7) -0.0062(5)
Ca3 Ca2+ 0.0165(5) 0.0183(5) 0.0238(7) 0.0005(5) -0.0012(6) -0.0003(6)
Ca4 Ca2+ 0.0153(6) 0.0250(6) 0.0233(7) -0.0007(5) 0.0021(6) 0.0076(6)
Ta4 Ta5+ 0.0140(1) 0.0129(1) 0.0134(1) -0.0001(1) 0.0002(1) 0.0002(1)
Ta5 Ta5+ 0.0136(1) 0.0120(1) 0.0138(1) 0.0003(1) -0.0009(1) 0.0001(1)
Ta6 Ta5+ 0.0133(1) 0.0129(1) 0.0138(1) 0.0007(1) 0.0003(1) -0.0006(1)
Ca5 Ca2+ 0.0376(10) 0.0280(8) 0.0115(6) 0.0114(9) 0.0021(7) 0.0016(6)
Ta7 Ta5+ 0.0144(1) 0.0136(1) 0.0134(1) 0.0002(1) -0.0004(1) -0.0005(1)
Ca6 Ca2+ 0.0229(8) 0.0194(7) 0.0298(9) -0.0042(8) 0.0088(7) -0.0049(6)
Ca7 Ca2+ 0.0229(6) 0.0169(5) 0.0215(6) 0.0009(9) 0.0001(6) 0.0002(5)
Ca8 Ca2+ 0.0330(10) 0.0213(8) 0.0377(11) 0.0102(9) -0.0205(9) -0.0089(7)
Ta8 Ta5+ 0.0149(2) 0.0121(2) 0.0138(2) 0.0000 0.0002(1) 0.0000
Ta9 Ta5+ 0.0142(1) 0.0132(1) 0.0139(1) 0.0004(1) 0.0003(1) 0.0002(1)
Ca9 Ca2+ 0.0404(15) 0.0277(13) 0.018(13) 0.0000 -0.0033(11) 0.0000
O1 O2- 0.019(2) 0.010(2) 0.025(3) -0.002(2) 0.002(2) 0.001(2)
O2 O2- 0.013(2) 0.018(2) 0.016(2) 0.004(2) -0.000(2) -0.005(2)
O3 O2- 0.018(2) 0.022(2) 0.022(2) 0.000(2) -0.003(2) -0.002(2)
O4 O2- 0.021(2) 0.023(3) 0.017(2) 0.003(2) -0.003(2) 0.001(2)
O5 O2- 0.014(2) 0.022(2) 0.016(2) -0.002(2) 0.003(2) 0.004(2)
O6 O2- 0.018(2) 0.014(2) 0.019(2) 0.001(2) 0.001(2) -0.002(1)
O7 O2- 0.022(2) 0.018(2) 0.015(2) 0.001(2) -0.001(2) -0.002(1)
O8 O2- 0.020(2) 0.018(2) 0.017(2) 0.005(2) -0.001(2) 0.002(2)
O9 O2- 0.018(2) 0.020(2) 0.016(2) 0.001(2) 0.000(2) -0.003(2)
O10 O2- 0.019(2) 0.014(2) 0.016(2) -0.002(2) -0.001(2) -0.003(1)
O11 O2- 0.021(2) 0.017(2) 0.014(2) -0.000(2) 0.001(2) 0.001(2)
O12 O2- 0.024(2) 0.013(2) 0.018(2) 0.006(2) -0.001(2) -0.001(2)
O13 O2- 0.025(2) 0.012(2) 0.019(2) 0.006(2) 0.008(2) -0.000(2)
O14 O2- 0.023(3) 0.014(2) 0.027(3) -0.003(2) 0.001(2) 0.002(2)
O15 O2- 0.023(3) 0.020(2) 0.018(2) -0.002(2) -0.004(2) 0.004(2)
O16 O2- 0.012(2) 0.008(2) 0.028(3) -0.002(1) 0.000(2) -0.000(2)
O17 O2- 0.008(2) 0.024(2) 0.019(2) -0.002(2) -0.001(2) 0.003(2)
O18 O2- 0.019(2) 0.022(2) 0.013(2) -0.003(2) 0.002(2) -0.002(2)
O19 O2- 0.017(2) 0.018(2) 0.017(2) 0.003(2) -0.001(2) -0.002(2)
O20 O2- 0.023(2) 0.018(2) 0.013(2) -0.003(2) 0.000(2) 0.003(1)
O21 O2- 0.022(2) 0.019(2) 0.015(2) 0.001(2) 0.003(2) -0.006(1)
O22 O2- 0.024(3) 0.017(2) 0.018(2) 0.004(2) -0.007(2) -0.004(2)
O23 O2- 0.017(2) 0.017(2) 0.020(2) 0.001(2) 0.000(2) 0.003(2)
O24 O2- 0.016(2) 0.019(2) 0.016(2) -0.006(2) 0.004(2) -0.002(2)
O25 O2- 0.018(2) 0.020(2) 0.018(2) 0.002(2) -0.000(2) 0.002(2)
O26 O2- 0.021(2) 0.018(2) 0.012(2) 0.001(2) 0.001(2) 0.001(2)
O28 O2- 0.018(3) 0.006(2) 0.024(3) 0.000 -0.002(3) 0.000
O29 O2- 0.023(2) 0.014(2) 0.022(2) -0.003(2) -0.002(2) 0.002(2)
#End of data_154319-ICSD


