data_189830-ICSD
#?2014 by Fachinformationszentrum Karlsruhe, and the U.S. Secretary of 
#Commerce on behalf of the United States.  All rights reserved.
_database_code_ICSD                189830
_audit_creation_date               2014/02/01
_chemical_name_systematic          'Magnesium Silicate'
_chemical_formula_structural       'Mg (Si O3)'
_chemical_formula_sum              'Mg1 O3 Si1'
_chemical_name_mineral             Clinoenstatite
_publ_section_title
;
Single-crystal metastable high-temperature C2/c clinoenstatite 
quenched rapidly from high temperature and high pressure
;
loop_
_citation_id
_citation_journal_abbrev
_citation_year
_citation_journal_volume
_citation_journal_issue
_citation_page_first
_citation_page_last
_citation_journal_id_ASTM
primary
;
Acta Crystallographica, Section B: Structural Science, Crystal 
Engineering and Materials
;
 2013 69 6 541 546 ACSBDA
_publ_author_name
;
Yoshiasa, Akira;Nakatsuka, Akihiko;Okube, Maki;Katsura, Tomoo
;
_cell_length_a                     9.5387(8)
_cell_length_b                     8.6601(7)
_cell_length_c                     5.2620(4)
_cell_angle_alpha                  90.0000
_cell_angle_beta                   108.701(6)
_cell_angle_gamma                  90.0000
_cell_volume                       411.72
_cell_formula_units_Z              8
_symmetry_space_group_name_H-M     'C 1 2/c 1'
_symmetry_Int_Tables_number        15
_refine_ls_R_factor_all            .029
loop_
_symmetry_equiv_pos_site_id
_symmetry_equiv_pos_as_xyz
  1	'x, -y, z+.5'
  2	'-x, -y, -z'
  3	'-x, y, -z+.5'
  4	'x, y, z'
  5	'x+.5, -y+.5, z+.5'
  6	'-x+.5, -y+.5, -z'
  7	'-x+.5, y+.5, -z+.5'
  8	'x+.5, y+.5, z'
loop_
_atom_type_symbol
_atom_type_oxidation_number
Mg2+	2
O2-	-2
Si4+	4
loop_
_atom_site_label
_atom_site_type_symbol
_atom_site_symmetry_multiplicity
_atom_site_Wyckoff_symbol
_atom_site_fract_x
_atom_site_fract_y
_atom_site_fract_z
_atom_site_occupancy
_atom_site_attached_hydrogens
_atom_site_U_iso_or_equiv
Mg1 Mg2+ 4 e 0.0000 0.90420(10) 0.2500 1.00 0 0.0052(2) 
Mg2 Mg2+ 4 e 0.0000 0.28560(10) 0.2500 1.00 0 0.0255(4) 
Si1 Si4+ 8 f 0.29223(6) 0.09198(7) 0.24570(10) 1.00 0 0.01020(10) 
O1 O2- 8 f 0.11300(10) 0.0828(2) 0.1380(3) 1.00 0 0.0232(4) 
O2 O2- 8 f 0.3636(2) 0.2577(2) 0.3179(3) 1.00 0 0.0225(5) 
O3 O2- 8 f 0.35430(10) 0.0065(2) 0.0258(3) 1.00 0 0.0197(4) 

loop_
_atom_site_aniso_label
_atom_site_aniso_type_symbol
_atom_site_aniso_U_11
_atom_site_aniso_U_22
_atom_site_aniso_U_33
_atom_site_aniso_U_12
_atom_site_aniso_U_13
_atom_site_aniso_U_23
Mg1 Mg2+ 0.0053(3) 0.0042(4) 0.0051(4) 0.0000 0.0004(3) 0.0000
Mg2 Mg2+ 0.0244(6) 0.0284(7) 0.0192(7) 0.0000 0.0007(5) 0.0000
Si1 Si4+ 0.0077(2) 0.0121(3) 0.0104(3) -0.0002(3) 0.0026(2) -0.0016(3)
O1 O2- 0.0080(6) 0.0333(9) 0.0263(9) 0.0068(7) 0.0027(6) -0.0095(8)
O2 O2- 0.0303(9) 0.0134(7) 0.0247(9) -0.0022(7) 0.0102(8) -0.0042(7)
O3 O2- 0.0131(5) 0.0280(8) 0.0178(8) 0.0027(7) 0.0045(6) -0.0107(7)
#End of data_189830-ICSD


