data_28420-ICSD
#?2014 by Fachinformationszentrum Karlsruhe, and the U.S. Secretary of 
#Commerce on behalf of the United States.  All rights reserved.
_database_code_ICSD                28420
_audit_creation_date               1980/01/01
_chemical_name_systematic          'Lithium Tetrahydroxoborate'
_chemical_formula_structural       'Li B (O H)4'
_chemical_formula_sum              'H4 B1 Li1 O4'
_publ_section_title
;
Anwendung der Methode der linearen Strukturfaktorgleichungssysteme 
zur Bestimmung des Strukturprinzips zentrosymmetrischer Strukturen 
aus Harkerschnitten
;
loop_
_citation_id
_citation_journal_abbrev
_citation_year
_citation_journal_volume
_citation_page_first
_citation_page_last
_citation_journal_id_ASTM
primary 'Monatsberichte der Deutschen Akademie der Wissenschaften zu Berlin'
 1966 8 648 654 MDAWAH
_publ_author_name                  'Kutschabsky, L.;Reck, G.'
_cell_length_a                     9.169
_cell_length_b                     7.958
_cell_length_c                     8.548
_cell_angle_alpha                  90.
_cell_angle_beta                   90.
_cell_angle_gamma                  90.
_cell_volume                       623.72
_cell_formula_units_Z              8
_symmetry_space_group_name_H-M     'P b c a'
_symmetry_Int_Tables_number        61
_refine_ls_R_factor_all            .07
loop_
_symmetry_equiv_pos_site_id
_symmetry_equiv_pos_as_xyz
  1	'x+.5, y, -z+.5'
  2	'x, -y+.5, z+.5'
  3	'-x+.5, y+.5, z'
  4	'-x, -y, -z'
  5	'-x+.5, -y, z+.5'
  6	'-x, y+.5, -z+.5'
  7	'x+.5, -y+.5, -z'
  8	'x, y, z'
loop_
_atom_type_symbol
_atom_type_oxidation_number
B3+	3
H1+	1
Li1+	1
O2-	-2
loop_
_atom_site_label
_atom_site_type_symbol
_atom_site_symmetry_multiplicity
_atom_site_Wyckoff_symbol
_atom_site_fract_x
_atom_site_fract_y
_atom_site_fract_z
_atom_site_occupancy
_atom_site_attached_hydrogens
Li1 Li1+ 8 c 0.1986 0.869 0.3752 1. 0 
B1 B3+ 8 c 0.0925 0.3292 0.6652 1. 0 
O1 O2- 8 c 0.0753 0.0665 0.3099 1. 0 
O2 O2- 8 c 0.0468 0.705 0.4151 1. 0 
O3 O2- 8 c 0.1889 0.424 0.5591 1. 0 
O4 O2- 8 c 0.154 0.1647 0.7083 1. 0 
H1 H1+ 8 c 0.0246 0.16 0.386 1. 0 
H2 H1+ 8 c 0.0875 0.585 0.425 1. 0 
H3 H1+ 8 c 0.243 0.475 0.11 1. 0 
H4 H1+ 8 c 0.0806 0.42 0.225 1. 0 

#End of data_28420-ICSD


