data_183885-ICSD
#?2014 by Fachinformationszentrum Karlsruhe, and the U.S. Secretary of 
#Commerce on behalf of the United States.  All rights reserved.
_database_code_ICSD                183885
_audit_creation_date               2012/08/01
_audit_update_record               2013/02/01
_chemical_name_systematic
;
Sodium Calcium Diberyllium Diborate Fluoride
;
_chemical_formula_structural       'Na Ca Be2 (B O3)2 F'
_chemical_formula_sum              'B2 Be2 Ca1 F1 Na1 O6'
_publ_section_title
;
Molecular engineering design to resolve the layering habit and 
polymorphism problems in deep UV NLO crystals: new structures in M M' 
Be2 B2 O6 F (M = Na, M' = Ca; M = K, M' = Ca, Sr)
;
loop_
_citation_id
_citation_journal_abbrev
_citation_year
_citation_journal_volume
_citation_page_first
_citation_page_last
_citation_journal_id_ASTM
primary 'Chemistry of Materials' 2011 23 5457 5463 CMATEX
_publ_author_name
;
Huang Hongwei;Yao Jiyong;Lin Zheshuai;Wang Xiaoyang;He Ran;Yao 
Wenjiao;Zhai Naixia;Chen Chuangtian
;
_cell_length_a                     4.6232(9)
_cell_length_b                     8.008(3)
_cell_length_c                     14.182(3)
_cell_angle_alpha                  90.00
_cell_angle_beta                   90.00(3)
_cell_angle_gamma                  90.00
_cell_volume                       525.05
_cell_formula_units_Z              4
_symmetry_space_group_name_H-M     'C 1 c 1'
_symmetry_Int_Tables_number        9
_refine_ls_R_factor_all            .0546
loop_
_symmetry_equiv_pos_site_id
_symmetry_equiv_pos_as_xyz
  1	'x, -y, z+.5'
  2	'x, y, z'
  3	'x+.5, -y+.5, z+.5'
  4	'x+.5, y+.5, z'
loop_
_atom_type_symbol
_atom_type_oxidation_number
B3+	3
Be2+	2
Ca2+	2
F1-	-1
Na1+	1
O2-	-2
loop_
_atom_site_label
_atom_site_type_symbol
_atom_site_symmetry_multiplicity
_atom_site_Wyckoff_symbol
_atom_site_fract_x
_atom_site_fract_y
_atom_site_fract_z
_atom_site_occupancy
_atom_site_attached_hydrogens
_atom_site_U_iso_or_equiv
Ca1 Ca2+ 4 a -0.1040(5) 0.00862(11) 0.1123(2) 1 0 0.0054(2) 
Na1 Na1+ 4 a -0.1148(13) -0.0004(5) -0.1349(6) 1 0 0.0106(5) 
Be1 Be2+ 4 a -0.093(3) -0.3415(14) -0.0248(7) 1 0 0.012(3) 
Be2 Be2+ 4 a 0.397(2) 0.1790(13) -0.2485(7) 1 0 0.007(2) 
B1 B3+ 4 a -0.618(2) -0.1534(9) -0.2787(6) 1 0 0.0040(17) 
B2 B3+ 4 a -0.095(2) 0.3230(12) -0.0001(7) 1 0 0.0084(18) 
O1 O2- 4 a 0.0232(17) -0.5231(8) -0.0037(6) 1 0 0.0152(17) 
O2 O2- 4 a 0.1117(12) -0.2031(8) 0.0205(4) 1 0 0.0102(14) 
O3 O2- 4 a 0.0745(11) 0.1858(7) -0.0115(4) 1 0 0.0044(11) 
O4 O2- 4 a 0.259(2) -0.0015(6) -0.2721(7) 1 0 0.0187(19) 
O5 O2- 4 a -0.3219(12) -0.1659(7) -0.2651(4) 1 0 0.0041(11) 
O6 O2- 4 a -0.3001(12) 0.2175(8) -0.3023(5) 1 0 0.0132(14) 
F1 F1- 4 a -0.0169(10) -0.3120(6) -0.1395(4) 1 0 0.0135(8) 

loop_
_atom_site_aniso_label
_atom_site_aniso_type_symbol
_atom_site_aniso_U_11
_atom_site_aniso_U_22
_atom_site_aniso_U_33
_atom_site_aniso_U_12
_atom_site_aniso_U_13
_atom_site_aniso_U_23
Ca1 Ca2+ 0.0078(5) 0.0039(5) 0.0046(4) -0.0003(8) -0.0006(5) -0.0005(7)
Na1 Na1+ 0.0091(13) 0.0136(14) 0.0092(11) 0.0029(9) 0.0046(13) -0.0032(9)
Be1 Be2+ 0.023(6) 0.011(5) 0.002(5) 0.002(4) 0.004(5) 0.000(3)
Be2 Be2+ 0.002(4) 0.011(5) 0.008(6) -0.008(4) -0.008(4) -0.003(4)
B1 B3+ 0.002(3) 0.003(3) 0.007(5) 0.000(3) -0.001(3) -0.001(3)
B2 B3+ 0.010(4) 0.013(4) 0.002(4) 0.000(4) -0.004(3) -0.002(3)
O1 O2- 0.009(3) 0.007(3) 0.030(4) 0.006(2) 0.007(3) 0.016(3)
O2 O2- 0.010(3) 0.003(2) 0.018(3) -0.004(2) 0.010(2) -0.010(2)
O3 O2- 0.002(2) 0.005(2) 0.006(2) -0.004(2) 0.0027(19) -0.006(2)
O4 O2- 0.012(4) 0.011(3) 0.034(5) -0.002(2) -0.018(3) 0.004(2)
O5 O2- 0.006(3) 0.006(3) 0.002(2) 0.0051(18) 0.0019(19) -0.0035(17)
O6 O2- 0.012(3) 0.014(3) 0.014(3) 0.002(2) 0.004(2) 0.009(2)
F1 F1- 0.0069(19) 0.026(2) 0.0079(16) 0.0074(17) 0.0047(18) 0.0117(19)
#End of data_183885-ICSD


