data_421592-ICSD
#?2014 by Fachinformationszentrum Karlsruhe, and the U.S. Secretary of 
#Commerce on behalf of the United States.  All rights reserved.
_database_code_ICSD                421592
_audit_creation_date               2011/02/01
_chemical_name_systematic
;
Lithium Barium Gallium Nitride Fluoride (1/5/1/3/5)
;
_chemical_formula_structural       'Li Ba5 Ga N3 F5'
_chemical_formula_sum              'Ba5 F5 Ga1 Li1 N3'
_publ_section_title
;
A novel nitridogallate fluoride Li Ba5 Ga N3 F5 - Synthesis, crystal 
structure, and band gap determination
;
loop_
_citation_id
_citation_journal_abbrev
_citation_year
_citation_journal_volume
_citation_journal_issue
_citation_page_first
_citation_page_last
_citation_journal_id_ASTM
primary 'Solid State Sciences' 2010 12 8 1368 1373 SSSCFJ
_publ_author_name                  'Hintze, F.;Schnick, W.'
_cell_length_a                     15.456(3)
_cell_length_b                     5.7072(11)
_cell_length_c                     12.259(3)
_cell_angle_alpha                  90.00
_cell_angle_beta                   90.00
_cell_angle_gamma                  90.00
_cell_volume                       1081.37
_cell_formula_units_Z              4
_symmetry_space_group_name_H-M     'P n m a'
_symmetry_Int_Tables_number        62
_refine_ls_R_factor_all            .0212
loop_
_symmetry_equiv_pos_site_id
_symmetry_equiv_pos_as_xyz
  1	'x+.5, y, -z+.5'
  2	'x, -y+.5, z'
  3	'-x+.5, y+.5, z+.5'
  4	'-x, -y, -z'
  5	'-x+.5, -y, z+.5'
  6	'-x, y+.5, -z'
  7	'x+.5, -y+.5, -z+.5'
  8	'x, y, z'
loop_
_atom_type_symbol
_atom_type_oxidation_number
Ba2+	2
F1-	-1
Ga3+	3
Li1+	1
N3-	-3
loop_
_atom_site_label
_atom_site_type_symbol
_atom_site_symmetry_multiplicity
_atom_site_Wyckoff_symbol
_atom_site_fract_x
_atom_site_fract_y
_atom_site_fract_z
_atom_site_occupancy
_atom_site_attached_hydrogens
_atom_site_U_iso_or_equiv
Ba1 Ba2+ 4 c 0.43534(2) 0.2500 0.68180(2) 1 0 0.00923(11) 
Ba2 Ba2+ 4 c 0.51012(2) -0.2500 0.87769(2) 1 0 0.00902(11) 
Ba3 Ba2+ 4 c 0.34365(2) -0.2500 0.47028(2) 1 0 0.00891(11) 
Ba4 Ba2+ 4 c 0.24513(2) -0.2500 0.77891(3) 1 0 0.01000(11) 
Ba5 Ba2+ 4 c 0.16417(2) 0.2500 0.63252(2) 1 0 0.01086(11) 
Ga1 Ga3+ 4 c 0.35910(4) 0.2500 0.92467(4) 1 0 0.00760(15) 
F1 F1- 8 d 0.41109(17) 0.0121(5) 0.30127(17) 1 0 0.0151(6) 
F2 F1- 4 a 0.5000 0.0000 0.5000 1 0 0.0131(7) 
F3 F1- 4 c 0.4075(3) -0.2500 0.6854(3) 1 0 0.0171(8) 
F4 F1- 4 c 0.1779(3) -0.2500 0.9936(3) 1 0 0.0267(10) 
N1 N3- 4 c 0.4799(4) 0.2500 0.8980(4) 1 0 0.0135(11) 
N2 N3- 4 c 0.2813(4) 0.2500 0.8020(4) 1 0 0.0128(10) 
N3 N3- 4 c 0.3152(4) 0.2500 1.0734(4) 1 0 0.0122(10) 
Li1 Li1+ 4 c 0.4585(10) 0.2500 0.4020(8) 1 0 0.026(3) 

loop_
_atom_site_aniso_label
_atom_site_aniso_type_symbol
_atom_site_aniso_U_11
_atom_site_aniso_U_22
_atom_site_aniso_U_33
_atom_site_aniso_U_12
_atom_site_aniso_U_13
_atom_site_aniso_U_23
Ba1 Ba2+ 0.0096(2) 0.0132(2) 0.00498(15) 0.000 0.00024(11) 0.000
Ba2 Ba2+ 0.00889(19) 0.0124(2) 0.00580(16) 0.000 -0.00061(10) 0.000
Ba3 Ba2+ 0.00829(19) 0.0131(2) 0.00530(16) 0.000 -0.00027(11) 0.000
Ba4 Ba2+ 0.0108(2) 0.0123(2) 0.00683(16) 0.000 -0.00089(11) 0.000
Ba5 Ba2+ 0.0134(2) 0.0124(2) 0.00685(16) 0.000 -0.00051(11) 0.000
Ga1 Ga3+ 0.0078(3) 0.0118(4) 0.0032(2) 0.000 0.00023(19) 0.000
F1 F1- 0.0131(14) 0.0205(17) 0.0116(11) -0.0007(11) -0.0004(8) 0.0004(10)
F2 F1- 0.0136(17) 0.015(2) 0.0109(14) 0.0004(13) -0.0020(12) 0.0005(12)
F3 F1- 0.019(2) 0.022(2) 0.0104(15) 0.000 -0.0031(13) 0.000
F4 F1- 0.036(2) 0.025(3) 0.0192(19) 0.000 0.0029(17) 0.000
N1 N3- 0.013(3) 0.021(3) 0.007(2) 0.000 0.0030(18) 0.000
N2 N3- 0.011(3) 0.020(3) 0.008(2) 0.000 0.0009(18) 0.000
N3 N3- 0.014(2) 0.016(3) 0.006(2) 0.000 -0.0010(16) 0.000
Li1 Li1+ 0.047(8) 0.019(8) 0.013(5) 0.000 -0.005(5) 0.000
#End of data_421592-ICSD


