data_100455-ICSD
#?2014 by Fachinformationszentrum Karlsruhe, and the U.S. Secretary of 
#Commerce on behalf of the United States.  All rights reserved.
_database_code_ICSD                100455
_audit_creation_date               1980/01/01
_audit_update_record               2007/08/01
_chemical_name_systematic          'Dialuminium Silicate Oxide'
_chemical_formula_structural       'Al2 (Si O4) O'
_chemical_formula_sum              'Al2 O5 Si1'
_chemical_name_mineral             Kyanite
_publ_section_title
;
Thermal expansion and high temperature crystal chemistry of the Al2 
Si O5 polymorphs
;
loop_
_citation_id
_citation_journal_abbrev
_citation_year
_citation_journal_volume
_citation_page_first
_citation_page_last
_citation_journal_id_ASTM
primary 'American Mineralogist' 1979 64 573 586 AMMIAY
2
;
Zeitschrift fuer Kristallographie, Kristallgeometrie, Kristallphysik, 
Kristallchemie (-144,1977)
;
 1963 118 337 360 ZEKGAX
3
;
Zeitschrift fuer Kristallographie, Kristallgeometrie, Kristallphysik, 
Kristallchemie (-144,1977)
;
 1929 71 117 130 ZEKGAX
_publ_author_name                  'Winter, J.K.;Ghose, S.'
_cell_length_a                     7.1262(12)
_cell_length_b                     7.852(1)
_cell_length_c                     5.5724(10)
_cell_angle_alpha                  89.99(2)
_cell_angle_beta                   101.11(2)
_cell_angle_gamma                  106.03(1)
_cell_volume                       293.6
_cell_formula_units_Z              4
_symmetry_space_group_name_H-M     'P -1'
_symmetry_Int_Tables_number        2
_refine_ls_R_factor_all            .033
loop_
_symmetry_equiv_pos_site_id
_symmetry_equiv_pos_as_xyz
  1	'-x, -y, -z'
  2	'x, y, z'
loop_
_atom_type_symbol
_atom_type_oxidation_number
Al3+	3
O2-	-2
Si4+	4
loop_
_atom_site_label
_atom_site_type_symbol
_atom_site_symmetry_multiplicity
_atom_site_Wyckoff_symbol
_atom_site_fract_x
_atom_site_fract_y
_atom_site_fract_z
_atom_site_occupancy
_atom_site_attached_hydrogens
Al1 Al3+ 2 i 0.3254(1) 0.7040(1) 0.4582(1) 1. 0 
Al2 Al3+ 2 i 0.2974(1) 0.6989(1) 0.9505(1) 1. 0 
Al3 Al3+ 2 i 0.0998(1) 0.3862(1) 0.6403(1) 1. 0 
Al4 Al3+ 2 i 0.1120(1) 0.9175(1) 0.1649(1) 1. 0 
Si1 Si4+ 2 i 0.2962(1) 0.0649(1) 0.7066(1) 1. 0 
Si2 Si4+ 2 i 0.2910(1) 0.3317(1) 0.1892(1) 1. 0 
O1 O2- 2 i 0.1095(2) 0.1468(2) 0.1288(3) 1. 0 
O2 O2- 2 i 0.1230(2) 0.6856(2) 0.1812(3) 1. 0 
O3 O2- 2 i 0.2747(2) 0.4545(2) 0.9547(3) 1. 0 
O4 O2- 2 i 0.2831(2) 0.9354(2) 0.9353(3) 1. 0 
O5 O2- 2 i 0.1084(2) 0.1520(2) 0.6669(3) 1. 0 
O6 O2- 2 i 0.1219(2) 0.6307(2) 0.6389(3) 1. 0 
O7 O2- 2 i 0.2822(2) 0.4453(2) 0.4288(3) 1. 0 
O8 O2- 2 i 0.2915(2) 0.9467(2) 0.4659(3) 1. 0 
O9 O2- 2 i 0.5008(2) 0.2749(2) 0.2440(3) 1. 0 
O10 O2- 2 i 0.5015(2) 0.2312(2) 0.7553(3) 1. 0 

#End of data_100455-ICSD


