data_30965-ICSD
#?2014 by Fachinformationszentrum Karlsruhe, and the U.S. Secretary of 
#Commerce on behalf of the United States.  All rights reserved.
_database_code_ICSD                30965
_audit_creation_date               1986/12/03
_audit_update_record               1986/12/13
_chemical_name_systematic          'Trizinc Dirubidium Diphosphate'
_chemical_formula_structural       'Zn3 Rb2 (P2 O7)2'
_chemical_formula_sum              'O14 P4 Rb2 Zn3'
_publ_section_title
;
Crystal data on Zn3 Rb2 (P2 O7)2 and Co3 Rb2 (P2 O7)2
;
loop_
_citation_id
_citation_journal_abbrev
_citation_year
_citation_journal_volume
_citation_page_first
_citation_page_last
_citation_journal_id_ASTM
primary 'Zeitschrift fuer Kristallographie (1979-2010)' 1985 171 113 119 ZEKRDZ
_publ_author_name                  'Averbuch-Pouchot, M.T.'
_cell_length_a                     13.22(1)
_cell_length_b                     7.224(6)
_cell_length_c                     7.196(5)
_cell_angle_alpha                  90.
_cell_angle_beta                   92.08
_cell_angle_gamma                  90.
_cell_volume                       686.77
_cell_formula_units_Z              2
_symmetry_space_group_name_H-M     'P 1 21 1'
_symmetry_Int_Tables_number        4
_refine_ls_R_factor_all            .043
loop_
_symmetry_equiv_pos_site_id
_symmetry_equiv_pos_as_xyz
  1	'-x, y+.5, -z'
  2	'x, y, z'
loop_
_atom_type_symbol
_atom_type_oxidation_number
O2-	-2
P5+	5
Rb1+	1
Zn2+	2
loop_
_atom_site_label
_atom_site_type_symbol
_atom_site_symmetry_multiplicity
_atom_site_Wyckoff_symbol
_atom_site_fract_x
_atom_site_fract_y
_atom_site_fract_z
_atom_site_occupancy
_atom_site_attached_hydrogens
_atom_site_B_iso_or_equiv
Rb1 Rb1+ 2 a 0.09409(8) 0.4927(2) 0.3890(2) 1. 0 1.83(3) 
Rb2 Rb1+ 2 a 0.41692(9) 0.2508(2) 0.9468(2) 1. 0 1.78(3) 
Zn1 Zn2+ 2 a 0.09781(8) 0 0.2090(2) 1. 0 0.90(2) 
Zn2 Zn2+ 2 a 0.26327(9) 0.6200(2) 0.7920(2) 1. 0 0.92(3) 
Zn3 Zn2+ 2 a 0.38737(10) 0.0898(2) 0.4518(2) 1. 0 1.13(3) 
P1 P5+ 2 a 0.3882(2) 0.5129(4) 0.4328(3) 1. 0 0.87(5) 
P2 P5+ 2 a 0.3103(2) 0.7885(4) 0.1647(3) 1. 0 0.93(6) 
P3 P5+ 2 a 0.1834(2) 0.9842(4) 0.6350(3) 1. 0 0.85(5) 
P4 P5+ 2 a 0.1075(2) 0.2753(4) 0.8883(3) 1. 0 0.84(6) 
O1 O2- 2 a 0.3656(7) 0.508(2) 0.636(1) 1. 0 1.8(2) 
O2 O2- 2 a 0.4909(7) 0.590(2) 0.391(1) 1. 0 2.9(3) 
O3 O2- 2 a 0.3661(13) 0.331(2) 0.338(2) 1. 0 3.2(4) 
O4 O2- 2 a 0.3050(7) 0.651(1) 0.337(1) 1. 0 1.4(2) 
O5 O2- 2 a 0.2009(8) 0.837(2) 0.126(1) 1. 0 2.1(3) 
O6 O2- 2 a 0.3776(9) 0.946(1) 0.225(1) 1. 0 1.9(3) 
O7 O2- 2 a 0.3541(7) 0.684(1) 0.005(1) 1. 0 1.2(2) 
O8 O2- 2 a 0.1679(6) 0.778(1) 0.658(1) 1. 0 1.2(2) 
O9 O2- 2 a 0.1259(7) 0.068(1) 0.471(1) 1. 0 1.4(2) 
O10 O2- 2 a 0.2947(7) 0.040(2) 0.647(1) 1. 0 1.7(2) 
O11 O2- 2 a 0.1304(7) 0.072(1) 0.816(1) 1. 0 1.2(2) 
O12 O2- 2 a 0.0213(8) 0.347(2) 0.767(1) 1. 0 1.8(2) 
O13 O2- 2 a 0.0801(8) 0.236(1) 0.087(1) 1. 0 1.7(2) 
O14 O2- 2 a 0.2008(9) 0.392(1) 0.877(2) 1. 0 2.3(3) 

#End of data_30965-ICSD


