data_412902-ICSD
#?2014 by Fachinformationszentrum Karlsruhe, and the U.S. Secretary of 
#Commerce on behalf of the United States.  All rights reserved.
_database_code_ICSD                412902
_audit_creation_date               2004/04/01
_chemical_name_systematic
;
Sodium Octa-mue3-bromo-octahedro-tetrakis(bromomolybdenum)- 
Bromodimolybdenum
;
_chemical_formula_structural       'Na (Br8 (Mo Br)4 (Mo2 Br))'
_chemical_formula_sum              'Br13 Mo6 Na1'
_publ_section_title
;
New catenary octahedro-hexamolybdenum cluster bromides: crystal 
structures of A Mo6 Br13 with A = Na, Ag
;
loop_
_citation_id
_citation_journal_abbrev
_citation_year
_citation_journal_volume
_citation_page_first
_citation_page_last
_citation_journal_id_ASTM
primary 'Solid State Sciences' 2003 5 573 578 SSSCFJ
_publ_author_name                  'Wang, P.;Xu, W.;Zheng, Y.-Q.'
_cell_length_a                     9.299(1)
_cell_length_b                     9.443(2)
_cell_length_c                     14.480(3)
_cell_angle_alpha                  96.55(1)
_cell_angle_beta                   101.42(1)
_cell_angle_gamma                  115.32(1)
_cell_volume                       1097.88
_cell_formula_units_Z              2
_symmetry_space_group_name_H-M     'P -1'
_symmetry_Int_Tables_number        2
_refine_ls_R_factor_all            .0463
loop_
_symmetry_equiv_pos_site_id
_symmetry_equiv_pos_as_xyz
  1	'-x, -y, -z'
  2	'x, y, z'
loop_
_atom_type_symbol
_atom_type_oxidation_number
Br1-	-1
Mo2+	2
Na1+	1
loop_
_atom_site_label
_atom_site_type_symbol
_atom_site_symmetry_multiplicity
_atom_site_Wyckoff_symbol
_atom_site_fract_x
_atom_site_fract_y
_atom_site_fract_z
_atom_site_occupancy
_atom_site_attached_hydrogens
_atom_site_U_iso_or_equiv
Na1 Na1+ 2 i 1.0018(9) 0.7580(8) 0.2285(5) 1. 0 0.0594(17) 
Mo1 Mo2+ 2 i 0.44743(14) 0.01013(13) 0.11764(7) 1. 0 0.0288(2) 
Mo2 Mo2+ 2 i 0.69889(13) 0.00686(13) 0.06158(8) 1. 0 0.0284(2) 
Mo3 Mo2+ 2 i 0.60202(14) 0.22357(12) 0.02392(8) 1. 0 0.0292(2) 
Mo4 Mo2+ 2 i 0.45930(14) 0.31461(13) 0.41511(8) 1. 0 0.0309(3) 
Mo5 Mo2+ 2 i 0.68662(14) 0.61857(13) 0.46064(8) 1. 0 0.0316(3) 
Mo6 Mo2+ 2 i 0.37016(14) 0.54243(13) 0.40312(8) 1. 0 0.0316(3) 
Br1 Br1- 2 i 0.74623(16) 0.23598(16) 0.20074(9) 1. 0 0.0359(3) 
Br2 Br1- 2 i 0.34948(16) 0.21768(15) 0.07579(9) 1. 0 0.0347(3) 
Br3 Br1- 2 i 0.15103(17) -.22062(16) 0.03076(10) 1. 0 0.0362(3) 
Br4 Br1- 2 i 0.54319(17) -.20344(16) 0.15366(9) 1. 0 0.0359(3) 
Br5 Br1- 2 i 0.97329(18) 0.00974(18) 0.14136(10) 1. 0 0.0428(3) 
Br6 Br1- 2 i 0.74113(19) 0.53397(17) 0.06144(11) 1. 0 0.0470(4) 
Br7 Br1- 2 i 0.14907(17) 0.24384(16) 0.36308(10) 1. 0 0.0396(3) 
Br8 Br1- 2 i 0.52059(19) 0.47920(17) 0.28359(9) 1. 0 0.0404(3) 
Br9 Br1- 2 i 0.76981(17) 0.38827(17) 0.47243(10) 1. 0 0.0404(3) 
Br10 Br1- 2 i 0.40559(18) 0.15757(16) 0.55077(10) 1. 0 0.0393(3) 
Br11 Br1- 2 i 0.9510(2) 0.7913(2) 0.41171(12) 1. 0 0.0560(4) 
Br12 Br1- 2 i 0.1848(2) 0.58006(19) 0.25880(11) 1. 0 0.0508(4) 
Br13 Br1- 2 i 0.38589(18) 0.03766(16) 0.29322(9) 1. 0 0.0371(3) 

loop_
_atom_site_aniso_label
_atom_site_aniso_type_symbol
_atom_site_aniso_U_11
_atom_site_aniso_U_22
_atom_site_aniso_U_33
_atom_site_aniso_U_12
_atom_site_aniso_U_13
_atom_site_aniso_U_23
Na1 Na1+ 0.078(5) 0.062(4) 0.049(4) 0.039(4) 0.022(3) 0.018(3)
Mo1 Mo2+ 0.0312(6) 0.0294(5) 0.0269(5) 0.0143(5) 0.0094(4) 0.0064(4)
Mo2 Mo2+ 0.0284(5) 0.0291(5) 0.0274(5) 0.0136(4) 0.0074(4) 0.0049(4)
Mo3 Mo2+ 0.0308(6) 0.0270(5) 0.0297(5) 0.0131(5) 0.0094(4) 0.0059(4)
Mo4 Mo2+ 0.0349(6) 0.0303(6) 0.0276(5) 0.0162(5) 0.0078(5) 0.0036(4)
Mo5 Mo2+ 0.0342(6) 0.0314(6) 0.0293(5) 0.0154(5) 0.0098(5) 0.0050(4)
Mo6 Mo2+ 0.0350(6) 0.0316(6) 0.0280(5) 0.0166(5) 0.0063(5) 0.0043(4)
Br1 Br1- 0.0357(7) 0.0363(7) 0.0319(6) 0.0155(6) 0.0069(5) 0.0026(5)
Br2 Br1- 0.0363(7) 0.0353(7) 0.0349(7) 0.0189(6) 0.0106(6) 0.0058(5)
Br3 Br1- 0.0349(7) 0.0357(7) 0.0378(7) 0.0147(6) 0.0135(6) 0.0086(5)
Br4 Br1- 0.0408(7) 0.0372(7) 0.0350(7) 0.0207(6) 0.0122(6) 0.0129(5)
Br5 Br1- 0.0396(8) 0.0494(8) 0.0405(7) 0.0247(7) 0.0062(6) 0.0060(6)
Br6 Br1- 0.0475(9) 0.0321(7) 0.0549(9) 0.0146(6) 0.0097(7) 0.0096(6)
Br7 Br1- 0.0381(7) 0.0382(7) 0.0360(7) 0.0157(6) 0.0046(6) 0.0019(6)
Br8 Br1- 0.0520(8) 0.0391(7) 0.0295(6) 0.0207(6) 0.0121(6) 0.0056(5)
Br9 Br1- 0.0395(7) 0.0426(8) 0.0419(7) 0.0225(6) 0.0111(6) 0.0049(6)
Br10 Br1- 0.0470(8) 0.0351(7) 0.0369(7) 0.0192(6) 0.0124(6) 0.0102(5)
Br11 Br1- 0.0518(9) 0.0563(10) 0.0546(9) 0.0152(8) 0.0269(8) 0.0111(8)
Br12 Br1- 0.0532(9) 0.0536(9) 0.0475(8) 0.0291(8) 0.0049(7) 0.0160(7)
Br13 Br1- 0.0459(8) 0.0344(7) 0.0319(6) 0.0181(6) 0.0145(6) 0.0062(5)
#End of data_412902-ICSD


