data_263040-ICSD
#?2014 by Fachinformationszentrum Karlsruhe, and the U.S. Secretary of 
#Commerce on behalf of the United States.  All rights reserved.
_database_code_ICSD                263040
_audit_creation_date               2013/02/01
_audit_update_record               2014/08/01
_chemical_name_systematic
;
Tetrapotassium Tetrairon Pentaphosphate
;
_chemical_formula_structural       'K4 Fe4 P5 O20'
_chemical_formula_sum              'Fe4 K4 O20 P5'
_publ_section_title
;
K4 Fe4 P5 O20: A new mixed valence microporous compound with 
elliptical eight-ring channels
;
loop_
_citation_id
_citation_journal_abbrev
_citation_year
_citation_journal_volume
_citation_journal_issue
_citation_page_first
_citation_page_last
_citation_journal_id_ASTM
primary 'Inorganic Chemistry' 2012 51 14 7469 7471 INOCAJ
_publ_author_name
;
He Zhangzhen;Zhang Weilong;Cheng Wendan;Okazawa, A.;Kojima, N.
;
_cell_length_a                     9.7450(7)
_cell_length_b                     9.7450(7)
_cell_length_c                     9.3800(9)
_cell_angle_alpha                  90.
_cell_angle_beta                   90.
_cell_angle_gamma                  90.
_cell_volume                       890.77
_cell_formula_units_Z              2
_symmetry_space_group_name_H-M     'P -4 21 c'
_symmetry_Int_Tables_number        114
_refine_ls_R_factor_all            .0466
loop_
_symmetry_equiv_pos_site_id
_symmetry_equiv_pos_as_xyz
  1	'y+.5, x+.5, z+.5'
  2	'y, -x, -z'
  3	'-y+.5, -x+.5, z+.5'
  4	'-y, x, -z'
  5	'x+.5, -y+.5, -z+.5'
  6	'-x, -y, z'
  7	'-x+.5, y+.5, -z+.5'
  8	'x, y, z'
loop_
_atom_type_symbol
_atom_type_oxidation_number
Fe2.75+	2.75
K1+	1
O2-	-2
P5+	5
loop_
_atom_site_label
_atom_site_type_symbol
_atom_site_symmetry_multiplicity
_atom_site_Wyckoff_symbol
_atom_site_fract_x
_atom_site_fract_y
_atom_site_fract_z
_atom_site_occupancy
_atom_site_attached_hydrogens
_atom_site_U_iso_or_equiv
K1 K1+ 8 e 0.6657(2) 0.9284(2) 0.0312(2) 1. 0 0.032(1) 
Fe1 Fe2.75+ 8 e 0.4208(1) 0.6846(1) 0.2099(1) 1. 0 0.018(1) 
P1 P5+ 8 e 0.7376(2) 0.5867(2) 0.1361(2) 1. 0 0.019(1) 
P2 P5+ 2 a 0.5 0.5 0.5 1. 0 0.014(1) 
O1 O2- 8 e 0.7723(6) 0.5979(6) -0.0199(5) 1. 0 0.027(1) 
O2 O2- 8 e 0.7315(6) 0.4390(5) 0.1785(6) 1. 0 0.032(1) 
O3 O2- 8 e 0.8683(6) 0.6416(6) 0.2155(7) 1. 0 0.034(1) 
O4 O2- 8 e 0.6170(7) 0.6725(7) 0.1793(9) 1. 0 0.048(2) 
O5 O2- 8 e 0.4420(5) 0.6152(5) 0.4074(5) 1. 0 0.021(1) 

loop_
_atom_site_aniso_label
_atom_site_aniso_type_symbol
_atom_site_aniso_U_11
_atom_site_aniso_U_22
_atom_site_aniso_U_33
_atom_site_aniso_U_12
_atom_site_aniso_U_13
_atom_site_aniso_U_23
K1 K1+ 0.025(1) 0.033(1) 0.039(1) 0.012(1) -0.007(1) -0.009(1)
Fe1 Fe2.75+ 0.017(1) 0.025(1) 0.011(1) 0.002(1) 0.000(1) -0.001(1)
P1 P5+ 0.026(1) 0.022(1) 0.008(1) 0.004(1) 0.003(1) 0.006(1)
P2 P5+ 0.017(1) 0.017(1) 0.007(1) 0.000 0.000 0.000
O1 O2- 0.032(3) 0.043(3) 0.006(2) 0.001(2) -0.002(2) -0.009(2)
O2 O2- 0.051(3) 0.017(2) 0.028(3) 0.000(2) 0.011(3) -0.007(2)
O3 O2- 0.040(3) 0.037(3) 0.025(3) -0.002(3) -0.011(3) -0.005(2)
O4 O2- 0.027(3) 0.043(4) 0.074(5) 0.003(4) 0.013(3) 0.009(3)
#End of data_263040-ICSD


