data_172567-ICSD
#?2014 by Fachinformationszentrum Karlsruhe, and the U.S. Secretary of 
#Commerce on behalf of the United States.  All rights reserved.
_database_code_ICSD                172567
_audit_creation_date               2007/04/01
_chemical_name_systematic          'Sodium Chlorate(VII)'
_chemical_formula_structural       'Na Cl O4'
_chemical_formula_sum              'Cl1 Na1 O4'
_publ_section_title
;
Sodium perchlorate in the space group Pnma
;
loop_
_citation_id
_citation_journal_abbrev
_citation_year
_citation_journal_volume
_citation_journal_issue
_citation_page_first
_citation_page_last
_citation_journal_id_ASTM
primary 'Acta Crystallographica, Section E. Structure Reports Online'
 2006 62 7 i150 i151 ACSEBH
_publ_author_name
;
Zhang, G.-L.;Li, Y.-T.;Wu, Z.Y.;Song, Y.-L.
;
_cell_length_a                     9.236(7)
_cell_length_b                     5.809(4)
_cell_length_c                     7.444(6)
_cell_angle_alpha                  90.00
_cell_angle_beta                   90.00
_cell_angle_gamma                  90.00
_cell_volume                       399.38
_cell_formula_units_Z              4
_symmetry_space_group_name_H-M     'P n m a'
_symmetry_Int_Tables_number        62
_refine_ls_R_factor_all            .0818
loop_
_symmetry_equiv_pos_site_id
_symmetry_equiv_pos_as_xyz
  1	'x+.5, y, -z+.5'
  2	'x, -y+.5, z'
  3	'-x+.5, y+.5, z+.5'
  4	'-x, -y, -z'
  5	'-x+.5, -y, z+.5'
  6	'-x, y+.5, -z'
  7	'x+.5, -y+.5, -z+.5'
  8	'x, y, z'
loop_
_atom_type_symbol
_atom_type_oxidation_number
Cl7+	7
Na1+	1
O2-	-2
loop_
_atom_site_label
_atom_site_type_symbol
_atom_site_symmetry_multiplicity
_atom_site_Wyckoff_symbol
_atom_site_fract_x
_atom_site_fract_y
_atom_site_fract_z
_atom_site_occupancy
_atom_site_attached_hydrogens
_atom_site_U_iso_or_equiv
Na1 Na1+ 4 c 0.3191(7) 0.7500 0.3323(8) 1 0 0.102(2) 
Cl1 Cl7+ 4 c 0.56799(18) 0.2500 0.1917(2) 1 0 0.0292(8) 
O1 O2- 8 d 0.5798(4) 0.4507(8) 0.3039(5) 1 0 0.0421(12) 
O2 O2- 4 c 0.4314(6) 0.2500 0.1033(10) 1 0 0.060(2) 
O3 O2- 4 c 0.6852(7) 0.2500 0.0656(8) 1 0 0.0491(17) 

loop_
_atom_site_aniso_label
_atom_site_aniso_type_symbol
_atom_site_aniso_U_11
_atom_site_aniso_U_22
_atom_site_aniso_U_33
_atom_site_aniso_U_12
_atom_site_aniso_U_13
_atom_site_aniso_U_23
Na1 Na1+ 0.103(4) 0.105(5) 0.098(4) 0.000 -0.003(3) 0.000
Cl1 Cl7+ 0.0312(11) 0.0288(12) 0.0277(11) 0.000 -0.0009(7) 0.000
O1 O2- 0.049(2) 0.034(2) 0.044(2) 0.0021(18) 0.0019(18) -0.0092(18)
O2 O2- 0.044(4) 0.068(5) 0.068(4) 0.000 -0.026(3) 0.000
O3 O2- 0.058(4) 0.053(4) 0.036(3) 0.000 0.018(3) 0.000
#End of data_172567-ICSD


