data_426520-ICSD
#?2014 by Fachinformationszentrum Karlsruhe, and the U.S. Secretary of 
#Commerce on behalf of the United States.  All rights reserved.
_database_code_ICSD                426520
_audit_creation_date               2014/02/01
_chemical_name_systematic
;
Tellurium Heptachlorodialuminate (4/2)
;
_chemical_formula_structural       'Te4 (Al2 Cl7)2'
_chemical_formula_sum              'Al4 Cl14 Te4'
_publ_section_title
;
Substitution of Conventional High-temperature Syntheses of Inorganic 
Compounds by Near-room-temperature Syntheses in Ionic Liquids
;
loop_
_citation_id
_citation_journal_abbrev
_citation_year
_citation_journal_volume
_citation_journal_issue
_citation_page_first
_citation_page_last
_citation_journal_id_ASTM
primary 'Zeitschrift fuer Naturforschung, B: Chemical Sciences'
 2013 68 10 1108 1122 ZNBSEN
_publ_author_name
;
Matthias F. Groh;Ulrike Mueller;Ejaz Ahmed;Alexander 
Rothenberger;Michael Ruck
;
_cell_length_a                     9.15(2)
_cell_length_b                     11.19(2)
_cell_length_c                     13.09(3)
_cell_angle_alpha                  90
_cell_angle_beta                   90.0(2)
_cell_angle_gamma                  90
_cell_volume                       1340.27
_cell_formula_units_Z              1
_symmetry_space_group_name_H-M     'P -1'
_symmetry_Int_Tables_number        2
_refine_ls_R_factor_all            .022
loop_
_symmetry_equiv_pos_site_id
_symmetry_equiv_pos_as_xyz
  1	'-x, -y, -z'
  2	'x, y, z'
loop_
_atom_type_symbol
_atom_type_oxidation_number
Al3+	3
Cl1-	-1
Te.5+	.5
loop_
_atom_site_label
_atom_site_type_symbol
_atom_site_symmetry_multiplicity
_atom_site_Wyckoff_symbol
_atom_site_fract_x
_atom_site_fract_y
_atom_site_fract_z
_atom_site_occupancy
_atom_site_attached_hydrogens
_atom_site_U_iso_or_equiv
Te1 Te.5+ 2 i 0.0635(4) 0.1553(2) 0.0315(5) 1 0 0.0546(18) 
Te2 Te.5+ 2 i 0.1796(4) 0.5626(3) 0.5449(4) 1 0 0.064(2) 
Al1 Al3+ 2 i 0.3833(16) 0.1749(10) 0.2948(18) 1 0 0.040(7) 
Al2 Al3+ 2 i 0.2327(15) 0.5800(9) 0.1512(17) 1 0 0.040(7) 
Cl1 Cl1- 2 i 0.4096(16) 0.1713(10) 0.1302(16) 1 0 0.071(7) 
Cl2 Cl1- 2 i 0.1698(18) 0.1223(10) 0.3361(18) 1 0 0.078(8) 
Cl3 Cl1- 2 i 0.4492(14) 0.3338(9) 0.3613(15) 1 0 0.066(8) 
Cl4 Cl1- 2 i 0.5233(13) 0.0312(8) 0.3527(15) 1 0 0.050(7) 
Cl5 Cl1- 2 i 0.1909(18) 0.6367(9) 0.0077(16) 1 0 0.073(7) 
Cl6 Cl1- 2 i 0.2219(15) 0.7174(9) 0.2605(17) 1 0 0.071(7) 
Cl7 Cl1- 2 i 0.1361(14) 0.4176(8) 0.1987(15) 1 0 0.061(6) 

loop_
_atom_site_aniso_label
_atom_site_aniso_type_symbol
_atom_site_aniso_U_11
_atom_site_aniso_U_22
_atom_site_aniso_U_33
_atom_site_aniso_U_12
_atom_site_aniso_U_13
_atom_site_aniso_U_23
Te1 Te.5+ 0.046(2) 0.0430(18) 0.075(6) 0.0006(16) -0.014(3) -0.010(2)
Te2 Te.5+ 0.045(2) 0.059(2) 0.088(7) -0.0007(16) -0.022(3) 0.003(3)
Al1 Al3+ 0.048(11) 0.049(8) 0.02(2) 0.003(6) -0.012(13) 0.023(9)
Al2 Al3+ 0.026(9) 0.035(7) 0.06(2) -0.012(6) 0.013(11) 0.001(9)
Cl1 Cl1- 0.082(12) 0.069(8) 0.06(2) -0.005(7) 0.045(13) 0.015(9)
Cl2 Cl1- 0.063(14) 0.101(11) 0.07(2) 0.001(6) 0.022(15) 0.007(10)
Cl3 Cl1- 0.073(11) 0.048(7) 0.08(2) 0.009(6) 0.001(13) 0.005(8)
Cl4 Cl1- 0.041(9) 0.026(7) 0.08(2) 0.007(4) -0.006(11) -0.009(7)
Cl5 Cl1- 0.096(12) 0.054(7) 0.07(2) 0.033(7) 0.001(12) 0.015(9)
Cl6 Cl1- 0.077(12) 0.043(7) 0.09(2) -0.008(6) -0.002(12) -0.014(8)
Cl7 Cl1- 0.070(10) 0.036(7) 0.08(2) 0.005(6) -0.010(10) 0.021(8)
#End of data_426520-ICSD


