data_186998-ICSD
#?2014 by Fachinformationszentrum Karlsruhe, and the U.S. Secretary of 
#Commerce on behalf of the United States.  All rights reserved.
_database_code_ICSD                186998
_audit_creation_date               2013/08/01
_chemical_name_systematic          'Potassium Holmium Tetrafluoride'
_chemical_formula_structural       'K Ho F4'
_chemical_formula_sum              'F4 Ho1 K1'
_publ_section_title
;
Crystal structures and stability of trigonal K Ln F4 fluorides (Ln = 
Y, Ho, Er, Tm, Yb)
;
loop_
_citation_id
_citation_journal_abbrev
_citation_year
_citation_journal_volume
_citation_journal_issue
_citation_page_first
_citation_page_last
_citation_journal_id_ASTM
primary 'Dalton Transactions' 2013 42 2 441 447 DTARAF
_publ_author_name
;
Grzechnik, Andrzej;Khaidukov, Nicholas;Friese, Karen
;
_cell_length_a                     14.1900(10)
_cell_length_b                     14.1900(10)
_cell_length_c                     10.2000(10)
_cell_angle_alpha                  90
_cell_angle_beta                   90
_cell_angle_gamma                  120
_cell_volume                       1778.67
_cell_formula_units_Z              18
_symmetry_space_group_name_H-M     'P 31'
_symmetry_Int_Tables_number        144
_refine_ls_R_factor_all            .0304
loop_
_symmetry_equiv_pos_site_id
_symmetry_equiv_pos_as_xyz
  1	'-x+y, -x, z+.6667'
  2	'-y, x-y, z+.3333'
  3	'x, y, z'
loop_
_atom_type_symbol
_atom_type_oxidation_number
F1-	-1
Ho3+	3
K1+	1
loop_
_atom_site_label
_atom_site_type_symbol
_atom_site_symmetry_multiplicity
_atom_site_Wyckoff_symbol
_atom_site_fract_x
_atom_site_fract_y
_atom_site_fract_z
_atom_site_occupancy
_atom_site_attached_hydrogens
_atom_site_U_iso_or_equiv
Ho1 Ho3+ 3 a 0.13092(3) 0.89028(4) 0.32997(5) 1 0 0.00647(8) 
Ho2 Ho3+ 3 a 0.28333(4) 0.73244(4) 0.31985(6) 1 0 0.00601(8) 
Ho3 Ho3+ 3 a 0.77991(5) 0.20619(4) 0.33963(4) 1 0 0.00640(8) 
Ho4 Ho3+ 3 a 0.94280(4) 0.05934(5) 0.32538(7) 1 0 0.00682(8) 
Ho5 Ho3+ 3 a 0.45263(5) 0.54464(6) 0.32348(4) 1 0 0.00677(7) 
Ho6 Ho3+ 3 a 0.60445(4) 0.38679(4) 0.34418(3) 1 0 0.00634(8) 
K1 K1+ 3 a 0.7812(2) 0.71865(19) 0.3212(2) 1 0 0.0188(7) 
K2 K1+ 3 a 0.26731(18) 0.22010(18) 0.3473(2) 1 0 0.0158(6) 
K3 K1+ 3 a 0.10348(19) 0.3955(2) 0.3126(2) 1 0 0.0178(5) 
K4 K1+ 3 a 0.6114(2) 0.87697(17) 0.3469(2) 1 0 0.0171(6) 
K5 K1+ 3 a 0.9492(2) 0.56257(20) 0.3449(2) 1 0 0.0194(6) 
K6 K1+ 3 a 0.45537(17) 0.06479(14) 0.3138(2) 1 0 0.0158(5) 
F1 F1- 3 a 0.1314(4) 0.9341(3) 0.1128(4) 1 0 0.0158(9) 
F2 F1- 3 a 0.0694(4) 0.8779(4) 0.5400(4) 1 0 0.0176(10) 
F3 F1- 3 a 0.2103(4) 0.5940(3) 0.4670(5) 1 0 0.0224(7) 
F4 F1- 3 a 0.3341(4) 0.7293(3) 0.6513(7) 1 0 0.0305(8) 
F5 F1- 3 a 0.7379(4) 0.2035(4) 0.5577(5) 1 0 0.0176(10) 
F6 F1- 3 a 0.7885(3) 0.2679(4) 0.1307(5) 1 0 0.0158(9) 
F7 F1- 3 a -0.0034(4) 0.0602(3) 0.6599(6) 1 0 0.0305(8) 
F8 F1- 3 a -0.1221(4) -0.0774(3) 0.4741(4) 1 0 0.0224(7) 
F9 F1- 3 a 0.3905(4) 0.5374(4) 0.5331(4) 1 0 0.0176(10) 
F10 F1- 3 a 0.4569(4) 0.5886(3) 0.1062(5) 1 0 0.0158(9) 
F11 F1- 3 a 0.5463(4) 0.2904(4) 0.5350(5) 1 0 0.0224(7) 
F12 F1- 3 a 0.7361(4) 0.3949(3) 0.6776(6) 1 0 0.0305(8) 
F13 F1- 3 a 0.7675(4) 0.7281(3) 0.0649(5) 1 0 0.0162(7) 
F14 F1- 3 a 0.8078(4) 0.7233(3) 0.5753(5) 1 0 0.0150(7) 
F15 F1- 3 a 0.2479(3) 0.2233(3) 0.6072(5) 1 0 0.0155(7) 
F16 F1- 3 a 0.8086(4) 0.0749(4) 0.4302(5) 1 0 0.0147(8) 
F17 F1- 3 a 0.1306(3) 0.3946(3) 0.5673(5) 1 0 0.0150(7) 
F18 F1- 3 a 0.0917(3) 0.4027(3) 0.0612(4) 1 0 0.0162(7) 
F19 F1- 3 a 0.1539(3) 0.7554(3) 0.4241(4) 1 0 0.0147(8) 
F20 F1- 3 a 0.5892(3) 0.8837(3) 0.6032(4) 1 0 0.0155(7) 
F21 F1- 3 a 0.9377(3) 0.5758(3) 0.6002(5) 1 0 0.0155(7) 
F22 F1- 3 a -0.5325(4) 0.4106(4) 0.4255(5) 1 0 0.0147(8) 
F23 F1- 3 a 0.4846(3) 0.0702(3) 0.5686(4) 1 0 0.0150(7) 
F24 F1- 3 a 0.4535(4) 0.0868(3) 0.0582(5) 1 0 0.0162(7) 

loop_
_atom_site_aniso_label
_atom_site_aniso_type_symbol
_atom_site_aniso_U_11
_atom_site_aniso_U_22
_atom_site_aniso_U_33
_atom_site_aniso_U_12
_atom_site_aniso_U_13
_atom_site_aniso_U_23
Ho1 Ho3+ 0.00686(9) 0.00825(10) 0.00621(11) 0.00521(8) -0.00007(8) 
-0.00037(8)
Ho2 Ho3+ 0.00518(10) 0.00570(10) 0.00780(13) 0.00321(8) -0.00091(10) 
-0.00072(8)
Ho3 Ho3+ 0.00714(10) 0.00697(10) 0.00646(11) 0.00454(8) 0.00102(8) 
0.00048(8)
Ho4 Ho3+ 0.00633(10) 0.00635(11) 0.00864(11) 0.00381(8) -0.00062(10) 
-0.00039(9)
Ho5 Ho3+ 0.00713(9) 0.00815(9) 0.00682(10) 0.00515(8) -0.00006(8) 
-0.00019(8)
Ho6 Ho3+ 0.00636(10) 0.00712(9) 0.00746(9) 0.00480(11) -0.00121(9) 
-0.00085(9)
K1 K1+ 0.0159(7) 0.0289(11) 0.0082(6) 0.0086(7) 0.0039(6) 0.0075(6)
K2 K1+ 0.0250(8) 0.0163(7) 0.0062(5) 0.0103(6) 0.0049(5) 0.0037(5)
K3 K1+ 0.0159(6) 0.0231(7) 0.0138(6) 0.0094(6) -0.0040(5) -0.0005(7)
K4 K1+ 0.0321(9) 0.0121(6) 0.0113(6) 0.0142(7) 0.0025(6) 0.0041(4)
K5 K1+ 0.0305(11) 0.0133(6) 0.0164(6) 0.0124(6) 0.0042(6) 0.0019(5)
K6 K1+ 0.0157(7) 0.0115(5) 0.0166(7) 0.0040(4) -0.0009(5) 0.0020(4)
F1 F1- 0.0201(13) 0.0190(10) 0.0123(10) 0.0128(10) 0.0019(8) 0.0068(8)
F2 F1- 0.0209(11) 0.0282(16) 0.0097(9) 0.0168(11) 0.0074(8) 0.0008(8)
F3 F1- 0.0280(8) 0.0182(9) 0.0188(7) 0.0099(9) -0.0044(10) 0.0094(6)
F4 F1- 0.0313(11) 0.0036(4) 0.0487(11) 0.0027(9) 0.0009(9) 0.0010(12)
F5 F1- 0.0209(11) 0.0282(16) 0.0097(9) 0.0168(11) 0.0074(8) 0.0008(8)
F6 F1- 0.0201(13) 0.0190(10) 0.0123(10) 0.0128(10) 0.0019(8) 0.0068(8)
F7 F1- 0.0313(11) 0.0036(4) 0.0487(11) 0.0027(9) 0.0009(9) 0.0010(12)
F8 F1- 0.0280(8) 0.0182(9) 0.0188(7) 0.0099(9) -0.0044(10) 0.0094(6)
F9 F1- 0.0209(11) 0.0282(16) 0.0097(9) 0.0168(11) 0.0074(8) 0.0008(8)
F10 F1- 0.0201(13) 0.0190(10) 0.0123(10) 0.0128(10) 0.0019(8) 0.0068(8)
F11 F1- 0.0280(8) 0.0182(9) 0.0188(7) 0.0099(9) -0.0044(10) 0.0094(6)
F12 F1- 0.0313(11) 0.0036(4) 0.0487(11) 0.0027(9) 0.0009(9) 0.0010(12)
F13 F1- 0.0203(8) 0.0137(8) 0.0170(10) 0.0103(8) -0.0030(8) 0.0028(8)
F14 F1- 0.0184(9) 0.0078(9) 0.0130(10) 0.0022(7) -0.0077(8) -0.0022(7)
F15 F1- 0.0136(8) 0.0174(8) 0.0179(10) 0.0096(7) -0.0008(8) -0.0020(7)
F16 F1- 0.0213(10) 0.0178(10) 0.0141(10) 0.0166(9) 0.0079(8) 0.0095(8)
F17 F1- 0.0184(9) 0.0078(9) 0.0130(10) 0.0022(7) -0.0077(8) -0.0022(7)
F18 F1- 0.0203(8) 0.0137(8) 0.0170(10) 0.0103(8) -0.0030(8) 0.0028(8)
F19 F1- 0.0213(10) 0.0178(10) 0.0141(10) 0.0166(9) 0.0079(8) 0.0095(8)
F20 F1- 0.0136(8) 0.0174(8) 0.0179(10) 0.0096(7) -0.0008(8) -0.0020(7)
F21 F1- 0.0136(8) 0.0174(8) 0.0179(10) 0.0096(7) -0.0008(8) -0.0020(7)
F22 F1- 0.0213(10) 0.0178(10) 0.0141(10) 0.0166(9) 0.0079(8) 0.0095(8)
F23 F1- 0.0184(9) 0.0078(9) 0.0130(10) 0.0022(7) -0.0077(8) -0.0022(7)
F24 F1- 0.0203(8) 0.0137(8) 0.0170(10) 0.0103(8) -0.0030(8) 0.0028(8)
#End of data_186998-ICSD


