data_410871-ICSD
#?2014 by Fachinformationszentrum Karlsruhe, and the U.S. Secretary of 
#Commerce on behalf of the United States.  All rights reserved.
_database_code_ICSD                410871
_audit_creation_date               2000/07/15
_chemical_name_systematic          'Cesium Zincoborodiphosphate(V)'
_chemical_formula_structural       'Cs (Zn B P2 O8)'
_chemical_formula_sum              'B1 Cs1 O8 P2 Zn1'
_publ_section_title
;
K (Zn B P2 O8) and A (Zn B P2 O8) (A= NH4+, Rb+, Cs+): 
Zincoborophosphates as a new class of compounds with tetrahedral 
framework structures
;
loop_
_citation_id
_citation_journal_abbrev
_citation_year
_citation_journal_volume
_citation_page_first
_citation_page_last
_citation_journal_id_ASTM
primary 'Angewandte Chemie. International Edition' 1999 38 3642 3644 ACIEF5
_publ_author_name
;
Kniep, R.;Schaefer, G.;Engelmann, H.;Boy, I.
;
_cell_length_a                     7.5062(19)
_cell_length_b                     7.914(2)
_cell_length_c                     8.038(2)
_cell_angle_alpha                  118.048(19)
_cell_angle_beta                   102.96(2)
_cell_angle_gamma                  104.498(20)
_cell_volume                       373.89
_cell_formula_units_Z              2
_symmetry_space_group_name_H-M     'P -1'
_symmetry_Int_Tables_number        2
_refine_ls_R_factor_all            .0721
loop_
_symmetry_equiv_pos_site_id
_symmetry_equiv_pos_as_xyz
  1	'-x, -y, -z'
  2	'x, y, z'
loop_
_atom_type_symbol
_atom_type_oxidation_number
B3+	3
Cs1+	1
O2-	-2
P5+	5
Zn2+	2
loop_
_atom_site_label
_atom_site_type_symbol
_atom_site_symmetry_multiplicity
_atom_site_Wyckoff_symbol
_atom_site_fract_x
_atom_site_fract_y
_atom_site_fract_z
_atom_site_occupancy
_atom_site_attached_hydrogens
Cs1 Cs1+ 2 i 0.26487(9) 0.64684(10) 0.40501(10) 1. 0 
Zn1 Zn2+ 2 i 0.20146(13) 0.29329(15) 0.74337(14) 1. 0 
B1 B3+ 2 i 0.3004(12) 0.0685(14) 0.0712(14) 1. 0 
P1 P5+ 2 i 0.0404(3) 0.0978(3) 0.2716(3) 1. 0 
P2 P5+ 2 i 0.4421(3) 0.7712(3) 0.0628(3) 1. 0 
O1 O2- 2 i 0.0124(9) 0.8885(10) 0.2398(9) 1. 0 
O2 O2- 2 i 0.0968(9) 0.2769(9) 0.4907(8) 1. 0 
O3 O2- 2 i 0.2076(8) 0.1720(9) 0.2060(8) 1. 0 
O4 O2- 2 i 0.4175(9) 0.2043(10) 0.7502(9) 1. 0 
O5 O2- 2 i 0.4542(8) 0.2416(9) 0.0872(8) 1. 0 
O6 O2- 2 i 0.5996(8) 0.0300(9) 0.8488(8) 1. 0 
O7 O2- 2 i 0.7510(8) 0.4242(9) 0.0526(9) 1. 0 
O8 O2- 2 i 0.8452(8) 0.0905(9) 0.1445(8) 1. 0 

loop_
_atom_site_aniso_label
_atom_site_aniso_type_symbol
_atom_site_aniso_U_11
_atom_site_aniso_U_22
_atom_site_aniso_U_33
_atom_site_aniso_U_12
_atom_site_aniso_U_13
_atom_site_aniso_U_23
Cs1 Cs1+ 0.0412(3) 0.0399(4) 0.0487(4) 0.0188(3) 0.0261(3) 0.0253(3)
Zn1 Zn2+ 0.0242(4) 0.0278(5) 0.0260(5) 0.0113(4) 0.0107(4) 0.0145(4)
B1 B3+ 0.014(3) 0.029(4) 0.031(4) 0.006(3) 0.011(3) 0.017(4)
P1 P5+ 0.0206(8) 0.0258(10) 0.0239(9) 0.0109(8) 0.0115(7) 0.0135(8)
P2 P5+ 0.0224(9) 0.0241(10) 0.0271(10) 0.0118(8) 0.0131(7) 0.0152(8)
O1 O2- 0.033(3) 0.033(3) 0.037(3) 0.019(3) 0.017(3) 0.023(3)
O2 O2- 0.034(3) 0.038(3) 0.021(3) 0.020(3) 0.014(2) 0.014(2)
O3 O2- 0.027(3) 0.028(3) 0.029(3) 0.014(2) 0.016(2) 0.015(2)
O4 O2- 0.032(3) 0.047(4) 0.034(3) 0.024(3) 0.017(3) 0.026(3)
O5 O2- 0.026(3) 0.025(3) 0.031(3) 0.007(2) 0.017(2) 0.015(2)
O6 O2- 0.026(3) 0.031(3) 0.025(3) 0.015(2) 0.010(2) 0.016(2)
O7 O2- 0.027(3) 0.023(3) 0.032(3) 0.007(2) 0.017(2) 0.011(2)
O8 O2- 0.026(3) 0.027(3) 0.025(3) 0.012(2) 0.007(2) 0.011(2)
#End of data_410871-ICSD


