data_189529-ICSD
#?2014 by Fachinformationszentrum Karlsruhe, and the U.S. Secretary of 
#Commerce on behalf of the United States.  All rights reserved.
_database_code_ICSD                189529
_audit_creation_date               2014/02/01
_chemical_name_systematic
;
Trineodymium Dizirconium Heptalithium Dodecaoxide
;
_chemical_formula_structural       'Nd3 Zr2 Li7 O12'
_chemical_formula_sum              'Li7 Nd3 O12 Zr2'
_publ_section_title
;
Synthesis, conductivity and structural aspects of Nd3 Zr2 Li7-3x Alx 
O12
;
loop_
_citation_id
_citation_journal_abbrev
_citation_year
_citation_journal_volume
_citation_journal_issue
_citation_page_first
_citation_page_last
_citation_journal_id_ASTM
primary 'Journal of Materials Chemistry A' 2013 1 44 14013 14022 JMCAET
_publ_author_name
;
M. A. Howard;O. Clemens;K. S. Knight;P. A. Anderson;S. Hafiz;P. M. 
Panchmatia;P. R. Slater
;
_cell_length_a                     12.94711(9)
_cell_length_b                     12.94711(9)
_cell_length_c                     12.5512(1)
_cell_angle_alpha                  90.
_cell_angle_beta                   90.
_cell_angle_gamma                  90.
_cell_volume                       2103.93
_cell_formula_units_Z              8
_symmetry_space_group_name_H-M     'I 41/a c d Z'
_symmetry_Int_Tables_number        142
_refine_ls_R_factor_all            .0115
loop_
_symmetry_equiv_pos_site_id
_symmetry_equiv_pos_as_xyz
  1	'y+.25, x+.75, -z+.75'
  2	'-y+.75, x+.75, -z+.25'
  3	'x, y+.5, -z'
  4	'-x, y+.5, -z+.5'
  5	'-y+.75, -x+.25, z+.25'
  6	'y+.25, -x+.25, z+.75'
  7	'-x, -y+.5, z'
  8	'x, -y+.5, z+.5'
  9	'y+.25, -x+.75, -z+.25'
 10	'-y+.75, -x+.75, -z+.75'
 11	'x, -y, -z+.5'
 12	'-x, -y, -z'
 13	'-y+.75, x+.25, z+.75'
 14	'y+.25, x+.25, z+.25'
 15	'-x, y, z+.5'
 16	'x, y, z'
 17	'y+.75, x+.25, -z+.25'
 18	'-y+.25, x+.25, -z+.75'
 19	'x+.5, y, -z+.5'
 20	'-x+.5, y, -z'
 21	'-y+.25, -x+.75, z+.75'
 22	'y+.75, -x+.75, z+.25'
 23	'-x+.5, -y, z+.5'
 24	'x+.5, -y, z'
 25	'y+.75, -x+.25, -z+.75'
 26	'-y+.25, -x+.25, -z+.25'
 27	'x+.5, -y+.5, -z'
 28	'-x+.5, -y+.5, -z+.5'
 29	'-y+.25, x+.75, z+.25'
 30	'y+.75, x+.75, z+.75'
 31	'-x+.5, y+.5, z'
 32	'x+.5, y+.5, z+.5'
loop_
_atom_type_symbol
_atom_type_oxidation_number
Li1+	1
Nd3+	3
O2-	-2
Zr4+	4
loop_
_atom_site_label
_atom_site_type_symbol
_atom_site_symmetry_multiplicity
_atom_site_Wyckoff_symbol
_atom_site_fract_x
_atom_site_fract_y
_atom_site_fract_z
_atom_site_occupancy
_atom_site_attached_hydrogens
_atom_site_B_iso_or_equiv
Nd1 Nd3+ 8 b 0 0.250 0.125 1. 0 0.25(1) 
Nd2 Nd3+ 16 e 0.1271(1) 0 0.250 1. 0 0.25(1) 
Zr1 Zr4+ 16 c 0 0 0 1. 0 0.25(1) 
Li1 Li1+ 8 a 0 0.250 0.375 1. 0 0.25(1) 
Li2 Li1+ 16 f 0.1819(4) 0.4319(4) 0.125 1. 0 0.25(1) 
Li3 Li1+ 32 g 0.0803(4) 0.0885(4) 0.8042(4) 1. 0 0.25(1) 
O1 O2- 32 g 0.2773(1) 0.0986(1) 0.1949(1) 1. 0 0.25(1) 
O2 O2- 32 g 0.1945(1) 0.2834(1) 0.0971(1) 1. 0 0.25(1) 
O3 O2- 32 g 0.1012(1) 0.1942(1) 0.2828(1) 1. 0 0.25(1) 

#End of data_189529-ICSD


