data_50337-ICSD
#?2014 by Fachinformationszentrum Karlsruhe, and the U.S. Secretary of 
#Commerce on behalf of the United States.  All rights reserved.
_database_code_ICSD                50337
_audit_creation_date               1999/11/30
_audit_update_record               2006/04/01
_chemical_name_systematic
;
Dipotassium Hexafluoroberyllate - Beta
;
_chemical_formula_structural       'K2 (Be F4)'
_chemical_formula_sum              'Be1 F4 K2'
_publ_section_title
;
X-ray diffraction, thermal analysis, and Raman scattering study of K2 
Be F4 and comparison to other members of the beta-K2 S O4 family with 
ferroelectric-paraelectric transitions
;
loop_
_citation_id
_citation_journal_abbrev
_citation_year
_citation_journal_volume
_citation_journal_issue
_citation_page_first
_citation_page_last
_citation_journal_id_ASTM
primary 'Physical Review, Serie 3. B - Condensed Matter (18,1978-)'
 1998 57 9 5122 5125 PRBMDO
2 'Phase Transition' 1992 38- 127 220 PHTRDP
_publ_author_name
;
Solans, X.;Gonzalez-Silgo, C.;Calvet, T.;Ruiz Perez, C.;Martinez-
Sarrion, M.L.;Mestres, L.
;
_cell_length_a                     7.3067(5)
_cell_length_b                     9.8856(7)
_cell_length_c                     5.6910(4)
_cell_angle_alpha                  90.
_cell_angle_beta                   90.
_cell_angle_gamma                  90.
_cell_volume                       411.07
_cell_formula_units_Z              4
_symmetry_space_group_name_H-M     'P n a 21'
_symmetry_Int_Tables_number        33
_refine_ls_R_factor_all            .0551
loop_
_symmetry_equiv_pos_site_id
_symmetry_equiv_pos_as_xyz
  1	'x+.5, -y+.5, z'
  2	'-x+.5, y+.5, z+.5'
  3	'-x, -y, z+.5'
  4	'x, y, z'
loop_
_atom_type_symbol
_atom_type_oxidation_number
Be2+	2
F1-	-1
K1+	1
loop_
_atom_site_label
_atom_site_type_symbol
_atom_site_symmetry_multiplicity
_atom_site_Wyckoff_symbol
_atom_site_fract_x
_atom_site_fract_y
_atom_site_fract_z
_atom_site_occupancy
_atom_site_attached_hydrogens
_atom_site_B_iso_or_equiv
K1 K1+ 4 a 0.1615(5) 0.0936(4) 0.25 1. 0 3.19(11) 
K2 K1+ 4 a -.0112(6) 0.6985(4) 0.2677(34) 1. 0 4.16(12) 
F1 F1- 4 a 0.3220(21) 0.3530(19) 0.0245(33) 1. 0 2.70(13) 
F2 F1- 4 a 0.0135(12) 0.4100(8) 0.2239(35) 1. 0 2.70(13) 
F3 F1- 4 a 0.3056(14) 0.5698(11) 0.2756(37) 1. 0 2.70(13) 
F4 F1- 4 a 0.2825(17) 0.3351(27) 0.4787(37) 1. 0 2.70(13) 
Be1 Be2+ 4 a 0.2308(40) 0.4168(56) 0.2578(52) 1. 0 2.70(13) 

#End of data_50337-ICSD


