data_250408-ICSD
#?2014 by Fachinformationszentrum Karlsruhe, and the U.S. Secretary of 
#Commerce on behalf of the United States.  All rights reserved.
_database_code_ICSD                250408
_audit_creation_date               2007/08/01
_chemical_name_systematic          'Zinc Selenate(VI) Dihydrate'
_chemical_formula_structural       'Zn (Se O4) (H2 O)2'
_chemical_formula_sum              'H4 O6 Se1 Zn1'
_publ_section_title
;
Crystal chemistry of selenates with mineral-like structures. IV. 
Crystal structure of Zn (Se O4) (H2 O)2
;
loop_
_citation_id
_citation_journal_abbrev
_citation_year
_citation_journal_volume
_citation_journal_issue
_citation_page_first
_citation_page_last
_citation_journal_id_ASTM
primary 'Zapiski Vserossijskogo Mineralogicheskogo Obshchestva'
 2006 2006 5 95 101 ZVMOEK
_publ_author_name                  'Krivovichev, S.V.'
_cell_length_a                     9.0411(13)
_cell_length_b                     10.246(2)
_cell_length_c                     10.3318(15)
_cell_angle_alpha                  90.
_cell_angle_beta                   90.
_cell_angle_gamma                  90.
_cell_volume                       957.09
_cell_formula_units_Z              8
_symmetry_space_group_name_H-M     'P b c a'
_symmetry_Int_Tables_number        61
_refine_ls_R_factor_all            .033
loop_
_symmetry_equiv_pos_site_id
_symmetry_equiv_pos_as_xyz
  1	'x+.5, y, -z+.5'
  2	'x, -y+.5, z+.5'
  3	'-x+.5, y+.5, z'
  4	'-x, -y, -z'
  5	'-x+.5, -y, z+.5'
  6	'-x, y+.5, -z+.5'
  7	'x+.5, -y+.5, -z'
  8	'x, y, z'
loop_
_atom_type_symbol
_atom_type_oxidation_number
H1+	1
O2-	-2
Se6+	6
Zn2+	2
loop_
_atom_site_label
_atom_site_type_symbol
_atom_site_symmetry_multiplicity
_atom_site_Wyckoff_symbol
_atom_site_fract_x
_atom_site_fract_y
_atom_site_fract_z
_atom_site_occupancy
_atom_site_attached_hydrogens
_atom_site_U_iso_or_equiv
Se1 Se6+ 8 c 0.03414(5) 0.63943(4) 0.15244(4) 1 0 0.0099(2) 
Zn1 Zn2+ 8 c 0.16041(6) 0.33082(5) 0.12911(5) 1 0 0.0145(2) 
O1 O2- 8 c 0.0031(4) 0.4830(3) 0.1459(3) 1 0 0.0157(6) 
O2 O2- 8 c 0.0061(4) 0.6961(3) 0.2995(3) 1 0 0.0177(7) 
O3 O2- 8 c 0.2057(4) 0.6647(3) 0.1078(3) 1 0 0.0180(7) 
O4 O2- 8 c 0.2305(4) 0.3895(3) 0.3078(3) 1 0 0.0196(7) 
O5 O2- 8 c -0.0807(4) 0.7134(3) 0.0531(3) 1 0 0.0185(7) 
O6 O2- 8 c 0.3409(4) 0.4313(4) 0.0470(4) 1 0 0.0258(8) 
H1 H1+ 8 c 0.190(9) 0.321(6) 0.361(6) 1 0 0.05(2) 
H2 H1+ 8 c 0.379(8) 0.399(7) -0.034(4) 1 0 0.05(2) 
H3 H1+ 8 c 0.334(3) 0.408(9) 0.327(7) 1 0 0.05(2) 
H4 H1+ 8 c 0.388(14) 0.513(7) 0.073(13) 1 0 0.14(5) 

loop_
_atom_site_aniso_label
_atom_site_aniso_type_symbol
_atom_site_aniso_U_11
_atom_site_aniso_U_22
_atom_site_aniso_U_33
_atom_site_aniso_U_12
_atom_site_aniso_U_13
_atom_site_aniso_U_23
Se1 Se6+ 0.0099(3) 0.0069(2) 0.0127(2) 0.00024(14) 0.00017(13) -0.00036(13)
Zn1 Zn2+ 0.0146(3) 0.0122(3) 0.0166(3) 0.0012(2) -0.00170(19) -0.00178(18)
O1 O2- 0.0138(14) 0.0076(15) 0.0259(16) -0.0008(13) 0.0006(12) 0.0006(11)
O2 O2- 0.0172(16) 0.0190(16) 0.0168(14) 0.0039(13) 0.0015(12) -0.0021(12)
O3 O2- 0.0136(16) 0.0104(14) 0.0299(17) -0.0015(12) 0.0064(13) -0.0026(12)
O4 O2- 0.0188(17) 0.0220(17) 0.0181(14) -0.0048(14) -0.0014(13) 0.0005(12)
O5 O2- 0.0230(17) 0.0159(15) 0.0166(14) 0.0100(14) -0.0043(12) -0.0034(11)
O6 O2- 0.0216(18) 0.0174(17) 0.038(2) -0.0045(15) 0.0083(15) 0.0044(15)
H1 H1+ 0.0099(3) 0.0069(2) 0.0127(2) 0.00024(14) 0.00017(13) -0.00036(13)
H2 H1+ 0.0146(3) 0.0122(3) 0.0166(3) 0.0012(2) -0.00170(19) -0.00178(18)
H3 H1+ 0.0138(14) 0.0076(15) 0.0259(16) -0.0008(13) 0.0006(12) 0.0006(11)
H4 H1+ 0.0172(16) 0.0190(16) 0.0168(14) 0.0039(13) 0.0015(12) -0.0021(12)
#End of data_250408-ICSD


