data_80888-ICSD
#?2014 by Fachinformationszentrum Karlsruhe, and the U.S. Secretary of 
#Commerce on behalf of the United States.  All rights reserved.
_database_code_ICSD                80888
_audit_creation_date               1997/05/13
_audit_update_record               2010/08/01
_chemical_name_systematic
;
Potassium Tricesium Octa-mue3-thio-octahedro-
hexakis(cyanorhenate(III))
;
_chemical_formula_structural       'K Cs3 ((Re (C N))6 S8)'
_chemical_formula_sum              'C6 Cs3 K1 N6 Re6 S8'
_publ_section_title
;
An octahedral rhenium cluster with (C N) ligands: the crystal 
structure of K Cs3 Re6 S8 (C N)6
;
loop_
_citation_id
_citation_journal_abbrev
_citation_year
_citation_journal_volume
_citation_page_first
_citation_page_last
_citation_journal_id_ASTM
primary 'Croatica Chemica Acta' 1995 68 885 890 CCACAA
_publ_author_name
;
Slougui, A.;Mironov, Yu.V.;Perrin, A.;Fedorov, V.E.
;
_cell_length_a                     17.780(1)
_cell_length_b                     17.780(1)
_cell_length_c                     17.780(1)
_cell_angle_alpha                  90.
_cell_angle_beta                   90.
_cell_angle_gamma                  90.
_cell_volume                       5620.76
_cell_formula_units_Z              8
_symmetry_space_group_name_H-M     'I a -3'
_symmetry_Int_Tables_number        206
_refine_ls_R_factor_all            .033
loop_
_symmetry_equiv_pos_site_id
_symmetry_equiv_pos_as_xyz
  1	'-z, x, y+.5'
  2	'z, x+.5, -y'
  3	'z+.5, -x, y'
  4	'-z, -x, -y'
  5	'y+.5, -z, x'
  6	'-y, z, x+.5'
  7	'y, z+.5, -x'
  8	'-y, -z, -x'
  9	'x, y+.5, -z'
 10	'x+.5, -y, z'
 11	'-x, y, z+.5'
 12	'-x, -y, -z'
 13	'z, -x, -y+.5'
 14	'-z, -x+.5, y'
 15	'-z+.5, x, -y'
 16	'z, x, y'
 17	'-y+.5, z, -x'
 18	'y, -z, -x+.5'
 19	'-y, -z+.5, x'
 20	'y, z, x'
 21	'-x, -y+.5, z'
 22	'-x+.5, y, -z'
 23	'x, -y, -z+.5'
 24	'x, y, z'
 25	'-z+.5, x+.5, y'
 26	'z+.5, x, -y+.5'
 27	'z, -x+.5, y+.5'
 28	'-z+.5, -x+.5, -y+.5'
 29	'y, -z+.5, x+.5'
 30	'-y+.5, z+.5, x'
 31	'y+.5, z, -x+.5'
 32	'-y+.5, -z+.5, -x+.5'
 33	'x+.5, y, -z+.5'
 34	'x, -y+.5, z+.5'
 35	'-x+.5, y+.5, z'
 36	'-x+.5, -y+.5, -z+.5'
 37	'z+.5, -x+.5, -y'
 38	'-z+.5, -x, y+.5'
 39	'-z, x+.5, -y+.5'
 40	'z+.5, x+.5, y+.5'
 41	'-y, z+.5, -x+.5'
 42	'y+.5, -z+.5, -x'
 43	'-y+.5, -z, x+.5'
 44	'y+.5, z+.5, x+.5'
 45	'-x+.5, -y, z+.5'
 46	'-x, y+.5, -z+.5'
 47	'x+.5, -y+.5, -z'
 48	'x+.5, y+.5, z+.5'
loop_
_atom_type_symbol
_atom_type_oxidation_number
C2+	2
Cs1+	1
K1+	1
N3-	-3
Re3+	3
S2-	-2
loop_
_atom_site_label
_atom_site_type_symbol
_atom_site_symmetry_multiplicity
_atom_site_Wyckoff_symbol
_atom_site_fract_x
_atom_site_fract_y
_atom_site_fract_z
_atom_site_occupancy
_atom_site_attached_hydrogens
_atom_site_B_iso_or_equiv
Re1 Re3+ 48 e 0.57279(3) 0.03462(3) 0.06497(3) 1. 0 1.531(9) 
K1 K1+ 8 b 0.25 0.25 0.25 1. 0 3.06(3) 
Cs1 Cs1+ 24 d 0.25 0.3027(1) 0 1. 0 4.80(4) 
S1 S2- 48 e 0.4608(2) 0.3407(2) 0.0236(2) 1. 0 1.97(7) 
S2 S2- 16 c 0.1028(2) 0.1028(2) 0.1028(2) 1. 0 3.02(2) 
C1 C2+ 48 e 0.359(1) 0.1520(9) 0.0821(9) 1. 0 2.2(3) 
N1 N3- 48 e 0.1143(9) 0.3194(9) 0.189(1) 1. 0 3.5(3) 

#End of data_80888-ICSD


