data_200702-ICSD
#?2014 by Fachinformationszentrum Karlsruhe, and the U.S. Secretary of 
#Commerce on behalf of the United States.  All rights reserved.
_database_code_ICSD                200702
_audit_creation_date               1980/12/31
_audit_update_record               1999/11/30
_chemical_name_systematic
;
Calcium Manganese Bis(hydrogenarsenate(V)) Dihydrate
;
_chemical_formula_structural       'Ca Mn (H As O4)2 (H2 O)2'
_chemical_formula_sum              'H6 As2 Ca1 Mn1 O10'
_chemical_name_mineral             Fluckite
_publ_section_title
;
Fluckite, Ca Mn (H As O4)2 (H2 O)2, a structure related by pseudo-
polytypism to krautite Mn H As O4 (H2 O)
;
loop_
_citation_id
_citation_journal_abbrev
_citation_year
_citation_journal_volume
_citation_page_first
_citation_page_last
_citation_journal_id_ASTM
primary 'Bulletin de Mineralogie (101,1978-)' 1980 103 129 134 BULMD9
2 'Bulletin de Mineralogie (101,1978-)' 1980 103 122 128 BULMD9
_publ_author_name                  'Catti, M.;Chiari, G.;Ferraris, G.'
_cell_length_a                     8.459(2)
_cell_length_b                     7.613(1)
_cell_length_c                     6.968(1)
_cell_angle_alpha                  82.21(1)
_cell_angle_beta                   98.25(1)
_cell_angle_gamma                  95.86(2)
_cell_volume                       438.42
_cell_formula_units_Z              2
_symmetry_space_group_name_H-M     'P -1'
_symmetry_Int_Tables_number        2
_refine_ls_R_factor_all            .042
loop_
_symmetry_equiv_pos_site_id
_symmetry_equiv_pos_as_xyz
  1	'-x, -y, -z'
  2	'x, y, z'
loop_
_atom_type_symbol
_atom_type_oxidation_number
As5+	5
Ca2+	2
H1+	1
Mn2+	2
O2-	-2
loop_
_atom_site_label
_atom_site_type_symbol
_atom_site_symmetry_multiplicity
_atom_site_Wyckoff_symbol
_atom_site_fract_x
_atom_site_fract_y
_atom_site_fract_z
_atom_site_occupancy
_atom_site_attached_hydrogens
_atom_site_B_iso_or_equiv
Ca1 Ca2+ 2 i 0.1711(2) 0.1025(2) 0.8733(2) 1. 0 0 
Mn1 Mn2+ 2 i 0.5764(1) 0.1525(1) 0.3386(2) 1. 0 0 
As1 As5+ 2 i 0.18007(7) 0.13538(8) 0.36460(9) 1. 0 0 
As2 As5+ 2 i 0.57539(8) 0.22993(8) 0.83841(9) 1. 0 0 
O1 O2- 2 i 0.0563(7) 0.2882(7) 0.4134(10) 1. 0 0 
O2 O2- 2 i 0.0867(6) 0.0334(7) 0.1801(7) 1. 0 0 
O3 O2- 2 i 0.2048(6) -.0012(6) 0.5742(7) 1. 0 0 
O4 O2- 2 i 0.3436(6) 0.2623(6) 0.3049(8) 1. 0 0 
O5 O2- 2 i 0.3977(6) 0.3030(6) 0.8462(7) 1. 0 0 
O6 O2- 2 i 0.6516(6) 0.1284(6) 1.0558(7) 1. 0 0 
O7 O2- 2 i 0.5710(6) 0.0998(6) 0.6623(7) 1. 0 0 
O8 O2- 2 i 0.7122(6) 0.4063(7) 0.7750(9) 1. 0 0 
O9 O2- 2 i 0.0502(8) 0.3720(8) 0.8579(12) 1. 0 0 
O10 O2- 2 i 0.7084(7) 0.4091(8) 0.3621(10) 1. 0 0 
H1 H1+ 2 i -.023(13) 0.247(15) 0.424(16) 1. 0 5.(3) 
H2 H1+ 2 i 0.670(14) 0.481(15) 0.780(17) 1. 0 2.(3) 
H3 H1+ 2 i 0.066(19) 0.433(21) 0.760(24) 1. 0 12.(6) 
H4 H1+ 2 i -.021(15) 0.409(16) 0.879(17) 1. 0 5.(3) 
H5 H1+ 2 i 0.728(12) 0.418(14) 0.461(16) 1. 0 0.0(3) 
H6 H1+ 2 i 0.667(19) 0.489(21) 0.299(23) 1. 0 6.(5) 

loop_
_atom_site_aniso_label
_atom_site_aniso_type_symbol
_atom_site_aniso_U_11
_atom_site_aniso_U_22
_atom_site_aniso_U_33
_atom_site_aniso_U_12
_atom_site_aniso_U_13
_atom_site_aniso_U_23
Ca1 Ca2+ 0.0099(5) 0.0116(6) 0.0127(5) -.0022(4) 0.0035(4) 0.0007(4)
Mn1 Mn2+ 0.0133(4) 0.0139(5) 0.0152(5) 0.0006(3) 0.0029(4) 0.0010(3)
As1 As5+ 0.0104(3) 0.0097(3) 0.0097(3) 0.0018(2) 0.0012(2) 0.0019(2)
As2 As5+ 0.0104(3) 0.0074(3) 0.0108(3) 0.0000(2) 0.0006(2) 0.0023(2)
O1 O2- 0.020(3) 0.018(3) 0.047(4) 0.000(2) 0.013(3) -.005(2)
O2 O2- 0.016(2) 0.022(3) 0.012(2) -.009(2) 0.001(2) -.002(2)
O3 O2- 0.013(2) 0.018(2) 0.012(2) 0.002(2) 0.003(2) 0.006(2)
O4 O2- 0.015(2) 0.014(2) 0.024(3) -.002(2) 0.005(2) 0.005(2)
O5 O2- 0.013(2) 0.011(2) 0.024(3) 0.004(2) 0.008(2) 0.003(2)
O6 O2- 0.020(2) 0.018(2) 0.011(2) 0.006(2) -.002(2) 0.001(2)
O7 O2- 0.018(2) 0.010(2) 0.014(2) -.001(2) 0.006(2) 0.001(2)
O8 O2- 0.014(2) 0.011(2) 0.042(3) -.001(2) 0.008(2) 0.001(2)
O9 O2- 0.022(3) 0.021(3) 0.057(4) 0.007(2) 0.018(3) 0.011(3)
O10 O2- 0.029(3) 0.023(3) 0.018(3) 0.001(2) 0.004(2) 0.004(2)
#End of data_200702-ICSD


