data_69110-ICSD
#?2014 by Fachinformationszentrum Karlsruhe, and the U.S. Secretary of 
#Commerce on behalf of the United States.  All rights reserved.
_database_code_ICSD                69110
_audit_creation_date               1992/01/20
_audit_update_record               2012/08/01
_chemical_name_systematic          'Sodium Titanium Oxide (1/8/13)'
_chemical_formula_structural       'Na Ti8 O13'
_chemical_formula_sum              'Na1 O13 Ti8'
_publ_section_title
;
Synthesis and crystal structure of NaTi8O13
;
loop_
_citation_id
_citation_journal_abbrev
_citation_year
_citation_journal_volume
_citation_page_first
_citation_page_last
_citation_journal_id_ASTM
primary 'Journal of Solid State Chemistry' 1991 90 147 154 JSSCBI
_publ_author_name                  'Akimoto, J.;Takei, H.'
_cell_length_a                     7.7544(7)
_cell_length_b                     7.7544(7)
_cell_length_c                     14.073(3)
_cell_angle_alpha                  90.
_cell_angle_beta                   90.
_cell_angle_gamma                  120.
_cell_volume                       732.85
_cell_formula_units_Z              3
_symmetry_space_group_name_H-M     'R -3 H'
_symmetry_Int_Tables_number        148
_refine_ls_R_factor_all            .033
loop_
_symmetry_equiv_pos_site_id
_symmetry_equiv_pos_as_xyz
  1	'x-y, x, -z'
  2	'y, -x+y, -z'
  3	'-x, -y, -z'
  4	'-x+y, -x, z'
  5	'-y, x-y, z'
  6	'x, y, z'
  7	'x-y+.6666, x+.3333, -z+.3333'
  8	'x-y+.3333, x+.6666, -z+.6666'
  9	'y+.6666, -x+y+.3333, -z+.3333'
 10	'y+.3333, -x+y+.6666, -z+.6666'
 11	'-x+.6666, -y+.3333, -z+.3333'
 12	'-x+.3333, -y+.6666, -z+.6666'
 13	'-x+y+.6666, -x+.3333, z+.3333'
 14	'-x+y+.3333, -x+.6666, z+.6666'
 15	'-y+.6666, x-y+.3333, z+.3333'
 16	'-y+.3333, x-y+.6666, z+.6666'
 17	'x+.6666, y+.3333, z+.3333'
 18	'x+.3333, y+.6666, z+.6666'
loop_
_atom_type_symbol
_atom_type_oxidation_number
Na1+	1
O2-	-2
Ti3.125+	3.125
loop_
_atom_site_label
_atom_site_type_symbol
_atom_site_symmetry_multiplicity
_atom_site_Wyckoff_symbol
_atom_site_fract_x
_atom_site_fract_y
_atom_site_fract_z
_atom_site_occupancy
_atom_site_attached_hydrogens
Na1 Na1+ 3 b 0 0 0.5 1. 0 
Ti1 Ti3.125+ 18 f 0.22984(7) 0.02680(7) 0.08112(3) 1. 0 
Ti2 Ti3.125+ 6 c 0 0 0.72759(5) 1. 0 
O1 O2- 3 a 0 0 0 1. 0 
O2 O2- 18 f 0.1575(3) 0.2381(3) 0.66147(13) 1. 0 
O3 O2- 18 f 0.4843(3) 0.1177(3) 0.16088(12) 1. 0 

#End of data_69110-ICSD


