data_619557-ICSD
#?2014 by Fachinformationszentrum Karlsruhe, and the U.S. Secretary of 
#Commerce on behalf of the United States.  All rights reserved.
_database_code_ICSD                619557
_audit_creation_date               2012/02/01
_chemical_name_systematic          'Calcium Yttrium Sulfide (1/2/4)'
_chemical_formula_structural       'Ca Y2 S4'
_chemical_formula_sum              'Ca1 S4 Y2'
_publ_section_title
;
Sur une famille de composes Ca L2 S4 formes par les elements des 
terres rares depuis l'holmium jusqu'au lutecium
;
loop_
_citation_id
_citation_journal_abbrev
_citation_year
_citation_journal_volume
_citation_page_first
_citation_page_last
_citation_journal_id_ASTM
primary
;
Comptes Rendus Hebdomadaires des Seances de l`Academie des Sciences, 
Serie C, Sciences Chimiques (1966-)
;
 1967 264 395 398 CHDCAQ
_publ_author_name                  'Patrie, M.;Flahaut, J.'
_cell_length_a                     12.98
_cell_length_b                     3.88
_cell_length_c                     13.11
_cell_angle_alpha                  90.0
_cell_angle_beta                   90.0
_cell_angle_gamma                  90.0
_cell_volume                       660.25
_cell_formula_units_Z              4
_symmetry_space_group_name_H-M     'P n m a'
_symmetry_Int_Tables_number        62
loop_
_symmetry_equiv_pos_site_id
_symmetry_equiv_pos_as_xyz
  1	'x+.5, y, -z+.5'
  2	'x, -y+.5, z'
  3	'-x+.5, y+.5, z+.5'
  4	'-x, -y, -z'
  5	'-x+.5, -y, z+.5'
  6	'-x, y+.5, -z'
  7	'x+.5, -y+.5, -z+.5'
  8	'x, y, z'
loop_
_atom_type_symbol
_atom_type_oxidation_number
Ca2+	2
S2-	-2
Y3+	3
loop_
_atom_site_label
_atom_site_type_symbol
_atom_site_symmetry_multiplicity
_atom_site_Wyckoff_symbol
_atom_site_fract_x
_atom_site_fract_y
_atom_site_fract_z
_atom_site_occupancy
_atom_site_attached_hydrogens
Ca1 Ca2+ 4 c 0.368 0.25 0.416 1. 0 
Y1 Y3+ 4 c 0.107 0.25 0.583 1. 0 
Y2 Y3+ 4 c 0.147 0.25 0.203 1. 0 
S1 S2- 4 c 0.217 0.25 0.762 1. 0 
S2 S2- 4 c 0.258 0.25 0.027 1. 0 
S3 S2- 4 c 0.469 0.25 0.618 1. 0 
S4 S2- 4 c 0.033 0.25 0.382 1. 0 

#End of data_619557-ICSD


