data_67244-ICSD
#?2014 by Fachinformationszentrum Karlsruhe, and the U.S. Secretary of 
#Commerce on behalf of the United States.  All rights reserved.
_database_code_ICSD                67244
_audit_creation_date               1990/12/27
_chemical_name_systematic
;
Silver Triniobium Octaoxide - High Pressure Phase Ii
;
_chemical_formula_structural       'Ag Nb3 O8'
_chemical_formula_sum              'Ag1 Nb3 O8'
_publ_section_title
;
AgNb3O8-II, eine Hochdruckphase mit neuartiger Tunnelstruktur
;
loop_
_citation_id
_citation_journal_abbrev
_citation_year
_citation_journal_volume
_citation_page_first
_citation_page_last
_citation_journal_id_ASTM
primary 'Zeitschrift fuer Naturforschung, B: Chemical Sciences'
 1989 44 499 501 ZNBSEN
_publ_author_name                  'Range, K.J.;Wildenauer, M.'
_cell_length_a                     7.343(1)
_cell_length_b                     10.415(2)
_cell_length_c                     7.007(1)
_cell_angle_alpha                  90.
_cell_angle_beta                   90.
_cell_angle_gamma                  90.
_cell_volume                       535.88
_cell_formula_units_Z              4
_symmetry_space_group_name_H-M     'I b a m'
_symmetry_Int_Tables_number        72
_refine_ls_R_factor_all            .041
loop_
_symmetry_equiv_pos_site_id
_symmetry_equiv_pos_as_xyz
  1	'-x, y, z+.5'
  2	'x, -y, z+.5'
  3	'x, y, -z'
  4	'-x, -y, -z'
  5	'x, -y, -z+.5'
  6	'-x, y, -z+.5'
  7	'-x, -y, z'
  8	'x, y, z'
  9	'-x+.5, y+.5, z'
 10	'x+.5, -y+.5, z'
 11	'x+.5, y+.5, -z+.5'
 12	'-x+.5, -y+.5, -z+.5'
 13	'x+.5, -y+.5, -z'
 14	'-x+.5, y+.5, -z'
 15	'-x+.5, -y+.5, z+.5'
 16	'x+.5, y+.5, z+.5'
loop_
_atom_type_symbol
_atom_type_oxidation_number
Ag1+	1
Nb5+	5
O2-	-2
loop_
_atom_site_label
_atom_site_type_symbol
_atom_site_symmetry_multiplicity
_atom_site_Wyckoff_symbol
_atom_site_fract_x
_atom_site_fract_y
_atom_site_fract_z
_atom_site_occupancy
_atom_site_attached_hydrogens
_atom_site_B_iso_or_equiv
Ag1 Ag1+ 4 a 0 0 0.25 1. 0 0.95 
Nb1 Nb5+ 4 b 0 0.5 0.75 1. 0 0.13 
Nb2 Nb5+ 8 j 0.2529(2) 0.26755(6) 0 1. 0 0.14 
O1 O2- 8 j 0.9893(11) 0.1714(7) 0 1. 0 0.46 
O2 O2- 8 j 0.1138(11) 0.4279(7) 0 1. 0 0.31 
O3 O2- 16 k 0.1918(8) 0.3569(5) 0.2993(9) 1. 0 0.37 

#End of data_67244-ICSD


