data_66355-ICSD
#?2014 by Fachinformationszentrum Karlsruhe, and the U.S. Secretary of 
#Commerce on behalf of the United States.  All rights reserved.
_database_code_ICSD                66355
_audit_creation_date               1993/01/06
_audit_update_record               2012/08/01
_chemical_name_systematic          'Sodium Vanadato(IV)phosphate'
_chemical_formula_structural       'Na (V P O5)'
_chemical_formula_sum              'Na1 O5 P1 V1'
_publ_section_title
;
Synthesis and crystal structure of a new vanadium IV phosphate: 
NaVPO5
;
loop_
_citation_id
_citation_journal_abbrev
_citation_year
_citation_journal_volume
_citation_page_first
_citation_page_last
_citation_journal_id_ASTM
primary
;
Comptes Rendus Hebdomadaires des Seances de l`Academie des Sciences, 
Serie 2 (1984-1993)
;
 1992 314 585 589 CRAMED
_publ_author_name
;
Benhamada, L.;Grandin, A.;Borel, M.M.;Leclaire, A.;Raveau, B.
;
_cell_length_a                     6.5296(4)
_cell_length_b                     8.4643(7)
_cell_length_c                     7.1228(6)
_cell_angle_alpha                  90.
_cell_angle_beta                   115.237(6)
_cell_angle_gamma                  90.
_cell_volume                       356.09
_cell_formula_units_Z              4
_symmetry_space_group_name_H-M     'P 1 21/c 1'
_symmetry_Int_Tables_number        14
_refine_ls_R_factor_all            .035
loop_
_symmetry_equiv_pos_site_id
_symmetry_equiv_pos_as_xyz
  1	'x, -y+.5, z+.5'
  2	'-x, -y, -z'
  3	'-x, y+.5, -z+.5'
  4	'x, y, z'
loop_
_atom_type_symbol
_atom_type_oxidation_number
Na1+	1
O2-	-2
P5+	5
V4+	4
loop_
_atom_site_label
_atom_site_type_symbol
_atom_site_symmetry_multiplicity
_atom_site_Wyckoff_symbol
_atom_site_fract_x
_atom_site_fract_y
_atom_site_fract_z
_atom_site_occupancy
_atom_site_attached_hydrogens
V1 V4+ 4 e 0.7464(1) 0.2617(1) 0.0285(1) 1. 0 
P1 P5+ 4 e 0.2495(2) 0.4344(1) 0.2487(2) 1. 0 
Na1 Na1+ 4 e 0.2473(4) 0.4129(3) 0.7167(4) 1. 0 
O1 O2- 4 e 0.7486(6) 0.1793(4) -.2528(6) 1. 0 
O2 O2- 4 e 0.8479(6) 0.0392(5) 0.1301(5) 1. 0 
O3 O2- 4 e 0.0612(6) 0.3282(5) 0.0919(5) 1. 0 
O4 O2- 4 e 0.6439(6) 0.4630(5) -.1336(5) 1. 0 
O5 O2- 4 e 0.4282(6) 0.1793(5) -.1006(6) 1. 0 

#End of data_66355-ICSD


