data_67606-ICSD
#?2014 by Fachinformationszentrum Karlsruhe, and the U.S. Secretary of 
#Commerce on behalf of the United States.  All rights reserved.
_database_code_ICSD                67606
_audit_creation_date               1993/08/22
_audit_update_record               2009/02/01
_chemical_name_systematic          'Dizinc Selenate(IV) Dichloride'
_chemical_formula_structural       'Zn2 (Se O3) Cl2'
_chemical_formula_sum              'Cl2 O3 Se1 Zn2'
_chemical_name_mineral             Sophiite
_publ_section_title
;
Crystal structure and physical properties of sophiite, Zn2 (Se O3) 
Cl2, a new mineral
;
loop_
_citation_id
_citation_journal_abbrev
_citation_year
_citation_journal_volume
_citation_page_first
_citation_page_last
_citation_journal_id_ASTM
primary 'Mineralogical Magazine (1969-)' 1992 56 241 245 MNLMBB
_publ_author_name
;
Semenova, T.F.;Rozhdestvenskaya, I.V.;Filatov, S.K.;Vergasova, L.P.
;
_cell_length_a                     10.251(4)
_cell_length_b                     15.223(2)
_cell_length_c                     7.666(5)
_cell_angle_alpha                  90.
_cell_angle_beta                   90.
_cell_angle_gamma                  90.
_cell_volume                       1196.29
_cell_formula_units_Z              8
_symmetry_space_group_name_H-M     'P c c n'
_symmetry_Int_Tables_number        56
_refine_ls_R_factor_all            .053
loop_
_symmetry_equiv_pos_site_id
_symmetry_equiv_pos_as_xyz
  1	'x, -y+.5, z+.5'
  2	'-x+.5, y, z+.5'
  3	'x+.5, y+.5, -z'
  4	'-x, -y, -z'
  5	'-x, y+.5, -z+.5'
  6	'x+.5, -y, -z+.5'
  7	'-x+.5, -y+.5, z'
  8	'x, y, z'
loop_
_atom_type_symbol
_atom_type_oxidation_number
Cl1-	-1
O2-	-2
Se4+	4
Zn2+	2
loop_
_atom_site_label
_atom_site_type_symbol
_atom_site_symmetry_multiplicity
_atom_site_Wyckoff_symbol
_atom_site_fract_x
_atom_site_fract_y
_atom_site_fract_z
_atom_site_occupancy
_atom_site_attached_hydrogens
Se1 Se4+ 8 e 0.4636(1) 0.5909(1) 0.2241(2) 1. 0 
Zn1 Zn2+ 8 e 0.4942(2) 0.3850(1) 0.3493(3) 1. 0 
Zn2 Zn2+ 8 e 0.7234(2) 0.44691(1) 0.1016(3) 1. 0 
Cl1 Cl1- 8 e 0.2845(4) 0.3778(3) 0.4320(6) 1. 0 
Cl2 Cl1- 8 e 0.5910(5) 0.2976(3) 0.1599(7) 1. 0 
O1 O2- 8 e 0.4098(9) 0.5863(8) 0.4320(15) 1. 0 
O2 O2- 8 e 0.5473(9) 0.4947(7) 0.2097(14) 1. 0 
O3 O2- 8 e 0.3164(9) 0.5575(8) 0.1476(16) 1. 0 

loop_
_atom_site_aniso_label
_atom_site_aniso_type_symbol
_atom_site_aniso_B_11
_atom_site_aniso_B_22
_atom_site_aniso_B_33
_atom_site_aniso_B_12
_atom_site_aniso_B_13
_atom_site_aniso_B_23
Se1 Se4+ 1.03(6) 1.31(6) 1.33(6) -.02(5) 0.14(7) -.01(6)
Zn1 Zn2+ 1.67(8) 1.84(8) 1.62(8) -.12(7) 0.12(9) -.40(7)
Zn2 Zn2+ 1.15(10) 3.09(10) 1.28(8) 0.50(7) -.11(8) -.19(8)
Cl1 Cl1- 1.5(2) 2.0(2) 2.9(2) -.3(2) 0.4(2) 0.3(2)
Cl2 Cl1- 4.1(3) 2.1(2) 2.4(2) 0.8(2) 0.7(2) -.3(2)
O1 O2- 1.0(5) 2.4(5) 0.9(4) -.3(4) 0.3(4) -.3(4)
O2 O2- 0.7(4) 1.6(4) 2.1(5) 0.2(4) 0.7(5) 0.1(5)
O3 O2- 1.3(5) 1.9(5) 1.0(4) 0.5(4) 0.7(5) -.1(4)
#End of data_67606-ICSD


