data_280846-ICSD
#?2014 by Fachinformationszentrum Karlsruhe, and the U.S. Secretary of 
#Commerce on behalf of the United States.  All rights reserved.
_database_code_ICSD                280846
_audit_creation_date               2002/10/01
_chemical_name_systematic          'Cesium Ytterbium Zinc Selenide'
_chemical_formula_structural       'Cs Yb Zn Se3'
_chemical_formula_sum              'Cs1 Se3 Yb1 Zn1'
_publ_section_title
;
Tuning of optical band gaps: syntheses, structures, magnetic 
properties and optical properties of Cs Ln Zn Se3 (Ln = Sm, Tb, Dy, 
Ho, Er, Tm, Yb and Y)
;
loop_
_citation_id
_citation_journal_abbrev
_citation_year
_citation_journal_volume
_citation_journal_issue
_citation_page_first
_citation_page_last
_citation_journal_id_ASTM
primary 'Inorganic Chemistry' 2002 41 5 1199 1204 INOCAJ
_publ_author_name
;
Mitchell, K.;Haynes, C.L.;McFarland, A.D.;van Duyne, R.P.;Ibers, J.A.
;
_cell_length_a                     4.0853(4)
_cell_length_b                     15.7864(15)
_cell_length_c                     10.8068(10)
_cell_angle_alpha                  90.
_cell_angle_beta                   90.
_cell_angle_gamma                  90.
_cell_volume                       696.95
_cell_formula_units_Z              4
_symmetry_space_group_name_H-M     'C m c m'
_symmetry_Int_Tables_number        63
_refine_ls_R_factor_all            .0288
loop_
_symmetry_equiv_pos_site_id
_symmetry_equiv_pos_as_xyz
  1	'-x, y, -z+.5'
  2	'-x, -y, z+.5'
  3	'-x, y, z'
  4	'-x, -y, -z'
  5	'x, -y, z+.5'
  6	'x, y, -z+.5'
  7	'x, -y, -z'
  8	'x, y, z'
  9	'-x+.5, y+.5, -z+.5'
 10	'-x+.5, -y+.5, z+.5'
 11	'-x+.5, y+.5, z'
 12	'-x+.5, -y+.5, -z'
 13	'x+.5, -y+.5, z+.5'
 14	'x+.5, y+.5, -z+.5'
 15	'x+.5, -y+.5, -z'
 16	'x+.5, y+.5, z'
loop_
_atom_type_symbol
_atom_type_oxidation_number
Cs1+	1
Se2-	-2
Yb3+	3
Zn2+	2
loop_
_atom_site_label
_atom_site_type_symbol
_atom_site_symmetry_multiplicity
_atom_site_Wyckoff_symbol
_atom_site_fract_x
_atom_site_fract_y
_atom_site_fract_z
_atom_site_occupancy
_atom_site_attached_hydrogens
Yb1 Yb3+ 4 a 0 0 0 1. 0 
Cs1 Cs1+ 4 c 0 0.74146(5) 0.25 1. 0 
Se1 Se2- 8 f 0 0.38274(5) 0.05539(7) 1. 0 
Se2 Se2- 4 c 0 0.05479(7) 0.25 1. 0 
Zn1 Zn2+ 4 c 0 0.46031(9) 0.25 1. 0 

loop_
_atom_site_aniso_label
_atom_site_aniso_type_symbol
_atom_site_aniso_U_11
_atom_site_aniso_U_22
_atom_site_aniso_U_33
_atom_site_aniso_U_12
_atom_site_aniso_U_13
_atom_site_aniso_U_23
Yb1 Yb3+ 0.0070(3) 0.0089(3) 0.0059(3) 0 0 -.00002(16)
Cs1 Cs1+ 0.0113(4) 0.0098(4) 0.0182(4) 0 0 0
Se1 Se2- 0.0081(4) 0.0077(5) 0.0067(4) 0 0 -.0004(3)
Se2 Se2- 0.0072(5) 0.0093(6) 0.0055(5) 0 0 0
Zn1 Zn2+ 0.0088(6) 0.0097(7) 0.0063(7) 0 0 0
#End of data_280846-ICSD


