data_18134-ICSD
#?2014 by Fachinformationszentrum Karlsruhe, and the U.S. Secretary of 
#Commerce on behalf of the United States.  All rights reserved.
_database_code_ICSD                18134
_audit_creation_date               1980/01/01
_audit_update_record               2000/07/15
_chemical_name_systematic          'Disilver Oxide Tetradiborate'
_chemical_formula_structural       'Ag2 O (B2 O3)4'
_chemical_formula_sum              'Ag2 B8 O13'
_publ_section_title
;
The crystal structure of silver tetraborate, Ag2 O (B2 O3)4
;
loop_
_citation_id
_citation_journal_abbrev
_citation_year
_citation_journal_volume
_citation_page_first
_citation_page_last
_citation_journal_id_ASTM
primary 'Acta Crystallographica (1,1948-23,1967)' 1965 18 77 81 ACCRA9
_publ_author_name                  'Krogh-Moe, J.'
_cell_length_a                     6.550(3)
_cell_length_b                     8.671(4)
_cell_length_c                     17.5110(80)
_cell_angle_alpha                  90.
_cell_angle_beta                   90.3(1)
_cell_angle_gamma                  90.
_cell_volume                       994.52
_cell_formula_units_Z              4
_symmetry_space_group_name_H-M     'P 1 21/c 1'
_symmetry_Int_Tables_number        14
_refine_ls_R_factor_all            .11
loop_
_symmetry_equiv_pos_site_id
_symmetry_equiv_pos_as_xyz
  1	'x, -y+.5, z+.5'
  2	'-x, -y, -z'
  3	'-x, y+.5, -z+.5'
  4	'x, y, z'
loop_
_atom_type_symbol
_atom_type_oxidation_number
Ag1+	1
B3+	3
O2-	-2
loop_
_atom_site_label
_atom_site_type_symbol
_atom_site_symmetry_multiplicity
_atom_site_Wyckoff_symbol
_atom_site_fract_x
_atom_site_fract_y
_atom_site_fract_z
_atom_site_occupancy
_atom_site_attached_hydrogens
_atom_site_B_iso_or_equiv
Ag1 Ag1+ 4 e 0.0616(5) 0.4855(4) 0.1184(2) 1. 0 1.59 
Ag2 Ag1+ 4 e 0.4671(5) 0.0645(4) 0.0994(2) 1. 0 1.5 
O1 O2- 4 e 0.4272(28) 0.7798(24) 0.0336(10) 1. 0 1.3 
O2 O2- 4 e 0.4523(27) 0.5508(24) 0.1151(10) 1. 0 1.2 
O3 O2- 4 e 0.2493(25) 0.1673(22) 0.4275(9) 1. 0 0.6 
O4 O2- 4 e 0.4604(28) 0.3117(23) 0.3407(11) 1. 0 1.4 
O5 O2- 4 e 0.0589(25) 0.9740(22) 0.1174(9) 1. 0 0.7 
O6 O2- 4 e 0.1685(26) 0.1855(23) 0.0424(10) 1. 0 1. 
O7 O2- 4 e 0.9884(28) 0.2332(25) 0.1596(10) 1. 0 1.3 
O8 O2- 4 e 0.1966(25) 0.6277(22) 0.4445(9) 1. 0 0.5 
O9 O2- 4 e 0.0860(27) 0.6750(23) 0.0307(10) 1. 0 1. 
O10 O2- 4 e 0.0347(27) 0.5244(24) 0.2572(10) 1. 0 1.4 
O11 O2- 4 e 0.0609(27) 0.7700(24) 0.2064(9) 1. 0 1. 
O12 O2- 4 e 0.4587(26) 0.0955(24) 0.2533(10) 1. 0 1.3 
O13 O2- 4 e 0.4618(26) 0.3428(23) 0.2018(9) 1. 0 0.9 
B1 B3+ 4 e 0.4615(44) 0.1958(40) 0.4066(16) 1. 0 0.8 
B2 B3+ 4 e 0.9964(48) 0.1181(43) 0.0920(17) 1. 0 1.3 
B3 B3+ 4 e 0.1176(38) 0.2273(37) 0.4822(13) 1. 0 0.2 
B4 B3+ 4 e 0.0385(51) 0.6811(47) 0.2659(18) 1. 0 1.7 
B5 B3+ 4 e 0.2371(47) 0.7736(43) 0.0063(17) 1. 0 1.2 
B6 B3+ 4 e 0.0224(42) 0.9187(41) 0.1883(15) 1. 0 0.9 
B7 B3+ 4 e 0.4805(51) 0.5009(45) 0.1879(18) 1. 0 1.5 
B8 B3+ 4 e 0.4690(42) 0.2492(42) 0.2664(14) 1. 0 0.8 

#End of data_18134-ICSD


