data_262690-ICSD
#?2014 by Fachinformationszentrum Karlsruhe, and the U.S. Secretary of 
#Commerce on behalf of the United States.  All rights reserved.
_database_code_ICSD                262690
_audit_creation_date               2012/08/01
_chemical_name_systematic
;
Tetrabismuth Magnesium Tetraoxide Bis(phosphate)
;
_chemical_formula_structural       'Bi4 Mg O4 (P O4)2'
_chemical_formula_sum              'Bi4 Mg1 O12 P2'
_publ_section_title
;
Novel tailormade Bi4 M O4 (P O4)2 structural type (M = Mg, Zn)
;
loop_
_citation_id
_citation_journal_abbrev
_citation_year
_citation_journal_volume
_citation_journal_issue
_citation_page_first
_citation_page_last
_citation_journal_id_ASTM
primary 'Inorganic Chemistry' 2012 51 8 4438 4447 INOCAJ
_publ_author_name
;
Endara, D.;Colmont, M.;Huve, M.;Tricot, G.;Carpentier, L.;Mentre, O.
;
_cell_length_a                     16.6718(4)
_cell_length_b                     5.2995(2)
_cell_length_c                     23.2735(6)
_cell_angle_alpha                  90
_cell_angle_beta                   90
_cell_angle_gamma                  90
_cell_volume                       2056.27
_cell_formula_units_Z              8
_symmetry_space_group_name_H-M     'P b c a'
_symmetry_Int_Tables_number        61
_refine_ls_R_factor_all            .0319
loop_
_symmetry_equiv_pos_site_id
_symmetry_equiv_pos_as_xyz
  1	'x+.5, y, -z+.5'
  2	'x, -y+.5, z+.5'
  3	'-x+.5, y+.5, z'
  4	'-x, -y, -z'
  5	'-x+.5, -y, z+.5'
  6	'-x, y+.5, -z+.5'
  7	'x+.5, -y+.5, -z'
  8	'x, y, z'
loop_
_atom_type_symbol
_atom_type_oxidation_number
Bi3+	3
Mg2+	2
O2-	-2
P5+	5
loop_
_atom_site_label
_atom_site_type_symbol
_atom_site_symmetry_multiplicity
_atom_site_Wyckoff_symbol
_atom_site_fract_x
_atom_site_fract_y
_atom_site_fract_z
_atom_site_occupancy
_atom_site_attached_hydrogens
_atom_site_U_iso_or_equiv
Bi1 Bi3+ 8 c 0.171365(16) 0.66714(7) 0.301936(12) 1 0 0.00751(9) 
Bi2 Bi3+ 8 c 0.158888(17) 0.17459(7) 0.193968(12) 1 0 0.00937(10) 
Bi3 Bi3+ 8 c 0.005261(16) -0.29976(6) 0.193405(12) 1 0 0.00835(8) 
Bi4 Bi3+ 8 c -0.007001(16 0.15213(6) 0.067629(13) 1 0 0.00819(8) 
O1 O2- 8 c 0.0874(3) -0.0913(11) 0.2470(2) 1 0 0.0063(12) 
O2 O2- 8 c 0.0853(3) 0.4101(11) 0.2500(2) 1 0 0.0087(12) 
O3 O2- 8 c 0.2491(3) 0.4303(11) 0.2472(2) 1 0 0.0075(11) 
O4 O2- 8 c 0.0123(3) 0.1038(12) 0.1540(3) 1 0 0.0157(13) 
P1 P5+ 8 c -0.15515(11) -0.3464(5) 0.08975(9) 1 0 0.0069(4) 
P2 P5+ 8 c 0.13209(12) -0.3772(5) 0.07889(9) 1 0 0.0078(4) 
O5 O2- 8 c 0.1342(3) -0.6618(12) 0.0627(2) 1 0 0.0132(12) 
O6 O2- 8 c -0.1155(3) -0.1119(12) 0.0608(2) 1 0 0.0117(12) 
O7 O2- 8 c -0.1869(3) -0.2757(12) 0.1499(3) 1 0 0.0151(13) 
O8 O2- 8 c 0.1972(3) -0.2283(11) 0.0481(2) 1 0 0.0112(12) 
O9 O2- 8 c 0.1432(3) -0.3539(13) 0.1441(3) 1 0 0.0154(13) 
O10 O2- 8 c -0.2203(3) -0.4179(12) 0.0476(2) 1 0 0.0124(12) 
O11 O2- 8 c -0.0953(3) -0.5599(12) 0.0999(2) 1 0 0.0139(13) 
O12 O2- 8 c 0.0500(3) -0.2714(12) 0.0619(3) 1 0 0.0191(14) 
Mg1 Mg2+ 8 c 0.20622(14) 0.1104(6) 0.00745(11) 1 0 0.0054(5) 

loop_
_atom_site_aniso_label
_atom_site_aniso_type_symbol
_atom_site_aniso_U_11
_atom_site_aniso_U_22
_atom_site_aniso_U_33
_atom_site_aniso_U_12
_atom_site_aniso_U_13
_atom_site_aniso_U_23
Bi1 Bi3+ 0.00897(13) 0.00922(18) 0.00434(14) 0.00075(12) 0.00006(9) 
-0.00021(12)
Bi2 Bi3+ 0.01275(14) 0.0100(2) 0.00537(15) 0.00113(12) 0.00378(10) 
0.00023(13)
Bi3 Bi3+ 0.00776(13) 0.01146(16) 0.00584(13) 0.00025(12) -0.0012(1) 
-0.0020(2)
Bi4 Bi3+ 0.00847(13) 0.01255(16) 0.00355(12) -0.00008(13) -0.0002(1) 
0.0003(2)
#End of data_262690-ICSD


