data_201650-ICSD
#?2014 by Fachinformationszentrum Karlsruhe, and the U.S. Secretary of 
#Commerce on behalf of the United States.  All rights reserved.
_database_code_ICSD                201650
_audit_creation_date               1985/07/17
_audit_update_record               2007/08/01
_chemical_name_systematic
;
Disodium Tecto-dialumotrisilicate Dihydrate
;
_chemical_formula_structural       'Na2 (Al2 Si3 O10) (H2 O)2'
_chemical_formula_sum              'H4 Al2 Na2 O12 Si3'
_chemical_name_mineral             Natrolite
_publ_section_title
;
Natrolite: refinement of the crystal structure of two samples from 
Marienberg (Usti nad Labem, CSSR)
;
loop_
_citation_id
_citation_journal_abbrev
_citation_year
_citation_journal_volume
_citation_page_first
_citation_page_last
_citation_journal_id_ASTM
primary Zeolites 1984 4 140 146 ZEOLD3
_publ_author_name                  'Kirfel, A.;Orthen, M.;Will, G.'
_cell_length_a                     18.2850(20)
_cell_length_b                     18.6300(20)
_cell_length_c                     6.585(1)
_cell_angle_alpha                  90.
_cell_angle_beta                   90.
_cell_angle_gamma                  90.
_cell_volume                       2243.18
_cell_formula_units_Z              8
_symmetry_space_group_name_H-M     'F d d 2'
_symmetry_Int_Tables_number        43
_refine_ls_R_factor_all            .019
loop_
_symmetry_equiv_pos_site_id
_symmetry_equiv_pos_as_xyz
  1	'x+.25, -y+.25, z+.25'
  2	'-x+.25, y+.25, z+.25'
  3	'-x, -y, z'
  4	'x, y, z'
  5	'x+.25, -y+.75, z+.75'
  6	'x+.75, -y+.25, z+.75'
  7	'x+.75, -y+.75, z+.25'
  8	'-x+.25, y+.75, z+.75'
  9	'-x+.75, y+.25, z+.75'
 10	'-x+.75, y+.75, z+.25'
 11	'-x, -y+.5, z+.5'
 12	'-x+.5, -y, z+.5'
 13	'-x+.5, -y+.5, z'
 14	'x, y+.5, z+.5'
 15	'x+.5, y, z+.5'
 16	'x+.5, y+.5, z'
loop_
_atom_type_symbol
_atom_type_oxidation_number
Al3+	3
H1+	1
Na1+	1
O2-	-2
Si4+	4
loop_
_atom_site_label
_atom_site_type_symbol
_atom_site_symmetry_multiplicity
_atom_site_Wyckoff_symbol
_atom_site_fract_x
_atom_site_fract_y
_atom_site_fract_z
_atom_site_occupancy
_atom_site_attached_hydrogens
_atom_site_B_iso_or_equiv
Na1 Na1+ 16 b 0.2207(1) 0.0306(1) 0.6177(3) 1. 0 0 
Al1 Al3+ 16 b 0.0374(1) 0.0936(1) 0.6152(1) 1. 0 0 
Si1 Si4+ 8 a 0 0 0 1. 0 0 
Si2 Si4+ 16 b 0.1533(1) 0.2113(1) 0.6232(2) 1. 0 0 
O1 O2- 16 b 0.0227(1) 0.0687(1) 0.8662(4) 1. 0 0 
O2 O2- 16 b 0.0702(1) 0.1817(1) 0.6097(4) 1. 0 0 
O3 O2- 16 b 0.0984(1) 0.0350(1) 0.5000(4) 1. 0 0 
O4 O2- 16 b 0.2063(1) 0.1528(1) 0.7259(4) 1. 0 0 
O5 O2- 16 b 0.1805(1) 0.2273(1) 0.3900(4) 1. 0 0 
O6 O2- 16 b 0.0563(1) 0.1897(1) 0.1112(5) 1. 0 0 
H1 H1+ 16 b 0.0573(27) 0.1577(25) 0.0531(77) 1. 0 2. 
H2 H1+ 16 b 0.0842(26) 0.1854(28) 0.1801(79) 1. 0 2. 

loop_
_atom_site_aniso_label
_atom_site_aniso_type_symbol
_atom_site_aniso_U_11
_atom_site_aniso_U_22
_atom_site_aniso_U_33
_atom_site_aniso_U_12
_atom_site_aniso_U_13
_atom_site_aniso_U_23
Na1 Na1+ 0.0171(5) 0.0173(5) 0.0208(6) -.0014(5) -.0023(7) -.0019(6)
Al1 Al3+ 0.0075(3) 0.0063(4) 0.0079(4) -.0002(2) -.0004(4) -.0002(4)
Si1 Si4+ 0.0088(5) 0.0078(5) 0.0067(5) 0.0009(3) 0 0
Si2 Si4+ 0.0063(3) 0.0070(4) 0.0081(4) -.0005(2) -.0001(4) -.0008(4)
O1 O2- 0.0215(10) 0.0123(11) 0.0110(9) -.0024(9) 0.0004(12) 0.0010(9)
O2 O2- 0.0090(8) 0.0086(9) 0.0120(9) -.0014(5) -.0012(9) -.0001(9)
O3 O2- 0.0124(8) 0.0127(9) 0.0179(10) 0.0014(9) 0.0003(10) -.0063(10)
O4 O2- 0.0119(10) 0.0127(9) 0.0181(11) 0.0035(9) -.0033(10) 0.0016(9)
O5 O2- 0.0146(8) 0.0215(11) 0.0125(11) -.0022(9) 0.0027(10) 0.0013(10)
O6 O2- 0.0253(14) 0.0248(12) 0.0230(13) 0.0024(10) -.0014(14) -.0017(13)
#End of data_201650-ICSD


