data_15871-ICSD
#?2014 by Fachinformationszentrum Karlsruhe, and the U.S. Secretary of 
#Commerce on behalf of the United States.  All rights reserved.
_database_code_ICSD                15871
_audit_creation_date               1980/01/01
_audit_update_record               2006/04/01
_chemical_name_systematic          'Sodium Catena-phosphate(V) - B'
_chemical_formula_structural       'Na (P O3)'
_chemical_formula_sum              'Na1 O3 P1'
_publ_section_title
;
Die Struktur des Kurrol'schen Na-Salzes (Na P O3)x, Typ B
;
loop_
_citation_id
_citation_journal_abbrev
_citation_year
_citation_journal_volume
_citation_page_first
_citation_page_last
_citation_journal_id_ASTM
primary 'Acta Crystallographica (1,1948-23,1967)' 1963 16 640 642 ACCRA9
_publ_author_name                  'Jost, K.H.'
_cell_length_a                     11.37
_cell_length_b                     6.01
_cell_length_c                     7.63
_cell_angle_alpha                  90.
_cell_angle_beta                   85.7
_cell_angle_gamma                  90.
_cell_volume                       519.92
_cell_formula_units_Z              8
_symmetry_space_group_name_H-M     'P 1 21/n 1'
_symmetry_Int_Tables_number        14
_refine_ls_R_factor_all            .145
loop_
_symmetry_equiv_pos_site_id
_symmetry_equiv_pos_as_xyz
  1	'-x+.5, y+.5, -z+.5'
  2	'-x, -y, -z'
  3	'x+.5, -y+.5, z+.5'
  4	'x, y, z'
loop_
_atom_type_symbol
_atom_type_oxidation_number
Na1+	1
O2-	-2
P5+	5
loop_
_atom_site_label
_atom_site_type_symbol
_atom_site_symmetry_multiplicity
_atom_site_Wyckoff_symbol
_atom_site_fract_x
_atom_site_fract_y
_atom_site_fract_z
_atom_site_occupancy
_atom_site_attached_hydrogens
_atom_site_B_iso_or_equiv
Na1 Na1+ 4 e 0.194 0.926 0.615 1. 0 1.33 
Na2 Na1+ 4 e 0 0.331 0.808 1. 0 1.33 
P1 P5+ 4 e 0.191 0.421 0.464 1. 0 1.33 
P2 P5+ 4 e 0.098 0.156 0.183 1. 0 1.33 
O1 O2- 4 e 0.19 0.339 0.646 1. 0 1.33 
O2 O2- 4 e 0.154 0.213 0.359 1. 0 1.33 
O3 O2- 4 e 0.123 0.619 0.418 1. 0 1.33 
O4 O2- 4 e 0.179 0.949 0.109 1. 0 1.33 
O5 O2- 4 e 0.117 0.34 0.062 1. 0 1.33 
O6 O2- 4 e 0.024 0.936 0.783 1. 0 1.33 

#End of data_15871-ICSD


