data_39647-ICSD
#?2014 by Fachinformationszentrum Karlsruhe, and the U.S. Secretary of 
#Commerce on behalf of the United States.  All rights reserved.
_database_code_ICSD                39647
_audit_creation_date               1993/08/22
_audit_update_record               2006/04/01
_chemical_name_systematic          'Sodium Tantalum Germanate Oxide'
_chemical_formula_structural       'Na Ta (Ge O4) O'
_chemical_formula_sum              'Ge1 Na1 O5 Ta1'
_publ_section_title
;
Crystal structures of sphens Na Sb Ge O5, Na Ta Ge O5 and Li Ta Si 
O5.
;
loop_
_citation_id
_citation_journal_abbrev
_citation_year
_citation_journal_volume
_citation_page_first
_citation_page_last
_citation_journal_id_ASTM
primary Kristallografiya 1992 37 1424 1428 KRISAJ
2 'Soviet Physics, Crystallography (= Kristallografiya)'
 1992 37 769 772 SPHCA6
_publ_author_name
;
Genkina, E.A.;Mill', B.V.
;
_cell_length_a                     6.834(1)
_cell_length_b                     8.903(1)
_cell_length_c                     7.389(1)
_cell_angle_alpha                  90.
_cell_angle_beta                   114.85(2)
_cell_angle_gamma                  90.
_cell_volume                       407.94
_cell_formula_units_Z              4
_symmetry_space_group_name_H-M     'C 1 2/c 1'
_symmetry_Int_Tables_number        15
_refine_ls_R_factor_all            .035
loop_
_symmetry_equiv_pos_site_id
_symmetry_equiv_pos_as_xyz
  1	'x, -y, z+.5'
  2	'-x, -y, -z'
  3	'-x, y, -z+.5'
  4	'x, y, z'
  5	'x+.5, -y+.5, z+.5'
  6	'-x+.5, -y+.5, -z'
  7	'-x+.5, y+.5, -z+.5'
  8	'x+.5, y+.5, z'
loop_
_atom_type_symbol
_atom_type_oxidation_number
Ge4+	4
Na1+	1
O2-	-2
Ta5+	5
loop_
_atom_site_label
_atom_site_type_symbol
_atom_site_symmetry_multiplicity
_atom_site_Wyckoff_symbol
_atom_site_fract_x
_atom_site_fract_y
_atom_site_fract_z
_atom_site_occupancy
_atom_site_attached_hydrogens
_atom_site_B_iso_or_equiv
Na1 Na1+ 4 e 0 0.3301(9) 0.75 1. 0 3.0(2) 
Ta1 Ta5+ 4 a 0 0 0 1. 0 0.44(2) 
Ge1 Ge4+ 4 e 0 0.3175(1) 0.25 1. 0 0.32(3) 
O1 O2- 8 f 0.1952(9) 0.4386(7) 0.4109(8) 1. 0 0.83(9) 
O2 O2- 8 f 0.0982(9) 0.2052(7) 0.1127(9) 1. 0 0.78(9) 
O3 O2- 4 e 0 0.0646(9) 0.75 1. 0 0.58(9) 

#End of data_39647-ICSD


