data_28107-ICSD
#?2014 by Fachinformationszentrum Karlsruhe, and the U.S. Secretary of 
#Commerce on behalf of the United States.  All rights reserved.
_database_code_ICSD                28107
_audit_creation_date               1980/01/01
_audit_update_record               2012/08/01
_chemical_name_systematic          'Strontium Boron Aluminium Oxide'
_chemical_formula_structural       'Sr B Al O4'
_chemical_formula_sum              'Al1 B1 O4 Sr1'
_publ_section_title
;
Crystal structure of di-strontium boro-aluminate, (Sr O)2 Al2 O3 B2 
O3
;
loop_
_citation_id
_citation_journal_abbrev
_citation_year
_citation_journal_volume
_citation_page_first
_citation_page_last
_citation_journal_id_ASTM
primary 'Yogyo Kyokai Shi (= Journal of the Ceramic Assoc. of Japan)'
 1972 80 432 437 YGKSA4
_publ_author_name                  'Nagai, T.;Ihara, M.'
_cell_length_a                     15.17(4)
_cell_length_b                     8.86(3)
_cell_length_c                     5.48(2)
_cell_angle_alpha                  90.
_cell_angle_beta                   90.
_cell_angle_gamma                  90.
_cell_volume                       736.55
_cell_formula_units_Z              8
_symmetry_space_group_name_H-M     'P c c n'
_symmetry_Int_Tables_number        56
_refine_ls_R_factor_all            .163
loop_
_symmetry_equiv_pos_site_id
_symmetry_equiv_pos_as_xyz
  1	'x, -y+.5, z+.5'
  2	'-x+.5, y, z+.5'
  3	'x+.5, y+.5, -z'
  4	'-x, -y, -z'
  5	'-x, y+.5, -z+.5'
  6	'x+.5, -y, -z+.5'
  7	'-x+.5, -y+.5, z'
  8	'x, y, z'
loop_
_atom_type_symbol
_atom_type_oxidation_number
Al3+	3
B3+	3
O2-	-2
Sr2+	2
loop_
_atom_site_label
_atom_site_type_symbol
_atom_site_symmetry_multiplicity
_atom_site_Wyckoff_symbol
_atom_site_fract_x
_atom_site_fract_y
_atom_site_fract_z
_atom_site_occupancy
_atom_site_attached_hydrogens
_atom_site_B_iso_or_equiv
Sr1 Sr2+ 8 e 0.149(1) 0.885(1) 0.395(5) 1. 0 2. 
B1 B3+ 8 e 0.133(8) 0.483(12) 0.315(49) 1. 0 0.1 
Al1 Al3+ 8 e 0.053(2) 0.246(5) 0.129(13) 1. 0 1.5 
O1 O2- 8 e 0.173(6) 0.618(11) 0.305(28) 1. 0 3.6 
O2 O2- 8 e 0.116(6) 0.405(9) 0.153(26) 1. 0 2.5 
O3 O2- 8 e 0.118(5) 0.081(7) 0.062(21) 1. 0 0.6 
O4 O2- 8 e -.008(6) 0.217(11) 0.360(32) 1. 0 3.5 

#End of data_28107-ICSD


