data_73053-ICSD
#?2014 by Fachinformationszentrum Karlsruhe, and the U.S. Secretary of 
#Commerce on behalf of the United States.  All rights reserved.
_database_code_ICSD                73053
_audit_creation_date               1994/06/30
_audit_update_record               2010/08/01
_chemical_name_systematic
;
Nonapotassium Trithioferrate(II) Tetrathioferrate(III)
;
_chemical_formula_structural       'K9 (Fe S3) (Fe S4)'
_chemical_formula_sum              'Fe2 K9 S7'
_publ_section_title
;
New ternary iron chalcogenides A9 Fe2 X7 (A= K, Rb, Cs; X= S, Se): 
synthesis, crystal structure and magnetic properties
;
loop_
_citation_id
_citation_journal_abbrev
_citation_year
_citation_journal_volume
_citation_page_first
_citation_page_last
_citation_journal_id_ASTM
primary 'Journal of Alloys and Compounds' 1993 197 83 86 JALCEU
2 'Zeitschrift fuer Anorganische und Allgemeine Chemie (1950) (DE)'
 1995 621 405 408 ZAACAB
_publ_author_name                  'Bronger, W.;Ruschewitz, U.'
_cell_length_a                     12.663(1)
_cell_length_b                     12.663(1)
_cell_length_c                     12.663(1)
_cell_angle_alpha                  90.
_cell_angle_beta                   90.
_cell_angle_gamma                  90.
_cell_volume                       2030.53
_cell_formula_units_Z              4
_symmetry_space_group_name_H-M     'P 21 3'
_symmetry_Int_Tables_number        198
_refine_ls_R_factor_all            .021
loop_
_symmetry_equiv_pos_site_id
_symmetry_equiv_pos_as_xyz
  1	'-z+.5, -x, y+.5'
  2	'-y+.5, -z, x+.5'
  3	'-x+.5, -y, z+.5'
  4	'-z, x+.5, -y+.5'
  5	'-y, z+.5, -x+.5'
  6	'-x, y+.5, -z+.5'
  7	'z+.5, -x+.5, -y'
  8	'y+.5, -z+.5, -x'
  9	'x+.5, -y+.5, -z'
 10	'z, x, y'
 11	'y, z, x'
 12	'x, y, z'
loop_
_atom_type_symbol
_atom_type_oxidation_number
Fe2+	2
Fe3+	3
K1+	1
S2-	-2
loop_
_atom_site_label
_atom_site_type_symbol
_atom_site_symmetry_multiplicity
_atom_site_Wyckoff_symbol
_atom_site_fract_x
_atom_site_fract_y
_atom_site_fract_z
_atom_site_occupancy
_atom_site_attached_hydrogens
K1 K1+ 12 b 0.8330(1) 0.0017(1) 0.2992(1) 1. 0 
K2 K1+ 12 b 0.1762(1) 0.0420(1) 0.7926(1) 1. 0 
K3 K1+ 4 a 0.4155(1) 0.4155(1) 0.4155(1) 1. 0 
K4 K1+ 4 a 0.2390(1) 0.2390(1) 0.2390(1) 1. 0 
K5 K1+ 4 a 0.0594(1) 0.0594(1) 0.0594(1) 1. 0 
Fe1 Fe2+ 4 a 0.5708(1) 0.5708(1) 0.5708(1) 1. 0 
Fe2 Fe3+ 4 a 0.9001(1) 0.9001(1) 0.9001(1) 1. 0 
S1 S2- 12 b 0.9122(1) 0.0687(1) 0.8334(1) 1. 0 
S2 S2- 12 b 0.0757(1) 0.0610(1) 0.3108(1) 1. 0 
S3 S2- 4 a 0.7925(6) 0.7925(6) 0.7925(6) 1. 0 

loop_
_atom_site_aniso_label
_atom_site_aniso_type_symbol
_atom_site_aniso_U_11
_atom_site_aniso_U_22
_atom_site_aniso_U_33
_atom_site_aniso_U_12
_atom_site_aniso_U_13
_atom_site_aniso_U_23
K1 K1+ 0.0173(4) 0.0183(4) 0.0233(5) 0.0019(4) -0.0004(5) 0.0003(5)
K2 K1+ 0.0251(5) 0.0224(5) 0.0305(6) 0.0008(5) 0.0012(5) 0.0018(5)
K3 K1+ 0.0315(5) 0.0315(5) 0.0315(5) -0.0058(5) -0.0058(5) -0.0058(5)
K4 K1+ 0.0202(4) 0.0202(4) 0.0202(4) 0.0010(4) 0.0010(4) 0.0010(4)
K5 K1+ 0.0216(4) 0.0216(4) 0.0216(4) -0.0019(5) -0.0019(5) -0.0019(5)
Fe1 Fe2+ 0.0118(2) 0.0118(2) 0.0118(2) 0.0004(3) 0.0004(3) 0.0004(3)
Fe2 Fe3+ 0.0112(2) 0.0112(2) 0.0112(2) -0.0004(3) -0.0004(3) -0.0004(3)
S1 S2- 0.0177(5) 0.0141(5) 0.0209(5) -0.0029(5) -0.0024(5) 0.0049(5)
S2 S2- 0.0199(5) 0.0228(5) 0.0192(5) -0.0064(5) -0.0047(5) 0.0093(5)
S3 S2- 0.0159(4) 0.0159(4) 0.0159(4) -0.0020(5) -0.0020(5) -0.0020(5)
#End of data_73053-ICSD


