data_154909-ICSD
#?2014 by Fachinformationszentrum Karlsruhe, and the U.S. Secretary of 
#Commerce on behalf of the United States.  All rights reserved.
_database_code_ICSD                154909
_audit_creation_date               2007/04/01
_chemical_name_systematic          'Trisodium Hexahydridoaluminate'
_chemical_formula_structural       'Na3 (Al H6)'
_chemical_formula_sum              'H6 Al1 Na3'
_publ_section_title
;
Synchrotron X-ray studies of Ti-doped Na Al H4
;
loop_
_citation_id
_citation_journal_abbrev
_citation_year
_citation_journal_volume
_citation_page_first
_citation_page_last
_citation_journal_id_ASTM
primary 'Journal of Physical Chemistry B' 2006 110 3051 3054 JPCBFK
_publ_author_name
;
Canton, P.;Fichtner, M.;Frommen, C.;Leon, A.
;
_cell_length_a                     5.4145(3)
_cell_length_b                     5.5402(3)
_cell_length_c                     7.7620(4)
_cell_angle_alpha                  90.
_cell_angle_beta                   89.871(4)
_cell_angle_gamma                  90.
_cell_volume                       232.84
_cell_formula_units_Z              2
_symmetry_space_group_name_H-M     'P 1 21/n 1'
_symmetry_Int_Tables_number        14
_refine_ls_R_factor_all            .275
loop_
_symmetry_equiv_pos_site_id
_symmetry_equiv_pos_as_xyz
  1	'-x+.5, y+.5, -z+.5'
  2	'-x, -y, -z'
  3	'x+.5, -y+.5, z+.5'
  4	'x, y, z'
loop_
_atom_type_symbol
_atom_type_oxidation_number
Al3+	3
H1-	-1
Na1+	1
loop_
_atom_site_label
_atom_site_type_symbol
_atom_site_symmetry_multiplicity
_atom_site_Wyckoff_symbol
_atom_site_fract_x
_atom_site_fract_y
_atom_site_fract_z
_atom_site_occupancy
_atom_site_attached_hydrogens
_atom_site_B_iso_or_equiv
Al1 Al3+ 2 a 0 0 0 1. 0 1.2(5) 
Na1 Na1+ 2 b 0 0 0.5 1. 0 1.9(6) 
Na2 Na1+ 4 e -0.00129(5) 0.46129(4) 0.25008(4) 1. 0 2.1(4) 
H1 H1- 4 e 0.0918 0.0352 0.2207 1. 0 3.099 
H2 H1- 4 e 0.2220 0.3283 0.5454 1. 0 3.099 
H3 H1- 4 e 0.1649 0.2689 0.9500 1. 0 3.099 

#End of data_154909-ICSD


