data_100324-ICSD
#?2014 by Fachinformationszentrum Karlsruhe, and the U.S. Secretary of 
#Commerce on behalf of the United States.  All rights reserved.
_database_code_ICSD                100324
_audit_creation_date               1980/01/01
_audit_update_record               2005/10/01
_chemical_name_systematic          'Lithium Carbonate'
_chemical_formula_structural       'Li2 (C O3)'
_chemical_formula_sum              'C1 Li2 O3'
_chemical_name_mineral             Zabuyelite
_publ_section_title
;
Verfeinerung der Kristallstruktur des Lithiumkarbonates Li2 C O3
;
loop_
_citation_id
_citation_journal_abbrev
_citation_year
_citation_journal_volume
_citation_page_first
_citation_page_last
_citation_journal_id_ASTM
primary 'Zeitschrift fuer Kristallographie (1979-2010)' 1979 150 133 138 ZEKRDZ
2 'Acta Crystallographica (1,1948-23,1967)' 1957 10 664 666 ACCRA9
3 'Golden Book of Phase Transitions, Wroclaw' 2002 1 1 123 GBOPT5
_publ_author_name                  'Effenberger, H.;Zemann, J.'
_cell_length_a                     8.3593(36)
_cell_length_b                     4.9725(11)
_cell_length_c                     6.1975(21)
_cell_angle_alpha                  90.
_cell_angle_beta                   114.83(3)
_cell_angle_gamma                  90.
_cell_volume                       233.8
_cell_formula_units_Z              4
_symmetry_space_group_name_H-M     'C 1 2/c 1'
_symmetry_Int_Tables_number        15
_refine_ls_R_factor_all            .043
loop_
_symmetry_equiv_pos_site_id
_symmetry_equiv_pos_as_xyz
  1	'x, -y, z+.5'
  2	'-x, -y, -z'
  3	'-x, y, -z+.5'
  4	'x, y, z'
  5	'x+.5, -y+.5, z+.5'
  6	'-x+.5, -y+.5, -z'
  7	'-x+.5, y+.5, -z+.5'
  8	'x+.5, y+.5, z'
loop_
_atom_type_symbol
_atom_type_oxidation_number
C4+	4
Li1+	1
O2-	-2
loop_
_atom_site_label
_atom_site_type_symbol
_atom_site_symmetry_multiplicity
_atom_site_Wyckoff_symbol
_atom_site_fract_x
_atom_site_fract_y
_atom_site_fract_z
_atom_site_occupancy
_atom_site_attached_hydrogens
Li1 Li1+ 8 f 0.1965(4) 0.4484(6) 0.8344(6) 1. 0 
C1 C4+ 4 e 0 0.0657(5) 0.25 1. 0 
O1 O2- 4 e 0 0.3213(4) 0.25 1. 0 
O2 O2- 8 f 0.1459(2) -.0635(2) 0.3127(2) 1. 0 

#End of data_100324-ICSD


