data_260287-ICSD
#?2014 by Fachinformationszentrum Karlsruhe, and the U.S. Secretary of 
#Commerce on behalf of the United States.  All rights reserved.
_database_code_ICSD                260287
_audit_creation_date               2009/08/01
_audit_update_record               2011/02/01
_chemical_name_systematic
;
Lithium Diaquanickel(II) Catena-borodiphosphate(V) Monohydrate
;
_chemical_formula_structural       'Li Ni (B P2 O8 (H2 O)2) (H2 O)'
_chemical_formula_sum              'H6 B1 Li1 Ni1 O11 P2'
_publ_section_title
;
Lithium diaquanickel(II) catena-borodiphosphate(V) monohydrate
;
loop_
_citation_id
_citation_journal_abbrev
_citation_year
_citation_journal_volume
_citation_journal_issue
_citation_page_first
_citation_page_last
_citation_journal_id_ASTM
primary 'Acta Crystallographica, Section E. Structure Reports Online'
 2009 65 6 i42 i42 ACSEBH
_publ_author_name                  'Zheng Juan;Zhang Aiyun'
_cell_length_a                     9.3359(3)
_cell_length_b                     9.3359(3)
_cell_length_c                     15.7497(11)
_cell_angle_alpha                  90.00
_cell_angle_beta                   90.00
_cell_angle_gamma                  120.00
_cell_volume                       1188.82
_cell_formula_units_Z              6
_symmetry_space_group_name_H-M     'P 65 2 2'
_symmetry_Int_Tables_number        179
_refine_ls_R_factor_all            .0261
loop_
_symmetry_equiv_pos_site_id
_symmetry_equiv_pos_as_xyz
  1	'x, x-y, -z+.8333'
  2	'-x+y, y, -z+.5'
  3	'-y, -x, -z+.1667'
  4	'-x, -x+y, -z+.3333'
  5	'x-y, -y, -z'
  6	'y, x, -z+.6667'
  7	'x-y, x, z+.8333'
  8	'y, -x+y, z+.1667'
  9	'-x, -y, z+.5'
 10	'-x+y, -x, z+.3333'
 11	'-y, x-y, z+.6667'
 12	'x, y, z'
loop_
_atom_type_symbol
_atom_type_oxidation_number
B3+	3
H1+	1
Li1+	1
Ni2+	2
O2-	-2
P5+	5
loop_
_atom_site_label
_atom_site_type_symbol
_atom_site_symmetry_multiplicity
_atom_site_Wyckoff_symbol
_atom_site_fract_x
_atom_site_fract_y
_atom_site_fract_z
_atom_site_occupancy
_atom_site_attached_hydrogens
_atom_site_U_iso_or_equiv
Ni1 Ni2+ 6 b 0.55533(4) 0.44467(4) 0.0833 1 0 0.0098(2) 
P1 P5+ 12 c 0.38859(12) 0.21675(12) 0.24795(7) 1 0 0.0093(3) 
O1 O2- 12 c 0.4156(3) 0.2355(3) 0.34570(16) 1 0 0.0108(6) 
O2 O2- 12 c 0.2137(3) 0.1899(4) 0.23106(18) 1 0 0.0129(7) 
O3 O2- 12 c 0.4865(4) 0.1970(4) 0.05090(19) 1 0 0.0214(7) 
O4 O2- 12 c 0.5200(4) 0.3782(3) 0.21028(17) 1 0 0.0142(7) 
O5 O2- 12 c 0.3853(4) 0.0644(4) 0.21452(17) 1 0 0.0151(7) 
O6 O2- 6 b 0.2044(10) 0.1022(5) -0.0833 1 0 0.079(2) 
B1 B3+ 6 b 0.3036(8) 0.1518(4) 0.4167 1 0 0.0090(13) 
Li1 Li1+ 6 b 0.466(3) 0.2331(13) -0.0833 1 0 0.080(5) 
H1 H1+ 12 c 0.5738 0.2196 0.0284 1 0 0.096 
H2 H1+ 12 c 0.1509 0.0382 -0.1223 1 0 0.096 
H3 H1+ 12 c 0.4428 0.1571 0.0973 1 0 0.096 

loop_
_atom_site_aniso_label
_atom_site_aniso_type_symbol
_atom_site_aniso_U_11
_atom_site_aniso_U_22
_atom_site_aniso_U_33
_atom_site_aniso_U_12
_atom_site_aniso_U_13
_atom_site_aniso_U_23
Ni1 Ni2+ 0.0098(3) 0.0098(3) 0.0100(3) 0.0050(3) 0.0013(3) 0.0013(3)
P1 P5+ 0.0097(5) 0.0097(5) 0.0086(5) 0.0050(4) 0.0015(4) 0.0015(4)
O1 O2- 0.0095(14) 0.0126(16) 0.0089(13) 0.0044(12) 0.0014(11) 0.0016(11)
O2 O2- 0.0131(16) 0.0132(15) 0.0157(16) 0.0091(13) -0.0022(12) -0.0030(12)
O3 O2- 0.0277(18) 0.0162(18) 0.0231(17) 0.0130(14) 0.0121(14) 0.0049(14)
O4 O2- 0.0143(16) 0.0134(14) 0.0101(13) 0.0032(13) 0.0021(12) 0.0040(11)
O5 O2- 0.0211(17) 0.0159(16) 0.0147(14) 0.0140(14) 0.0008(14) -0.0017(12)
O6 O2- 0.083(6) 0.061(3) 0.100(6) 0.042(3) 0.000 -0.024(4)
B1 B3+ 0.012(3) 0.009(2) 0.007(3) 0.0059(15) 0.000 0.001(2)
Li1 Li1+ 0.094(15) 0.089(10) 0.058(10) 0.047(8) 0.000 0.011(10)
#End of data_260287-ICSD


