data_425890-ICSD
#?2014 by Fachinformationszentrum Karlsruhe, and the U.S. Secretary of 
#Commerce on behalf of the United States.  All rights reserved.
_database_code_ICSD                425890
_audit_creation_date               2014/02/01
_chemical_name_systematic          'Trirubidium Zinc Pentaborate'
_chemical_formula_structural       'Rb3 Zn (B5 O10)'
_chemical_formula_sum              'B5 O10 Rb3 Zn1'
_publ_section_title
;
Syntheses, structures, and characterization of two new rubidium 
cadmium(II)/zinc(II) borates: Rb3 M B5 O10 (M = Cd, Zn)
;
loop_
_citation_id
_citation_journal_abbrev
_citation_year
_citation_journal_volume
_citation_journal_issue
_citation_page_first
_citation_page_last
_citation_journal_id_ASTM
primary 'Zeitschrift fuer Kristallographie - Crystalline Materials'
 2013 228 9 444 448 ZKCMAJ
_publ_author_name
;
Yu, Hongwei;Wu, Hongping;Pan, Shilie;Dong, Lingyun;Han, Shujun;Jiao, 
Anqing;Poeppelmeier, Kenneth R.
;
_cell_length_a                     10.449(11)
_cell_length_b                     9.414(10)
_cell_length_c                     11.690(12)
_cell_angle_alpha                  90.00
_cell_angle_beta                   105.888(11)
_cell_angle_gamma                  90.00
_cell_volume                       1105.98
_cell_formula_units_Z              4
_symmetry_space_group_name_H-M     'P 1 21/n 1'
_symmetry_Int_Tables_number        14
_refine_ls_R_factor_all            .0356
loop_
_symmetry_equiv_pos_site_id
_symmetry_equiv_pos_as_xyz
  1	'-x+.5, y+.5, -z+.5'
  2	'-x, -y, -z'
  3	'x+.5, -y+.5, z+.5'
  4	'x, y, z'
loop_
_atom_type_symbol
_atom_type_oxidation_number
B3+	3
O2-	-2
Rb1+	1
Zn2+	2
loop_
_atom_site_label
_atom_site_type_symbol
_atom_site_symmetry_multiplicity
_atom_site_Wyckoff_symbol
_atom_site_fract_x
_atom_site_fract_y
_atom_site_fract_z
_atom_site_occupancy
_atom_site_attached_hydrogens
_atom_site_U_iso_or_equiv
Rb1 Rb1+ 4 e 0.99353(5) 1.06774(6) 0.29595(4) 1 0 0.02053(15) 
Rb2 Rb1+ 4 e 0.55649(5) 1.16987(6) 0.10751(5) 1 0 0.02297(15) 
Rb3 Rb1+ 4 e 1.34041(7) 0.90744(9) 0.34005(5) 1 0 0.0500(2) 
Zn1 Zn2+ 4 e 0.74543(6) 0.80454(6) 0.06716(5) 1 0 0.01499(16) 
B1 B3+ 4 e 0.8488(6) 1.3830(6) 0.2305(5) 1 0 0.0169(13) 
B2 B3+ 4 e 1.0271(6) 0.8080(7) 0.1075(5) 1 0 0.0161(12) 
B3 B3+ 4 e 0.7228(6) 0.5031(6) 0.0505(5) 1 0 0.0147(12) 
B4 B3+ 4 e 0.8027(6) 1.0417(7) -0.0601(5) 1 0 0.0181(13) 
B5 B3+ 4 e 0.8468(6) 1.2815(6) 0.0309(5) 1 0 0.0181(13) 
O1 O2- 4 e 0.7395(4) 0.9143(4) -0.0761(3) 1 0 0.0222(9) 
O2 O2- 4 e 0.9298(3) 0.7976(4) 0.1619(3) 1 0 0.0185(8) 
O3 O2- 4 e 1.2444(4) 1.1093(4) 0.4840(3) 1 0 0.0209(8) 
O4 O2- 4 e 0.9080(4) 1.3065(4) 0.1596(3) 1 0 0.0203(8) 
O5 O2- 4 e 1.1122(4) 0.9253(4) 0.1318(3) 1 0 0.0204(8) 
O6 O2- 4 e 0.6639(4) 0.6220(4) -0.0010(3) 1 0 0.0192(8) 
O7 O2- 4 e 1.5487(4) 0.7937(4) 0.5302(3) 1 0 0.0189(8) 
O8 O2- 4 e 0.7428(4) 0.9876(4) 0.3252(3) 1 0 0.0231(9) 
O9 O2- 4 e 0.6179(4) 0.8670(4) 0.1513(3) 1 0 0.0202(8) 
O10 O2- 4 e 0.7869(4) 1.1402(4) 0.0190(3) 1 0 0.0260(10) 

loop_
_atom_site_aniso_label
_atom_site_aniso_type_symbol
_atom_site_aniso_U_11
_atom_site_aniso_U_22
_atom_site_aniso_U_33
_atom_site_aniso_U_12
_atom_site_aniso_U_13
_atom_site_aniso_U_23
Rb1 Rb1+ 0.0207(3) 0.0194(3) 0.0217(3) 0.0021(2) 0.0063(2) 0.0013(2)
Rb2 Rb1+ 0.0218(3) 0.0238(3) 0.0229(3) 0.0025(2) 0.0055(2) 0.0005(2)
Rb3 Rb1+ 0.0294(4) 0.0989(6) 0.0204(3) 0.0286(4) 0.0046(3) -0.0026(3)
Zn1 Zn2+ 0.0146(3) 0.0165(3) 0.0144(3) -0.0011(3) 0.0049(2) -0.0004(2)
B1 B3+ 0.013(3) 0.016(3) 0.022(3) -0.003(2) 0.006(3) 0.005(2)
B2 B3+ 0.017(3) 0.017(3) 0.010(3) 0.002(2) -0.003(2) 0.003(2)
B3 B3+ 0.010(3) 0.015(3) 0.018(3) -0.002(2) 0.004(2) -0.003(2)
B4 B3+ 0.015(3) 0.020(3) 0.016(3) 0.004(3) -0.001(2) 0.005(2)
B5 B3+ 0.022(3) 0.018(3) 0.015(3) 0.002(3) 0.007(3) 0.000(2)
O1 O2- 0.030(2) 0.021(2) 0.0162(19) -0.0104(17) 0.0072(17) 0.0021(15)
O2 O2- 0.0135(19) 0.028(2) 0.0145(18) -0.0012(16) 0.0045(15) -0.0003(15)
O3 O2- 0.025(2) 0.021(2) 0.0158(19) -0.0117(17) 0.0026(17) 0.0005(15)
O4 O2- 0.022(2) 0.023(2) 0.0167(19) 0.0107(17) 0.0062(16) 0.0047(15)
O5 O2- 0.025(2) 0.020(2) 0.0193(19) -0.0088(17) 0.0116(17) -0.0065(16)
O6 O2- 0.019(2) 0.016(2) 0.021(2) -0.0029(16) 0.0013(16) -0.0012(15)
O7 O2- 0.025(2) 0.016(2) 0.0188(19) 0.0053(16) 0.0115(16) 0.0043(15)
O8 O2- 0.031(2) 0.020(2) 0.019(2) -0.0126(18) 0.0075(17) -0.0018(16)
O9 O2- 0.023(2) 0.024(2) 0.0153(19) -0.0004(17) 0.0085(17) -0.0033(16)
O10 O2- 0.034(2) 0.020(2) 0.034(2) -0.0049(18) 0.027(2) -0.0072(18)
#End of data_425890-ICSD


