data_188508-ICSD
#?2014 by Fachinformationszentrum Karlsruhe, and the U.S. Secretary of 
#Commerce on behalf of the United States.  All rights reserved.
_database_code_ICSD                188508
_audit_creation_date               2014/02/01
_chemical_name_systematic
;
Lead Tellurium(VI) Zinc Phosphorus Oxide (3/1/3/2/14)
;
_chemical_formula_structural       'Pb3 Te Zn3 P2 O14'
_chemical_formula_sum              'O14 P2 Pb3 Te1 Zn3'
_chemical_name_mineral             Unnamed_Langasite
_publ_section_title
;
Crystal structure and magnetic properties of the Ba3 Te Co3 P2 O14, 
Pb3 Te Co3 P2 O14, and Pb3 Te Co3 V2 O14 langasites
;
loop_
_citation_id
_citation_journal_abbrev
_citation_year
_citation_journal_volume
_citation_page_first
_citation_page_last
_citation_journal_id_ASTM
primary 'Journal of Solid State Chemistry' 2013 203 310 320 JSSCBI
_publ_author_name
;
Krizan, J.W.;de la Cruz, C.;Andersen, N.H.;Cava, R.J.
;
_cell_length_a                     14.51284(3)
_cell_length_b                     25.1385(2)
_cell_length_c                     5.1874(4)
_cell_angle_alpha                  90
_cell_angle_beta                   90.0631
_cell_angle_gamma                  90
_cell_volume                       1892.52
_cell_formula_units_Z              6
_symmetry_space_group_name_H-M     'P 1 2 1'
_symmetry_Int_Tables_number        3
_refine_ls_R_factor_all            .135
loop_
_symmetry_equiv_pos_site_id
_symmetry_equiv_pos_as_xyz
  1	'-x, y, -z'
  2	'x, y, z'
loop_
_atom_type_symbol
_atom_type_oxidation_number
O2-	-2
P5+	5
Pb2+	2
Te6+	6
Zn2+	2
loop_
_atom_site_label
_atom_site_type_symbol
_atom_site_symmetry_multiplicity
_atom_site_Wyckoff_symbol
_atom_site_fract_x
_atom_site_fract_y
_atom_site_fract_z
_atom_site_occupancy
_atom_site_attached_hydrogens
Pb1 Pb2+ 1 a 0 0.4686 0 1.0 0 
Pb2 Pb2+ 1 c 0.50000 0.9734 0 1.0 0 
Pb3 Pb2+ 1 a 0 0.794 0 1.0 0 
Pb4 Pb2+ 1 c 0.50000 0.292 0 1.0 0 
Pb5 Pb2+ 1 a 0 0.133 0 1.0 0 
Pb6 Pb2+ 1 c 0.50000 0.631 0 1.0 0 
Pb7 Pb2+ 2 e 0.2941 0.0953 0.990 1.0 0 
Pb8 Pb2+ 2 e 0.7848 0.5940 0.003 1.0 0 
Pb9 Pb2+ 2 e 0.295 0.7627 0.009 1.0 0 
Pb10 Pb2+ 2 e 0.800 0.2630 0.987 1.0 0 
Pb11 Pb2+ 2 e 0.293 0.4225 0.013 1.0 0 
Pb12 Pb2+ 2 e 0.806 0.9288 -0.002 1.0 0 
O1 O2- 2 e 0.050 0.716 0.21 1.0 0 
Te1 Te6+ 1 a 0 0.658 0 1.0 0 
O2 O2- 2 e 0.899 0.648 0.23 1.0 0 
O3 O2- 2 e 0.068 0.604 0.20 1.0 0 
O4 O2- 2 e 0.541 0.215 0.21 1.0 0 
Te2 Te6+ 1 c 0.50000 0.154 0 1.0 0 
O5 O2- 2 e 0.393 0.154 0.22 1.0 0 
O6 O2- 2 e 0.569 0.106 0.21 1.0 0 
O7 O2- 2 e 0.062 0.054 0.167 1.0 0 
Te3 Te6+ 1 a 0 0 0 1.0 0 
O8 O2- 2 e 0.057 0.944 0.19 1.0 0 
O9 O2- 2 e 0.892 0.992 0.21 1.0 0 
O10 O2- 2 e 0.548 0.548 0.22 1.0 0 
Te4 Te6+ 1 c 0.50000 0.491 0 1.0 0 
O11 O2- 2 e 0.402 0.485 0.23 1.0 0 
O12 O2- 2 e 0.562 0.440 0.22 1.0 0 
O13 O2- 2 e 0.047 0.392 0.22 1.0 0 
Te5 Te6+ 1 a 0 0.336 0 1.0 0 
O14 O2- 2 e 0.893 0.326 0.21 1.0 0 
O15 O2- 2 e 0.065 0.285 0.21 1.0 0 
O16 O2- 2 e 0.539 0.893 0.21 1.0 0 
Te6 Te6+ 1 c 0.50000 0.832 0 1.0 0 
O17 O2- 2 e 0.397 0.827 0.22 1.0 0 
O18 O2- 2 e 0.567 0.780 0.20 1.0 0 
Zn1 Zn2+ 1 b 0 0.575 0.50000 1.0 0 
Zn2 Zn2+ 1 d 0.50000 0.073 0.50000 1.0 0 
Zn3 Zn2+ 1 b 0 0.916 0.50000 1.0 0 
Zn4 Zn2+ 1 d 0.50000 0.409 0.50000 1.0 0 
Zn5 Zn2+ 1 b 0 0.248 0.50000 1.0 0 
Zn6 Zn2+ 1 d 0.50000 0.752 0.50000 1.0 0 
Zn7 Zn2+ 2 e 0.114 0.041 0.497 1.0 0 
Zn8 Zn2+ 2 e 0.632 0.537 0.523 1.0 0 
Zn9 Zn2+ 2 e 0.119 0.699 0.510 1.0 0 
Zn10 Zn2+ 2 e 0.626 0.203 0.485 1.0 0 
Zn11 Zn2+ 2 e 0.120 0.371 0.488 1.0 0 
Zn12 Zn2+ 2 e 0.634 0.871 0.493 1.0 0 
O19 O2- 2 e 0.166 0.161 0.253 1.0 0 
P1 P5+ 2 e 0.1676 0.166 0.546 1.0 0 
O20 O2- 2 e 0.136 0.111 0.65 1.0 0 
O21 O2- 2 e 0.104 0.210 0.65 1.0 0 
O22 O2- 2 e 0.262 0.178 0.67 1.0 0 
O23 O2- 2 e 0.332 0.662 0.737 1.0 0 
P2 P5+ 2 e 0.3351 0.664 0.443 1.0 0 
O24 O2- 2 e 0.393 0.712 0.35 1.0 0 
O25 O2- 2 e 0.237 0.670 0.33 1.0 0 
O26 O2- 2 e 0.377 0.612 0.34 1.0 0 
O27 O2- 2 e 0.163 0.828 0.246 1.0 0 
P3 P5+ 2 e 0.1608 0.8261 0.540 1.0 0 
O28 O2- 2 e 0.095 0.868 0.66 1.0 0 
O29 O2- 2 e 0.256 0.837 0.67 1.0 0 
O30 O2- 2 e 0.122 0.773 0.64 1.0 0 
O31 O2- 2 e 0.328 0.325 0.744 1.0 0 
P4 P5+ 2 e 0.3314 0.3277 0.450 1.0 0 
O32 O2- 2 e 0.397 0.371 0.34 1.0 0 
O33 O2- 2 e 0.232 0.332 0.34 1.0 0 
O34 O2- 2 e 0.363 0.273 0.35 1.0 0 
O35 O2- 2 e 0.160 0.487 0.211 1.0 0 
P5 P5+ 2 e 0.1667 0.4960 0.500 1.0 0 
O36 O2- 2 e 0.078 0.515 0.637 1.0 0 
O37 O2- 2 e 0.235 0.539 0.59 1.0 0 
O38 O2- 2 e 0.202 0.4402 0.577 1.0 0 
O39 O2- 2 e 0.322 0.998 0.754 1.0 0 
P6 P5+ 2 e 0.3273 0.9999 0.460 1.0 0 
O40 O2- 2 e 0.392 0.043 0.34 1.0 0 
O41 O2- 2 e 0.236 0.009 0.312 1.0 0 
O42 O2- 2 e 0.369 0.947 0.36 1.0 0 

#End of data_188508-ICSD


