data_200547-ICSD
#?2014 by Fachinformationszentrum Karlsruhe, and the U.S. Secretary of 
#Commerce on behalf of the United States.  All rights reserved.
_database_code_ICSD                200547
_audit_creation_date               1980/01/01
_audit_update_record               2013/08/01
_chemical_name_systematic          'Tripotassium Ytterbium Sulfate'
_chemical_formula_structural       'K3 Yb (S O4)3'
_chemical_formula_sum              'K3 O12 S3 Yb1'
_publ_section_title                'Crystal structure of K3 Yb (S O4)3'
loop_
_citation_id
_citation_journal_abbrev
_citation_year
_citation_journal_volume
_citation_page_first
_citation_page_last
_citation_journal_id_ASTM
primary Kristallografiya 1978 23 1036 1039 KRISAJ
2 'Soviet Physics, Crystallography (= Kristallografiya)'
 1978 23 586 588 SPHCA6
_publ_author_name
;
Degtyarev, P.A.;Korytnaya, F.M.;Pokrovskii, A.N.;Kovba, L.M.
;
_cell_length_a                     10.39(2)
_cell_length_b                     8.99(1)
_cell_length_c                     14.65(3)
_cell_angle_alpha                  90.
_cell_angle_beta                   90.
_cell_angle_gamma                  124.15(4)
_cell_volume                       1132.45
_cell_formula_units_Z              4
_symmetry_space_group_name_H-M     'B 1 1 b'
_symmetry_Int_Tables_number        9
_refine_ls_R_factor_all            .058
loop_
_symmetry_equiv_pos_site_id
_symmetry_equiv_pos_as_xyz
  1	'x, y+.5, -z'
  2	'x, y, z'
  3	'x+.5, y+.5, -z+.5'
  4	'x+.5, y, z+.5'
loop_
_atom_type_symbol
_atom_type_oxidation_number
K1+	1
O2-	-2
S6+	6
Yb3+	3
loop_
_atom_site_label
_atom_site_type_symbol
_atom_site_symmetry_multiplicity
_atom_site_Wyckoff_symbol
_atom_site_fract_x
_atom_site_fract_y
_atom_site_fract_z
_atom_site_occupancy
_atom_site_attached_hydrogens
_atom_site_B_iso_or_equiv
Yb1 Yb3+ 4 a 0 0 0.3379(1) 1. 0 0 
K1 K1+ 4 a 0.334(1) 0.887(1) 0.4874(8) 1. 0 0 
K2 K1+ 4 a 0.197(1) 0.647(1) 0.2527(9) 1. 0 0 
K3 K1+ 4 a 0.232(1) 0.976(1) 0.0663(9) 1. 0 0 
S1 S6+ 4 a 0.840(1) 0.642(1) 0.1907(7) 1. 0 0 
S2 S6+ 4 a 0.583(1) 0.756(1) 0.3533(8) 1. 0 0 
S3 S6+ 4 a 0.506(1) 0.861(1) 0.0561(8) 1. 0 0 
O1 O2- 4 a 0.892(4) 0.722(5) 0.282(3) 1. 0 2.8 
O2 O2- 4 a 0.505(4) 0.703(4) 0.063(2) 1. 0 1.81 
O3 O2- 4 a 0.965(6) 0.655(6) 0.136(3) 1. 0 0.7 
O4 O2- 4 a 0.961(6) 0.855(5) 0.453(3) 1. 0 2.9 
O5 O2- 4 a 0.747(5) 0.916(4) 0.335(4) 1. 0 2.9 
O6 O2- 4 a 0.216(3) 0.953(4) 0.299(3) 1. 0 1.98 
O7 O2- 4 a 0.768(3) 0.699(5) 0.138(3) 1. 0 1.8 
O8 O2- 4 a 0.471(8) 0.811(8) 0.375(9) 1. 0 3. 
O9 O2- 4 a 0.589(7) 0.667(7) 0.431(4) 1. 0 2.7 
O10 O2- 4 a 0.012(4) 0.162(9) 0.226(3) 1. 0 2. 
O11 O2- 4 a 0.415(5) 0.876(5) 0.137(3) 1. 0 2.7 
O12 O2- 4 a 0.667(4) 0.022(5) 0.076(7) 1. 0 2. 

#End of data_200547-ICSD


