data_71435-ICSD
#?2014 by Fachinformationszentrum Karlsruhe, and the U.S. Secretary of 
#Commerce on behalf of the United States.  All rights reserved.
_database_code_ICSD                71435
_audit_creation_date               1993/01/06
_audit_update_record               2012/02/01
_chemical_name_systematic          'Aluminium Phosphate(V)'
_chemical_formula_structural       'Al (P O4)'
_chemical_formula_sum              'Al1 O4 P1'
_publ_section_title
;
The structure determination and Rietveld refinement of the 
aluminophosphate Al P O4-18
;
loop_
_citation_id
_citation_journal_abbrev
_citation_year
_citation_journal_volume
_citation_page_first
_citation_page_last
_citation_journal_id_ASTM
primary Zeolites 1991 11 654 661 ZEOLD3
_publ_author_name
;
Simmen, A.;McCusker, L.B.;Baerlocher, C.;Meier, W.M.
;
_cell_length_a                     13.7114(1)
_cell_length_b                     12.7314(1)
_cell_length_c                     18.5703(1)
_cell_angle_alpha                  90.
_cell_angle_beta                   90.01(1)
_cell_angle_gamma                  90.
_cell_volume                       3241.73
_cell_formula_units_Z              24
_symmetry_space_group_name_H-M     'C 1 2/c 1'
_symmetry_Int_Tables_number        15
_refine_ls_R_factor_all            .032
loop_
_symmetry_equiv_pos_site_id
_symmetry_equiv_pos_as_xyz
  1	'x, -y, z+.5'
  2	'-x, -y, -z'
  3	'-x, y, -z+.5'
  4	'x, y, z'
  5	'x+.5, -y+.5, z+.5'
  6	'-x+.5, -y+.5, -z'
  7	'-x+.5, y+.5, -z+.5'
  8	'x+.5, y+.5, z'
loop_
_atom_type_symbol
_atom_type_oxidation_number
Al3+	3
O2-	-2
P5+	5
loop_
_atom_site_label
_atom_site_type_symbol
_atom_site_symmetry_multiplicity
_atom_site_Wyckoff_symbol
_atom_site_fract_x
_atom_site_fract_y
_atom_site_fract_z
_atom_site_occupancy
_atom_site_attached_hydrogens
_atom_site_U_iso_or_equiv
Al1 Al3+ 8 f 0.110(1) 0.041(1) 0.166(1) 1. 0 0.009(1) 
Al2 Al3+ 8 f 0.118(1) 0.773(1) 0.938(1) 1. 0 0.012(1) 
Al3 Al3+ 8 f 0.770(1) -.097(1) 0.049(1) 1. 0 0.018(1) 
P1 P5+ 8 f 0.227(1) -.095(1) 0.054(1) 1. 0 0.018(1) 
P2 P5+ 8 f 0.891(1) 0.769(1) 0.938(1) 1. 0 0.012(1) 
P3 P5+ 8 f 0.883(1) 0.030(1) 0.164(1) 1. 0 0.009(1) 
O1 O2- 8 f 0.822(1) -.053(1) 0.129(1) 1. 0 0.009(1) 
O2 O2- 8 f 0.858(1) 0.833(1) 0.002(1) 1. 0 0.009(1) 
O3 O2- 8 f 0.003(1) 0.741(1) 0.946(1) 1. 0 0.009(1) 
O4 O2- 8 f 0.153(2) 0.832(1) 0.020(1) 1. 0 0.009(1) 
O5 O2- 8 f 0.182(1) -.046(1) 0.120(1) 1. 0 0.009(1) 
O6 O2- 8 f -.010(1) 0.002(1) 0.156(1) 1. 0 0.009(1) 
O7 O2- 8 f 0.864(2) 0.137(1) 0.133(1) 1. 0 0.009(1) 
O8 O2- 8 f 0.668(1) 0.830(1) 0.070(1) 1. 0 0.009(1) 
O9 O2- 8 f 0.141(1) 0.034(1) 0.257(1) 1. 0 0.009(1) 
O10 O2- 8 f 0.184(1) 0.659(2) 0.925(1) 1. 0 0.009(1) 
O11 O2- 8 f 0.872(1) 0.838(1) 0.873(1) 1. 0 0.009(1) 
O12 O2- 8 f 0.738(1) 0.012(1) 0.998(1) 1. 0 0.009(1) 

#End of data_71435-ICSD


