data_99481-ICSD
#?2014 by Fachinformationszentrum Karlsruhe, and the U.S. Secretary of 
#Commerce on behalf of the United States.  All rights reserved.
_database_code_ICSD                99481
_audit_creation_date               2005/04/01
_chemical_name_systematic
;
Dilithium Tetrakis(dioxouranium(VI)) Tetrakis(tungstate(VI)) Oxide
;
_chemical_formula_structural       'Li2 (U O2)4 (W O4)4 O'
_chemical_formula_sum              'Li2 O25 U4 W4'
_publ_section_title
;
Two new lithium uranyl tungstates Li2 (U O2) (W O4)2 and Li2 (U O2)4 
(W O4)4 O with framework based on the uranophane sheet anion topology
;
loop_
_citation_id
_citation_journal_abbrev
_citation_year
_citation_journal_volume
_citation_page_first
_citation_page_last
_citation_journal_id_ASTM
primary 'Journal of Solid State Chemistry' 2004 177 1681 1694 JSSCBI
_publ_author_name
;
Obbade, S.;Yagoubi, S.;Dion, C.;Saadi, M.;Abraham, F.
;
_cell_length_a                     14.019(4)
_cell_length_b                     6.3116(17)
_cell_length_c                     22.296(6)
_cell_angle_alpha                  90
_cell_angle_beta                   98.86(3)
_cell_angle_gamma                  90
_cell_volume                       1949.26
_cell_formula_units_Z              4
_symmetry_space_group_name_H-M     'C 1 2/c 1'
_symmetry_Int_Tables_number        15
_refine_ls_R_factor_all            .051
loop_
_symmetry_equiv_pos_site_id
_symmetry_equiv_pos_as_xyz
  1	'x, -y, z+.5'
  2	'-x, -y, -z'
  3	'-x, y, -z+.5'
  4	'x, y, z'
  5	'x+.5, -y+.5, z+.5'
  6	'-x+.5, -y+.5, -z'
  7	'-x+.5, y+.5, -z+.5'
  8	'x+.5, y+.5, z'
loop_
_atom_type_symbol
_atom_type_oxidation_number
Li1+	1
O2-	-2
U6+	6
W6+	6
loop_
_atom_site_label
_atom_site_type_symbol
_atom_site_symmetry_multiplicity
_atom_site_Wyckoff_symbol
_atom_site_fract_x
_atom_site_fract_y
_atom_site_fract_z
_atom_site_occupancy
_atom_site_attached_hydrogens
_atom_site_U_iso_or_equiv
U1 U6+ 4 e 0 0.04210(19) 0.750 1. 0 0.0086(3) 
U2 U6+ 4 a 0.5 0.5 0 1. 0 0.0095(3) 
U3 U6+ 8 f 0.29366(6) 0.44785(14) 0.84438(4) 1. 0 0.0080(2) 
W1 W6+ 8 f 0.27992(7) 0.51275(13) 0.08680(5) 1. 0 0.0090(2) 
W2 W6+ 8 f 0.08111(7) 0.49831(13) 0.68717(4) 1. 0 0.0079(2) 
O1 O2- 4 e 0 0.434(4) 0.750 1. 0 0.018(5) 
O2 O2- 8 f 0.2044(12) 0.455(3) 0.7754(7) 1. 0 0.013(4) 
O3 O2- 8 f 0.1893(11) 0.564(3) 0.6502(8) 1. 0 0.015(4) 
O4 O2- 8 f 0.3020(12) 0.225(2) 0.0980(7) 1. 0 0.012(3) 
O5 O2- 8 f 0.3885(13) 0.450(3) 0.9128(8) 1. 0 0.016(4) 
O6 O2- 8 f 0.1072(12) 0.202(2) 0.6916(8) 1. 0 0.015(4) 
O7 O2- 8 f -0.0911(13) 0.034(3) 0.6822(9) 1. 0 0.020(4) 
O8 O2- 8 f 0.0892(12) 0.786(2) 0.7132(7) 1. 0 0.014(4) 
O9 O2- 8 f -0.0104(12) 0.515(2) 0.6256(9) 1. 0 0.014(4) 
O10 O2- 8 f 0.1903(14) 0.524(3) 0.0235(8) 1. 0 0.020(4) 
O11 O2- 8 f 0.4841(12) 0.227(2) 0.0182(7) 1. 0 0.014(4) 
O12 O2- 8 f 0.2732(13) 0.774(3) 0.1252(8) 1. 0 0.024(4) 
O13 O2- 8 f 0.3853(13) 0.582(3) 0.0551(8) 1. 0 0.022(4) 
Li1 Li1+ 8 f 0.898(4) 0.491(7) 0.560(3) 1. 0 0.022(10) 

loop_
_atom_site_aniso_label
_atom_site_aniso_type_symbol
_atom_site_aniso_U_11
_atom_site_aniso_U_22
_atom_site_aniso_U_33
_atom_site_aniso_U_12
_atom_site_aniso_U_13
_atom_site_aniso_U_23
U1 U6+ .0097(6) .0056(5) .0107(6) 0. .0021(5) 0.
U2 U6+ .0082(6) .0112(6) .0087(6) -.0005(5) .0001(5) .0000(4)
U3 U6+ .0091(4) .0058(4) .0085(4) .0002(3) -.0004(3) .0003(3)
W1 W6+ .0101(5) .0060(4) .0113(5) .0004(3) .0027(4) .0001(3)
W2 W6+ .0104(5) .0052(4) .0087(5) -.0006(3) .0032(4) -.0002(3)
O1 O2- .027(15) .007(11) .021(14) 0. .010(11) 0.
O2 O2- .004(8) .017(8) .019(10) .001(7) .002(8) -.008(8)
O3 O2- .009(9) .010(8) .028(10) .001(6) .008(8) .010(7)
O4 O2- .020(10) .005(7) .010(8) .000(6) .000(7) .003(6)
O5 O2- .016(10) .010(8) .019(10) .002(7) -.006(8) -.006(7)
O6 O2- .019(11) .010(7) .021(9) -.007(7) .015(8) -.006(7)
O7 O2- .010(7) .012(8) .037(12) .001(7) -.003(8) .002(8)
O8 O2- .023(11) .005(7) .018(9) .002(7) .012(8) .008(6)
O9 O2- .011(9) .015(8) .015(9) .005(8) .000(7) .010(7)
O10 O2- .010(8) .018(9) .034(12) -.007(7) .005(8) -.004(8)
O11 O2- .014(9) .016(8) .010(8) -.002(7) -.001(7) -.001(7)
O12 O2- .018(11) .022(10) .034(12) -.009(8) .010(9) -.011(8)
O13 O2- .032(12) .016(9) .022(10) .008(8) .011(9) .001(8)
#End of data_99481-ICSD


