data_171959-ICSD
#?2014 by Fachinformationszentrum Karlsruhe, and the U.S. Secretary of 
#Commerce on behalf of the United States.  All rights reserved.
_database_code_ICSD                171959
_audit_creation_date               2007/04/01
_chemical_name_systematic          'Trisilver Gold(I) Selenide'
_chemical_formula_structural       'Ag3 Au Se2'
_chemical_formula_sum              'Ag3 Au1 Se2'
_chemical_name_mineral             Fischesserite
_publ_section_title
;
Structural and physical properties of fischesserite, a rare gold-
silver selenide from the De Lamar mine, Owyhee County, Idaho, USA
;
loop_
_citation_id
_citation_journal_abbrev
_citation_year
_citation_journal_volume
_citation_page_first
_citation_page_last
_citation_journal_id_ASTM
primary 'Canadian Mineralogist' 2004 42 1733 1737 CAMIA6
_publ_author_name                  'Bindi, L.;Cipriani, C.'
_cell_length_a                     9.965(1)
_cell_length_b                     9.965(1)
_cell_length_c                     9.965(1)
_cell_angle_alpha                  90
_cell_angle_beta                   90
_cell_angle_gamma                  90
_cell_volume                       989.54
_cell_formula_units_Z              8
_symmetry_space_group_name_H-M     'I 41 3 2'
_symmetry_Int_Tables_number        214
_refine_ls_R_factor_all            .0269
loop_
_symmetry_equiv_pos_site_id
_symmetry_equiv_pos_as_xyz
  1	'y+.25, x+.75, -z+.75'
  2	'-y+.75, x+.25, z+.75'
  3	'y+.75, -x+.75, z+.25'
  4	'-y+.25, -x+.25, -z+.25'
  5	'z+.5, -x+.5, -y'
  6	'-z+.5, -x, y+.5'
  7	'-z, x+.5, -y+.5'
  8	'z, x, y'
  9	'-z+.75, y+.25, x+.75'
 10	'z+.75, -y+.75, x+.25'
 11	'z+.25, y+.75, -x+.75'
 12	'-z+.25, -y+.25, -x+.25'
 13	'-y, z+.5, -x+.5'
 14	'y+.5, -z+.5, -x'
 15	'-y+.5, -z, x+.5'
 16	'y, z, x'
 17	'x+.75, -z+.75, y+.25'
 18	'x+.25, z+.75, -y+.75'
 19	'-x+.75, z+.25, y+.75'
 20	'-x+.25, -z+.25, -y+.25'
 21	'-x+.5, -y, z+.5'
 22	'-x, y+.5, -z+.5'
 23	'x+.5, -y+.5, -z'
 24	'x, y, z'
 25	'y+.75, x+.25, -z+.25'
 26	'-y+.25, x+.75, z+.25'
 27	'y+.25, -x+.25, z+.75'
 28	'-y+.75, -x+.75, -z+.75'
 29	'z, -x, -y+.5'
 30	'-z, -x+.5, y'
 31	'-z+.5, x, -y'
 32	'z+.5, x+.5, y+.5'
 33	'-z+.25, y+.75, x+.25'
 34	'z+.25, -y+.25, x+.75'
 35	'z+.75, y+.25, -x+.25'
 36	'-z+.75, -y+.75, -x+.75'
 37	'-y+.5, z, -x'
 38	'y, -z, -x+.5'
 39	'-y, -z+.5, x'
 40	'y+.5, z+.5, x+.5'
 41	'x+.25, -z+.25, y+.75'
 42	'x+.75, z+.25, -y+.25'
 43	'-x+.25, z+.75, y+.25'
 44	'-x+.75, -z+.75, -y+.75'
 45	'-x, -y+.5, z'
 46	'-x+.5, y, -z'
 47	'x, -y, -z+.5'
 48	'x+.5, y+.5, z+.5'
loop_
_atom_type_symbol
_atom_type_oxidation_number
Ag1+	1
Au1+	1
Se2-	-2
loop_
_atom_site_label
_atom_site_type_symbol
_atom_site_symmetry_multiplicity
_atom_site_Wyckoff_symbol
_atom_site_fract_x
_atom_site_fract_y
_atom_site_fract_z
_atom_site_occupancy
_atom_site_attached_hydrogens
_atom_site_U_iso_or_equiv
Ag1 Ag1+ 24 f 0.3626(1) 0.0 0.25 1. 0 0.0232(3) 
Au1 Au1+ 8 a 0.125 0.125 0.125 1. 0 0.0242(3) 
Se1 Se2- 16 e 0.2756(1) 0.2756(1) 0.2756(1) 1. 0 0.0255(4) 

loop_
_atom_site_aniso_label
_atom_site_aniso_type_symbol
_atom_site_aniso_U_11
_atom_site_aniso_U_22
_atom_site_aniso_U_33
_atom_site_aniso_U_12
_atom_site_aniso_U_13
_atom_site_aniso_U_23
Ag1 Ag1+ 0.0232(4) 0.0232(5) 0.0233(4) 0 0 0.0003(3)
Au1 Au1+ 0.0242(3) 0.0242(3) 0.0242(3) 0.0003(2) 0.0003(2) 0.0003(2)
Se1 Se2- 0.0255(4) 0.0255(4) 0.0255(4) -0.0001(3) -0.0001(3) -0.0001(3)
#End of data_171959-ICSD


