data_85171-ICSD
#?2014 by Fachinformationszentrum Karlsruhe, and the U.S. Secretary of 
#Commerce on behalf of the United States.  All rights reserved.
_database_code_ICSD                85171
_audit_creation_date               1999/06/02
_audit_update_record               2003/04/01
_chemical_name_systematic
;
Trilithium Hexafluoroaluminate - Beta, Ht
;
_chemical_formula_structural       'Li3 (Al F6)'
_chemical_formula_sum              'Al1 F6 Li3'
_publ_section_title
;
Preparation and Rietveld refinement of the structure of beta-(Li3 Al 
F6)
;
loop_
_citation_id
_citation_journal_abbrev
_citation_year
_citation_journal_volume
_citation_journal_issue
_citation_page_first
_citation_page_last
_citation_journal_id_ASTM
primary 'Materials Research Bulletin' 1997 32 12 1683 1689 MRBUAC
2 'Phase Transition' 1992 38- 127 220 PHTRDP
_publ_author_name                  'Tyagi, A.K.;Koehler, J.'
_cell_length_a                     14.201(1)
_cell_length_b                     8.387(1)
_cell_length_c                     9.861(1)
_cell_angle_alpha                  90.
_cell_angle_beta                   94.07(1)
_cell_angle_gamma                  90.
_cell_volume                       1171.52
_cell_formula_units_Z              12
_symmetry_space_group_name_H-M     'C 1 2/c 1'
_symmetry_Int_Tables_number        15
_refine_ls_R_factor_all            .045
loop_
_symmetry_equiv_pos_site_id
_symmetry_equiv_pos_as_xyz
  1	'x, -y, z+.5'
  2	'-x, -y, -z'
  3	'-x, y, -z+.5'
  4	'x, y, z'
  5	'x+.5, -y+.5, z+.5'
  6	'-x+.5, -y+.5, -z'
  7	'-x+.5, y+.5, -z+.5'
  8	'x+.5, y+.5, z'
loop_
_atom_type_symbol
_atom_type_oxidation_number
Al3+	3
F1-	-1
Li1+	1
loop_
_atom_site_label
_atom_site_type_symbol
_atom_site_symmetry_multiplicity
_atom_site_Wyckoff_symbol
_atom_site_fract_x
_atom_site_fract_y
_atom_site_fract_z
_atom_site_occupancy
_atom_site_attached_hydrogens
_atom_site_B_iso_or_equiv
Li1 Li1+ 4 e 0 0.203(2) 0.25 1. 0 4. 
Li2 Li1+ 8 f 0.300(1) 0.351(2) 0.560(1) 1. 0 4. 
Li3 Li1+ 8 f 0.328(1) 0.212(1) 0.942(1) 1. 0 4. 
Li4 Li1+ 8 f 0.037(1) 0.338(2) 0.535(1) 1. 0 4. 
Li5 Li1+ 8 f 0.140(1) 0.863(2) 0.260(1) 1. 0 4. 
Al1 Al3+ 4 a 0 0 0 1. 0 3.39(6) 
Al2 Al3+ 8 f 0.3356(2) 0.0030(5) 0.7005(2) 1. 0 3.61(5) 
F1 F1- 8 f 0.0989(3) 0.3463(7) 0.1997(4) 1. 0 3.5(1) 
F2 F1- 8 f 0.2276(2) 0.3400(6) 0.8830(4) 1. 0 2.4(1) 
F3 F1- 8 f 0.1054(3) 0.3470(6) 0.7065(4) 1. 0 3.2(1) 
F4 F1- 8 f 0.2497(2) 0.0147(7) 0.8249(3) 1. 0 3.9(1) 
F5 F1- 8 f 0.0770(3) 0.1479(6) 0.9402(6) 1. 0 5.3(1) 
F6 F1- 8 f 0.9318(3) 0.1622(6) 0.0626(5) 1. 0 2.1(1) 
F7 F1- 8 f 0.4207(2) 0.9873(6) 0.5745(3) 1. 0 3.8(1) 
F8 F1- 8 f 0.2664(3) 0.1432(6) 0.5999(4) 1. 0 4.2(1) 
F9 F1- 8 f 0.0671(2) 0.0122(7) 0.1578(2) 1. 0 3.1(1) 

#End of data_85171-ICSD


