data_425554-ICSD
#?2014 by Fachinformationszentrum Karlsruhe, and the U.S. Secretary of 
#Commerce on behalf of the United States.  All rights reserved.
_database_code_ICSD                425554
_audit_creation_date               2014/02/01
_chemical_name_systematic
;
Dicopper Magnesium Tetrathiosilicate
;
_chemical_formula_structural       'Cu2 Mg (Si S4)'
_chemical_formula_sum              'Cu2 Mg1 S4 Si1'
_publ_section_title
;
Synthesis, structure, and optical properties of the quaternary 
diamond-like compounds I2 - II - IV - VI4 (I = Cu; II = Mg; IV = Si, 
Ge; VI = S, Se)
;
loop_
_citation_id
_citation_journal_abbrev
_citation_year
_citation_journal_volume
_citation_page_first
_citation_page_last
_citation_journal_id_ASTM
primary 'Journal of Solid State Chemistry' 2013 204 251 256 JSSCBI
_publ_author_name
;
Liu, Bin-Wen;Zhang, Ming-Jian;Zhao, Zhong-Yan;Zeng, Hui-Yi;Zheng, Fa-
Kun;Guo, Guo-Cong;Huang, Jin-Shun
;
_cell_length_a                     7.563(4)
_cell_length_b                     6.448(3)
_cell_length_c                     6.179(3)
_cell_angle_alpha                  90.00
_cell_angle_beta                   90.00
_cell_angle_gamma                  90.00
_cell_volume                       301.33
_cell_formula_units_Z              2
_symmetry_space_group_name_H-M     'P m n 21'
_symmetry_Int_Tables_number        31
_refine_ls_R_factor_all            .0359
loop_
_symmetry_equiv_pos_site_id
_symmetry_equiv_pos_as_xyz
  1	'x+.5, -y, z+.5'
  2	'-x+.5, -y, z+.5'
  3	'-x, y, z'
  4	'x, y, z'
loop_
_atom_type_symbol
_atom_type_oxidation_number
Cu1+	1
Mg2+	2
S2-	-2
Si4+	4
loop_
_atom_site_label
_atom_site_type_symbol
_atom_site_symmetry_multiplicity
_atom_site_Wyckoff_symbol
_atom_site_fract_x
_atom_site_fract_y
_atom_site_fract_z
_atom_site_occupancy
_atom_site_attached_hydrogens
_atom_site_U_iso_or_equiv
Cu1 Cu1+ 4 b 0.25258(10) 0.17753(12) 0.4935(4) 1 0 0.0191(4) 
Si1 Si4+ 2 a 0.0000 0.3227(3) 0.0001(9) 1 0 0.0099(5) 
Mg1 Mg2+ 2 a 0.0000 0.6544(4) 0.5008(10) 1 0 0.0115(7) 
S1 S2- 4 b 0.2286(2) 0.1643(3) 0.1210(3) 1 0 0.0112(4) 
S2 S2- 2 a 0.0000 0.3083(4) 0.6574(5) 1 0 0.0133(7) 
S3 S2- 2 a 0.0000 0.6368(4) 0.1078(4) 1 0 0.0112(5) 

loop_
_atom_site_aniso_label
_atom_site_aniso_type_symbol
_atom_site_aniso_U_11
_atom_site_aniso_U_22
_atom_site_aniso_U_33
_atom_site_aniso_U_12
_atom_site_aniso_U_13
_atom_site_aniso_U_23
Cu1 Cu1+ 0.0221(5) 0.0193(5) 0.0160(5) 0.0012(3) 0.0006(3) 0.0000(5)
Si1 Si4+ 0.0109(11) 0.0097(11) 0.0093(12) 0.000 0.000 -0.0020(10)
Mg1 Mg2+ 0.0178(15) 0.0077(13) 0.0090(15) 0.000 0.000 0.0007(19)
S1 S2- 0.0128(7) 0.0105(9) 0.0102(10) 0.0012(5) -0.0019(8) 0.0005(7)
S2 S2- 0.0134(11) 0.0165(11) 0.0098(16) 0.000 0.000 -0.0013(10)
S3 S2- 0.0148(11) 0.0070(9) 0.0119(14) 0.000 0.000 -0.0017(11)
#End of data_425554-ICSD


