data_89411-ICSD
#?2014 by Fachinformationszentrum Karlsruhe, and the U.S. Secretary of 
#Commerce on behalf of the United States.  All rights reserved.
_database_code_ICSD                89411
_audit_creation_date               2001/07/16
_chemical_name_systematic
;
Sodium Vanadium Oxide (1/2/5) - Alpha'
;
_chemical_formula_structural       'Na V2 O5'
_chemical_formula_sum              'Na1 O5 V2'
_publ_section_title
;
Structural properties of Na V2 O5 under high pressure
;
loop_
_citation_id
_citation_journal_abbrev
_citation_year
_citation_journal_volume
_citation_journal_issue
_citation_page_first
_citation_page_last
_citation_journal_id_ASTM
primary 'Physical Review, Serie 3. B - Condensed Matter (18,1978-)'
 1999 60 10 6945 6948 PRBMDO
_publ_author_name
;
Loa, I.;Syassen, K.;Kremer, R.K.;Schwarz, U.;Hanfland, M.
;
_cell_length_a                     11.2966(4)
_cell_length_b                     3.6145(1)
_cell_length_c                     4.6841(1)
_cell_angle_alpha                  90.
_cell_angle_beta                   90.
_cell_angle_gamma                  90.
_cell_volume                       191.26
_cell_formula_units_Z              2
_symmetry_space_group_name_H-M     'P m m n Z'
_symmetry_Int_Tables_number        59
_refine_ls_R_factor_all            .15
loop_
_symmetry_equiv_pos_site_id
_symmetry_equiv_pos_as_xyz
  1	'x+.5, y+.5, -z'
  2	'-x, y+.5, -z'
  3	'x+.5, -y, -z'
  4	'-x, -y, -z'
  5	'-x+.5, -y+.5, z'
  6	'x, -y+.5, z'
  7	'-x+.5, y, z'
  8	'x, y, z'
loop_
_atom_type_symbol
_atom_type_oxidation_number
Na1+	1
O2-	-2
V4.5+	4.5
loop_
_atom_site_label
_atom_site_type_symbol
_atom_site_symmetry_multiplicity
_atom_site_Wyckoff_symbol
_atom_site_fract_x
_atom_site_fract_y
_atom_site_fract_z
_atom_site_occupancy
_atom_site_attached_hydrogens
Na1 Na1+ 2 b 0.75 0.25 0.360(2) 1. 0 
V1 V4.5+ 4 f 0.0983(2) 0.25 0.1111(6) 1. 0 
O1 O2- 4 f 0.1116(7) 0.25 0.458(2) 1. 0 
O2 O2- 4 f -.0741(7) 0.25 0.014(2) 1. 0 
O3 O2- 2 a 0.25 0.25 -.013(3) 1. 0 

#End of data_89411-ICSD


