data_158193-ICSD
#?2014 by Fachinformationszentrum Karlsruhe, and the U.S. Secretary of 
#Commerce on behalf of the United States.  All rights reserved.
_database_code_ICSD                158193
_audit_creation_date               2008/02/01
_audit_update_record               2013/08/01
_chemical_name_systematic
;
Lithium Iron Diphosphate(V) (1/1.5/1)
;
_chemical_formula_structural       'Li Fe1.5 (P2 O7)'
_chemical_formula_sum              'Fe1.5 Li1 O7 P2'
_publ_section_title
;
Novel lithium iron pyrophosphate (Li Fe1.5 P2 O7) as a positive 
electrode for Li-ion batteries
;
loop_
_citation_id
_citation_journal_abbrev
_citation_year
_citation_journal_volume
_citation_page_first
_citation_page_last
_citation_journal_id_ASTM
primary 'Chemistry of Materials' 2007 19 5319 5324 CMATEX
_publ_author_name
;
Ramana, C.V.;Ait-Salah, A.;Utsunomiya, S.;Mauger, A.;Gendron, 
F.;Julien, C.M.
;
_cell_length_a                     6.9876
_cell_length_b                     8.1236
_cell_length_c                     9.6422
_cell_angle_alpha                  90.
_cell_angle_beta                   111.83
_cell_angle_gamma                  90.
_cell_volume                       508.09
_cell_formula_units_Z              4
_symmetry_space_group_name_H-M     'P 1 21/c 1'
_symmetry_Int_Tables_number        14
_refine_ls_R_factor_all            .0982
loop_
_symmetry_equiv_pos_site_id
_symmetry_equiv_pos_as_xyz
  1	'x, -y+.5, z+.5'
  2	'-x, -y, -z'
  3	'-x, y+.5, -z+.5'
  4	'x, y, z'
loop_
_atom_type_symbol
_atom_type_oxidation_number
Fe2+	2
Li1+	1
O2-	-2
P5+	5
loop_
_atom_site_label
_atom_site_type_symbol
_atom_site_symmetry_multiplicity
_atom_site_Wyckoff_symbol
_atom_site_fract_x
_atom_site_fract_y
_atom_site_fract_z
_atom_site_occupancy
_atom_site_attached_hydrogens
_atom_site_U_iso_or_equiv
Li1 Li1+ 4 e -0.2910 0.0820 0.6345 1. 0 0.0359 
Fe1 Fe2+ 4 e -0.1871 0.1268 0.9802 1. 0 0.0288 
Fe2 Fe2+ 2 c 0 0 0.5 1. 0 0.0265 
P1 P5+ 4 e 0.1178 0.2064 0.8051 1. 0 0.0291 
P2 P5+ 4 e 0.4051 -0.0512 0.7843 1. 0 0.0285 
O1 O2- 4 e 0.3251 0.1348 0.8100 1. 0 0.0196 
O2 O2- 4 e 0.0333 0.0788 0.8912 1. 0 0.0225 
O3 O2- 4 e -0.0086 0.2065 0.6361 1. 0 0.0278 
O4 O2- 4 e 0.6171 -0.0098 0.8021 1. 0 0.0269 
O5 O2- 4 e 0.3788 -0.1702 0.9038 1. 0 0.0251 
O6 O2- 4 e 0.2777 -0.1133 0.6235 1. 0 0.0212 
O7 O2- 4 e 0.1534 0.3781 0.8828 1. 0 0.0267 

#End of data_158193-ICSD


