data_420846-ICSD
#?2014 by Fachinformationszentrum Karlsruhe, and the U.S. Secretary of 
#Commerce on behalf of the United States.  All rights reserved.
_database_code_ICSD                420846
_audit_creation_date               2010/02/01
_chemical_name_systematic          'Lithium Calcium Mercury (6/17/9)'
_chemical_formula_structural       'Li6 Ca17 Hg9'
_chemical_formula_sum              'Ca17 Hg9 Li6'
_publ_section_title
;
Li6 A17 Hg9 (A = Ca, Sr, Yb): Intermetallic compounds of mercury with 
a Zeolite-like topology of cubic networks
;
loop_
_citation_id
_citation_journal_abbrev
_citation_year
_citation_journal_volume
_citation_journal_issue
_citation_page_first
_citation_page_last
_citation_journal_id_ASTM
primary 'Chemistry - A European Journal' 2009 15 40 10348 10351 CEUJED
_publ_author_name                  'Tkachuk, A.V.;Mar, A.'
_cell_length_a                     15.6012(12)
_cell_length_b                     15.6012(12)
_cell_length_c                     15.6012(12)
_cell_angle_alpha                  90.00
_cell_angle_beta                   90.00
_cell_angle_gamma                  90.00
_cell_volume                       3797.29
_cell_formula_units_Z              4
_symmetry_space_group_name_H-M     'I m -3 m'
_symmetry_Int_Tables_number        229
_refine_ls_R_factor_all            .0232
loop_
_symmetry_equiv_pos_site_id
_symmetry_equiv_pos_as_xyz
  1	'z, y, -x'
  2	'y, x, -z'
  3	'x, z, -y'
  4	'z, x, -y'
  5	'y, z, -x'
  6	'x, y, -z'
  7	'z, -y, x'
  8	'y, -x, z'
  9	'x, -z, y'
 10	'z, -x, y'
 11	'y, -z, x'
 12	'x, -y, z'
 13	'-z, y, x'
 14	'-y, x, z'
 15	'-x, z, y'
 16	'-z, x, y'
 17	'-y, z, x'
 18	'-x, y, z'
 19	'-z, -y, -x'
 20	'-y, -x, -z'
 21	'-x, -z, -y'
 22	'-z, -x, -y'
 23	'-y, -z, -x'
 24	'-x, -y, -z'
 25	'-z, -y, x'
 26	'-y, -x, z'
 27	'-x, -z, y'
 28	'-z, -x, y'
 29	'-y, -z, x'
 30	'-x, -y, z'
 31	'-z, y, -x'
 32	'-y, x, -z'
 33	'-x, z, -y'
 34	'-z, x, -y'
 35	'-y, z, -x'
 36	'-x, y, -z'
 37	'z, -y, -x'
 38	'y, -x, -z'
 39	'x, -z, -y'
 40	'z, -x, -y'
 41	'y, -z, -x'
 42	'x, -y, -z'
 43	'z, y, x'
 44	'y, x, z'
 45	'x, z, y'
 46	'z, x, y'
 47	'y, z, x'
 48	'x, y, z'
 49	'z+.5, y+.5, -x+.5'
 50	'y+.5, x+.5, -z+.5'
 51	'x+.5, z+.5, -y+.5'
 52	'z+.5, x+.5, -y+.5'
 53	'y+.5, z+.5, -x+.5'
 54	'x+.5, y+.5, -z+.5'
 55	'z+.5, -y+.5, x+.5'
 56	'y+.5, -x+.5, z+.5'
 57	'x+.5, -z+.5, y+.5'
 58	'z+.5, -x+.5, y+.5'
 59	'y+.5, -z+.5, x+.5'
 60	'x+.5, -y+.5, z+.5'
 61	'-z+.5, y+.5, x+.5'
 62	'-y+.5, x+.5, z+.5'
 63	'-x+.5, z+.5, y+.5'
 64	'-z+.5, x+.5, y+.5'
 65	'-y+.5, z+.5, x+.5'
 66	'-x+.5, y+.5, z+.5'
 67	'-z+.5, -y+.5, -x+.5'
 68	'-y+.5, -x+.5, -z+.5'
 69	'-x+.5, -z+.5, -y+.5'
 70	'-z+.5, -x+.5, -y+.5'
 71	'-y+.5, -z+.5, -x+.5'
 72	'-x+.5, -y+.5, -z+.5'
 73	'-z+.5, -y+.5, x+.5'
 74	'-y+.5, -x+.5, z+.5'
 75	'-x+.5, -z+.5, y+.5'
 76	'-z+.5, -x+.5, y+.5'
 77	'-y+.5, -z+.5, x+.5'
 78	'-x+.5, -y+.5, z+.5'
 79	'-z+.5, y+.5, -x+.5'
 80	'-y+.5, x+.5, -z+.5'
 81	'-x+.5, z+.5, -y+.5'
 82	'-z+.5, x+.5, -y+.5'
 83	'-y+.5, z+.5, -x+.5'
 84	'-x+.5, y+.5, -z+.5'
 85	'z+.5, -y+.5, -x+.5'
 86	'y+.5, -x+.5, -z+.5'
 87	'x+.5, -z+.5, -y+.5'
 88	'z+.5, -x+.5, -y+.5'
 89	'y+.5, -z+.5, -x+.5'
 90	'x+.5, -y+.5, -z+.5'
 91	'z+.5, y+.5, x+.5'
 92	'y+.5, x+.5, z+.5'
 93	'x+.5, z+.5, y+.5'
 94	'z+.5, x+.5, y+.5'
 95	'y+.5, z+.5, x+.5'
 96	'x+.5, y+.5, z+.5'
loop_
_atom_type_symbol
_atom_type_oxidation_number
Ca2+	2
Hg2+	2
Li1+	1
loop_
_atom_site_label
_atom_site_type_symbol
_atom_site_symmetry_multiplicity
_atom_site_Wyckoff_symbol
_atom_site_fract_x
_atom_site_fract_y
_atom_site_fract_z
_atom_site_occupancy
_atom_site_attached_hydrogens
_atom_site_U_iso_or_equiv
Li1 Li1+ 24 h 0.0000 0.1530(8) 0.1530(8) 1 0 0.027(3) 
Ca1 Ca2+ 48 k 0.13157(5) 0.13157(5) 0.32262(8) 1 0 0.0162(2) 
Ca2 Ca2+ 12 d 0.2500 0.0000 0.5000 1 0 0.0153(4) 
Ca3 Ca2+ 6 b 0.0000 0.5000 0.5000 1 0 0.0284(8) 
Ca4 Ca2+ 2 a 0.0000 0.0000 0.0000 1 0 0.0421(19) 
Hg1 Hg2+ 24 h 0.0000 0.293300(15) 0.293300(15) 1 0 0.01618(10) 
Hg2 Hg2+ 12 e 0.24277(4) 0.0000 0.0000 1 0 0.02770(15) 

loop_
_atom_site_aniso_label
_atom_site_aniso_type_symbol
_atom_site_aniso_U_11
_atom_site_aniso_U_22
_atom_site_aniso_U_33
_atom_site_aniso_U_12
_atom_site_aniso_U_13
_atom_site_aniso_U_23
Li1 Li1+ 0.023(8) 0.028(5) 0.028(5) 0.000 0.000 0.005(7)
Ca1 Ca2+ 0.0156(3) 0.0156(3) 0.0175(5) 0.0016(4) -0.0018(3) -0.0018(3)
Ca2 Ca2+ 0.0181(10) 0.0139(5) 0.0139(5) 0.000 0.000 0.000
Ca3 Ca2+ 0.042(2) 0.0214(10) 0.0214(10) 0.000 0.000 0.000
Ca4 Ca2+ 0.0421(19) 0.0421(19) 0.0421(19) 0.000 0.000 0.000
Hg1 Hg2+ 0.01372(14) 0.01741(12) 0.01741(12) 0.000 0.000 0.00278(10)
Hg2 Hg2+ 0.0553(4) 0.01391(14) 0.01391(14) 0.000 0.000 0.000
#End of data_420846-ICSD


