data_415376-ICSD
#?2014 by Fachinformationszentrum Karlsruhe, and the U.S. Secretary of 
#Commerce on behalf of the United States.  All rights reserved.
_database_code_ICSD                415376
_audit_creation_date               2007/08/01
_chemical_name_systematic
;
Dipotassium Sulfato(VI)trifluoromanganate(III) - Lt
;
_chemical_formula_structural       'K2 (Mn F3 (S O4))'
_chemical_formula_sum              'F3 K2 Mn1 O4 S1'
_publ_section_title
;
Jahn-Teller-Ordnung in Mangan(III)-fluoridsulfaten.  II. 
Phasen?bergang und Verzwillingung bei K2 (Mn F3 (S O4)) und 1D 
Magnetismus in Verbindungen A2 (Mn F3 (S O4)) (A = K, N H4, Rb, Cs)
;
loop_
_citation_id
_citation_journal_abbrev
_citation_year
_citation_journal_volume
_citation_page_first
_citation_page_last
_citation_journal_id_ASTM
primary 'Zeitschrift fuer Anorganische und Allgemeine Chemie (1950) (DE)'
 2005 631 1785 1792 ZAACAB
_publ_author_name
;
Klein, U.;Hahn, F.;Massa, W.;Pebler, J.
;
_cell_length_a                     7.2035(8)
_cell_length_b                     10.7143(13)
_cell_length_c                     8.4332(12)
_cell_angle_alpha                  90.00
_cell_angle_beta                   91.761(10)
_cell_angle_gamma                  90.00
_cell_volume                       650.57
_cell_formula_units_Z              4
_symmetry_space_group_name_H-M     'P 1 21/c 1'
_symmetry_Int_Tables_number        14
_refine_ls_R_factor_all            .0207
loop_
_symmetry_equiv_pos_site_id
_symmetry_equiv_pos_as_xyz
  1	'x, -y+.5, z+.5'
  2	'-x, -y, -z'
  3	'-x, y+.5, -z+.5'
  4	'x, y, z'
loop_
_atom_type_symbol
_atom_type_oxidation_number
F1-	-1
K1+	1
Mn3+	3
O2-	-2
S6+	6
loop_
_atom_site_label
_atom_site_type_symbol
_atom_site_symmetry_multiplicity
_atom_site_Wyckoff_symbol
_atom_site_fract_x
_atom_site_fract_y
_atom_site_fract_z
_atom_site_occupancy
_atom_site_attached_hydrogens
_atom_site_U_iso_or_equiv
K1 K1+ 4 e 0.19221(4) 0.19110(2) 0.32764(3) 1 0 0.01373(6) 
K2 K1+ 4 e -0.30449(4) 0.30905(2) 0.17354(3) 1 0 0.01330(6) 
Mn1 Mn3+ 2 b 0.5000 0.0000 0.0000 1 0 0.00669(6) 
Mn2 Mn3+ 2 a 0.0000 0.0000 0.0000 1 0 0.00650(6) 
S1 S6+ 4 e 0.74929(4) -0.00050(3) 0.31218(3) 1 0 0.00863(6) 
F1 F1- 4 e 0.47612(10) 0.33738(7) 0.44054(9) 1 0 0.01125(13) 
F2 F1- 4 e -0.02681(10) 0.16218(7) 0.05391(9) 1 0 0.01127(13) 
F3 F1- 4 e 0.24146(10) 0.00105(7) 0.11034(9) 1 0 0.01118(14) 
O1 O2- 4 e 0.10942(12) 0.43832(9) 0.28689(10) 1 0 0.01158(16) 
O2 O2- 4 e 0.60652(12) 0.05984(8) 0.20093(10) 1 0 0.01046(15) 
O3 O2- 4 e 0.66012(13) -0.09513(10) 0.40636(11) 1 0 0.01748(19) 
O4 O2- 4 e 0.83305(13) 0.09990(10) 0.40513(11) 1 0 0.01625(18) 

loop_
_atom_site_aniso_label
_atom_site_aniso_type_symbol
_atom_site_aniso_U_11
_atom_site_aniso_U_22
_atom_site_aniso_U_33
_atom_site_aniso_U_12
_atom_site_aniso_U_13
_atom_site_aniso_U_23
K1 K1+ 0.01685(13) 0.01078(11) 0.01331(11) -0.00107(8) -0.00378(8) 
-0.00012(8)
K2 K1+ 0.01572(12) 0.01093(11) 0.01351(11) 0.00104(8) 0.00445(8) 
-0.00031(8)
Mn1 Mn3+ 0.00576(10) 0.00636(11) 0.00799(11) 0.00028(7) 0.00053(7) 
0.00035(7)
Mn2 Mn3+ 0.00567(10) 0.00592(10) 0.00792(11) 0.00053(7) 0.00064(7) 
-0.00045(7)
S1 S6+ 0.00820(12) 0.01025(12) 0.00746(11) -0.00073(8) 0.00053(8) 
0.00015(8)
F1 F1- 0.0132(3) 0.0073(3) 0.0133(3) -0.0009(2) -0.0005(2) -0.0011(2)
F2 F1- 0.0132(3) 0.0070(3) 0.0136(3) 0.0013(2) 0.0015(2) -0.0015(2)
F3 F1- 0.0077(3) 0.0146(3) 0.0113(3) 0.0003(2) 0.0012(2) 0.0003(2)
O1 O2- 0.0119(4) 0.0114(4) 0.0116(4) -0.0016(3) 0.0029(3) -0.0007(3)
O2 O2- 0.0116(4) 0.0100(4) 0.0097(4) 0.0009(3) -0.0013(3) -0.0003(3)
O3 O2- 0.0142(4) 0.0222(5) 0.0162(4) -0.0024(3) 0.0021(3) 0.0104(4)
O4 O2- 0.0142(4) 0.0193(5) 0.0152(4) -0.0016(3) -0.0017(3) -0.0079(3)
#End of data_415376-ICSD


