data_4433-ICSD
#?2014 by Fachinformationszentrum Karlsruhe, and the U.S. Secretary of 
#Commerce on behalf of the United States.  All rights reserved.
_database_code_ICSD                4433
_audit_creation_date               1980/01/01
_audit_update_record               2012/08/01
_chemical_name_systematic          'Disilver Sulfate(IV)'
_chemical_formula_structural       'Ag2 (S O3)'
_chemical_formula_sum              'Ag2 O3 S1'
_publ_section_title
;
The crystal structure of silver sulphite
;
loop_
_citation_id
_citation_journal_abbrev
_citation_year
_citation_journal_volume
_citation_page_first
_citation_page_last
_citation_journal_id_ASTM
primary 'Acta Chemica Scandinavica (1-27,1973-42,1988)' 1969 23 2261 2269 ACSAA4
_publ_author_name                  'Larsson, L.O.'
_cell_length_a                     4.6507(4)
_cell_length_b                     7.8910(8)
_cell_length_c                     11.173(2)
_cell_angle_alpha                  90.
_cell_angle_beta                   120.7(2)
_cell_angle_gamma                  90.
_cell_volume                       352.57
_cell_formula_units_Z              4
_symmetry_space_group_name_H-M     'P 1 21/c 1'
_symmetry_Int_Tables_number        14
_refine_ls_R_factor_all            .05
loop_
_symmetry_equiv_pos_site_id
_symmetry_equiv_pos_as_xyz
  1	'x, -y+.5, z+.5'
  2	'-x, -y, -z'
  3	'-x, y+.5, -z+.5'
  4	'x, y, z'
loop_
_atom_type_symbol
_atom_type_oxidation_number
Ag1+	1
O2-	-2
S4+	4
loop_
_atom_site_label
_atom_site_type_symbol
_atom_site_symmetry_multiplicity
_atom_site_Wyckoff_symbol
_atom_site_fract_x
_atom_site_fract_y
_atom_site_fract_z
_atom_site_occupancy
_atom_site_attached_hydrogens
_atom_site_B_iso_or_equiv
Ag1 Ag1+ 4 e 0.1524(6) 0.4800(3) 0.3038(3) 1. 0 0 
Ag2 Ag1+ 4 e 0.2733(6) 0.6230(4) 0.0599(2) 1. 0 0 
S1 S4+ 4 e 0.4324(16) 0.210(1) 0.1218(7) 1. 0 0 
O1 O2- 4 e 0.2778(52) 0.2266(33) 0.2112(22) 1. 0 2.83 
O2 O2- 4 e 0.1440(55) 0.2920(35) 0.4703(23) 1. 0 3.06 
O3 O2- 4 e 0.5917(61) 0.3800(34) 0.1301(25) 1. 0 3.13 

#End of data_4433-ICSD


