data_412273-ICSD
#?2014 by Fachinformationszentrum Karlsruhe, and the U.S. Secretary of 
#Commerce on behalf of the United States.  All rights reserved.
_database_code_ICSD                412273
_audit_creation_date               2002/10/01
_audit_update_record               2006/04/01
_chemical_name_systematic          'Tricalcium Bis(vanadate) - Hp'
_chemical_formula_structural       'Ca3 (V O4)2'
_chemical_formula_sum              'Ca3 O8 V2'
_publ_section_title
;
Crystal structure of Ca3 (V O4)2 synthesized at 11 GPa and 1373 K
;
loop_
_citation_id
_citation_journal_abbrev
_citation_year
_citation_journal_volume
_citation_page_first
_citation_page_last
_citation_journal_id_ASTM
primary 'Solid State Sciences' 2002 4 523 527 SSSCFJ
_publ_author_name                  'Grzechnik, A.'
_cell_length_a                     9.67149(15)
_cell_length_b                     5.43276(7)
_cell_length_c                     7.07126(12)
_cell_angle_alpha                  90.
_cell_angle_beta                   116.949(1)
_cell_angle_gamma                  90.
_cell_volume                       331.2
_cell_formula_units_Z              2
_symmetry_space_group_name_H-M     'C 1 2/m 1'
_symmetry_Int_Tables_number        12
_refine_ls_R_factor_all            .043
loop_
_symmetry_equiv_pos_site_id
_symmetry_equiv_pos_as_xyz
  1	'-x, y, -z'
  2	'-x, -y, -z'
  3	'x, -y, z'
  4	'x, y, z'
  5	'-x+.5, y+.5, -z'
  6	'-x+.5, -y+.5, -z'
  7	'x+.5, -y+.5, z'
  8	'x+.5, y+.5, z'
loop_
_atom_type_symbol
_atom_type_oxidation_number
Ca2+	2
O2-	-2
V5+	5
loop_
_atom_site_label
_atom_site_type_symbol
_atom_site_symmetry_multiplicity
_atom_site_Wyckoff_symbol
_atom_site_fract_x
_atom_site_fract_y
_atom_site_fract_z
_atom_site_occupancy
_atom_site_attached_hydrogens
_atom_site_U_iso_or_equiv
Ca1 Ca2+ 2 a 0 0 0 1. 0 0.01 
Ca2 Ca2+ 4 i 0.7997(6) 0 0.4002(7) 1. 0 0.01 
V1 V5+ 4 i 0.5926(5) 0 0.7820(5) 1. 0 0.005 
O1 O2- 4 i 0.7336(10) 0 0.7068(11) 1. 0 0.02 
O2 O2- 4 i 0.6741(11) 0 0.0416(11) 1. 0 0.02 
O3 O2- 8 j 0.5177(7) 0.2686(10) 0.3058(9) 1. 0 0.02 

#End of data_412273-ICSD


