data_63012-ICSD
#?2014 by Fachinformationszentrum Karlsruhe, and the U.S. Secretary of 
#Commerce on behalf of the United States.  All rights reserved.
_database_code_ICSD                63012
_audit_creation_date               1989/06/19
_chemical_name_systematic          'Dipotasssium Triselenido Tellurate'
_chemical_formula_structural       'K2 Te Se3'
_chemical_formula_sum              'K2 Se3 Te1'
_publ_section_title
;
Selenidotellurate (IV): Darstellung und Kristallstrukturen von Na2 Te 
Se3 und K2 Te Se3.
;
loop_
_citation_id
_citation_journal_abbrev
_citation_year
_citation_journal_volume
_citation_page_first
_citation_page_last
_citation_journal_id_ASTM
primary 'Zeitschrift fuer Kristallographie (1979-2010)' 1988 183 193 200 ZEKRDZ
_publ_author_name                  'Zagler, R.;Eisenmann, B.'
_cell_length_a                     10.181(4)
_cell_length_b                     6.586(4)
_cell_length_c                     13.082(5)
_cell_angle_alpha                  90.
_cell_angle_beta                   105.2(1)
_cell_angle_gamma                  90.
_cell_volume                       846.49
_cell_formula_units_Z              4
_symmetry_space_group_name_H-M     'P 1 21/c 1'
_symmetry_Int_Tables_number        14
_refine_ls_R_factor_all            .077
loop_
_symmetry_equiv_pos_site_id
_symmetry_equiv_pos_as_xyz
  1	'x, -y+.5, z+.5'
  2	'-x, -y, -z'
  3	'-x, y+.5, -z+.5'
  4	'x, y, z'
loop_
_atom_type_symbol
_atom_type_oxidation_number
K1+	1
Se2-	-2
Te4+	4
loop_
_atom_site_label
_atom_site_type_symbol
_atom_site_symmetry_multiplicity
_atom_site_Wyckoff_symbol
_atom_site_fract_x
_atom_site_fract_y
_atom_site_fract_z
_atom_site_occupancy
_atom_site_attached_hydrogens
K1 K1+ 4 e 0.4919(7) 0.7461(9) 0.3763(5) 1. 0 
K2 K1+ 4 e 0.8402(7) 0.2400(12) 0.4514(6) 1. 0 
Te1 Te4+ 4 e 0.2127(2) 0.2161(3) 0.3327(2) 1. 0 
Se1 Se2- 4 e 0.4652(3) 0.2464(5) 0.3659(2) 1. 0 
Se2 Se2- 4 e 0.1789(3) 0.2419(5) 0.0138(3) 1. 0 
Se3 Se2- 4 e 0.1610(4) 0.8510(6) 0.2980(3) 1. 0 

loop_
_atom_site_aniso_label
_atom_site_aniso_type_symbol
_atom_site_aniso_U_11
_atom_site_aniso_U_22
_atom_site_aniso_U_33
_atom_site_aniso_U_12
_atom_site_aniso_U_13
_atom_site_aniso_U_23
K1 K1+ 0.0401(36) 0.0158(31) 0.0302(33) -.0033(28) 0.0063(27) -.0010(26)
K2 K1+ 0.0421(38) 0.0442(45) 0.0358(37) -.0092(36) 0.0076(30) 0.0058(34)
Te1 Te4+ 0.028(1) 0.0320(11) 0.0304(10) 0.0036(9) 0.0059(8) 0.0061(9)
Se1 Se2- 0.0330(15) 0.0275(16) 0.0303(15) -.0078(15) 0.0124(12) -.0027(13)
Se2 Se2- 0.0357(16) 0.0318(18) 0.0394(17) 0.0005(14) 0.0143(14) 0.0083(15)
Se3 Se2- 0.0386(19) 0.0561(23) 0.0335(18) -.0147(17) 0.0086(15) -.0122(16)
#End of data_63012-ICSD


