data_97760-ICSD
#?2014 by Fachinformationszentrum Karlsruhe, and the U.S. Secretary of 
#Commerce on behalf of the United States.  All rights reserved.
_database_code_ICSD                97760
_audit_creation_date               2004/10/01
_chemical_name_systematic          'Trisilver Tetraselenophosphate(V)'
_chemical_formula_structural       'Ag3 (P Se4)'
_chemical_formula_sum              'Ag3 P1 Se4'
_publ_section_title
;
Synthesis and structure of Ag3 P Se4
;
loop_
_citation_id
_citation_journal_abbrev
_citation_year
_citation_journal_volume
_citation_journal_issue
_citation_page_first
_citation_page_last
_citation_journal_id_ASTM
primary 'Jiegon Huaxue' 2003 22 2 161 164 JHUADF
_publ_author_name
;
Ma Hong Wei;Guo Guo Cong;Chen Wen Tong;Deng Lei;Zhou Guowei;Dong 
Zhenchao;Huang Jinshun
;
_cell_length_a                     7.689(4)
_cell_length_b                     6.660(3)
_cell_length_c                     6.379(4)
_cell_angle_alpha                  90
_cell_angle_beta                   90
_cell_angle_gamma                  90
_cell_volume                       326.66
_cell_formula_units_Z              2
_symmetry_space_group_name_H-M     'P m n 21'
_symmetry_Int_Tables_number        31
_refine_ls_R_factor_all            .0606
loop_
_symmetry_equiv_pos_site_id
_symmetry_equiv_pos_as_xyz
  1	'x+.5, -y, z+.5'
  2	'-x+.5, -y, z+.5'
  3	'-x, y, z'
  4	'x, y, z'
loop_
_atom_type_symbol
_atom_type_oxidation_number
Ag1+	1
P5+	5
Se2-	-2
loop_
_atom_site_label
_atom_site_type_symbol
_atom_site_symmetry_multiplicity
_atom_site_Wyckoff_symbol
_atom_site_fract_x
_atom_site_fract_y
_atom_site_fract_z
_atom_site_occupancy
_atom_site_attached_hydrogens
_atom_site_U_iso_or_equiv
Ag1 Ag1+ 2 a 0.5 0.35189(3) 0.49937(4) 1. 0 0.03046(3) 
Ag2 Ag1+ 4 b 0.25360(2) 0.17207(2) 0.98640(2) 1. 0 0.03817(4) 
P1 P5+ 2 a 0.5 0.67035(5) 0.9906(2) 1. 0 0.0454(2) 
Se1 Se2- 2 a 0.5 0.68123(8) 0.65521(9) 1. 0 0.05352(2) 
Se2 Se2- 2 a 0.5 0.35974(9) 0.13075(1) 1. 0 0.06190(5) 
Se3 Se2- 4 b 0.2565(7) 0.13423(8) 0.63259(2) 1. 0 0.0915(2) 

#End of data_97760-ICSD


