data_166825-ICSD
#?2014 by Fachinformationszentrum Karlsruhe, and the U.S. Secretary of 
#Commerce on behalf of the United States.  All rights reserved.
_database_code_ICSD                166825
_audit_creation_date               2010/08/01
_chemical_name_systematic
;
Potassium Tetrafluoroaluminate - Theta, Nanosized
;
_chemical_formula_structural       'K (Al F4)'
_chemical_formula_sum              'Al1 F4 K1'
_publ_section_title
;
Ab initio determination of nanosized theta-(K Al F4) with edge-
sharing Al F6 octahedra
;
loop_
_citation_id
_citation_journal_abbrev
_citation_year
_citation_journal_volume
_citation_journal_issue
_citation_page_first
_citation_page_last
_citation_journal_id_ASTM
primary 'Powder Diffraction' 2009 24 3 185 190 PODIE2
_publ_author_name                  'Le Bail, A.'
_cell_length_a                     8.3242(3)
_cell_length_b                     7.2502(3)
_cell_length_c                     11.8875(4)
_cell_angle_alpha                  90.
_cell_angle_beta                   90.
_cell_angle_gamma                  90.
_cell_volume                       717.44
_cell_formula_units_Z              8
_symmetry_space_group_name_H-M     'P n m a'
_symmetry_Int_Tables_number        62
_refine_ls_R_factor_all            .0332
loop_
_symmetry_equiv_pos_site_id
_symmetry_equiv_pos_as_xyz
  1	'x+.5, y, -z+.5'
  2	'x, -y+.5, z'
  3	'-x+.5, y+.5, z+.5'
  4	'-x, -y, -z'
  5	'-x+.5, -y, z+.5'
  6	'-x, y+.5, -z'
  7	'x+.5, -y+.5, -z+.5'
  8	'x, y, z'
loop_
_atom_type_symbol
_atom_type_oxidation_number
Al3+	3
F1-	-1
K1+	1
loop_
_atom_site_label
_atom_site_type_symbol
_atom_site_symmetry_multiplicity
_atom_site_Wyckoff_symbol
_atom_site_fract_x
_atom_site_fract_y
_atom_site_fract_z
_atom_site_occupancy
_atom_site_attached_hydrogens
_atom_site_B_iso_or_equiv
Al1 Al3+ 8 d 0.12785(16) 0.50064(18) 0.42169(11) 1. 0 0.59(7) 
F1 F1- 8 d 0.0946(2) 0.5129(8) 0.57359(17) 1. 0 1.74(7) 
F2 F1- 8 d 0.1226(9) 0.4848(9) 0.27668(16) 1. 0 1.74(7) 
F3 F1- 8 d 0.3382(2) 0.5064(11) 0.4313(5) 1. 0 1.74(7) 
F4 F1- 4 c 0.1285(11) 0.750 0.4097(8) 1. 0 1.74(7) 
F5 F1- 4 c 0.1283(10) 0.250 0.4207(9) 1. 0 1.74(7) 
K1 K1+ 4 c 0.5798(5) 0.250 0.3936(4) 1. 0 2.01(14) 
K2 K1+ 4 c 0.6221(9) 0.250 0.7559(4) 1. 0 3.71(15) 

#End of data_166825-ICSD


