data_41560-ICSD
#?2014 by Fachinformationszentrum Karlsruhe, and the U.S. Secretary of 
#Commerce on behalf of the United States.  All rights reserved.
_database_code_ICSD                41560
_audit_creation_date               1999/11/30
_audit_update_record               2006/04/01
_chemical_name_systematic          'Trisodium Cerium Bis(phosphate(V))'
_chemical_formula_structural       'Na3 Ce (P O4)2'
_chemical_formula_sum              'Ce1 Na3 O8 P2'
_chemical_name_mineral             Vitusite-(Ce)
_publ_section_title
;
Vitusite - a mineral with a disordered structure
;
loop_
_citation_id
_citation_journal_abbrev
_citation_year
_citation_journal_volume
_citation_page_first
_citation_page_last
_citation_journal_id_ASTM
primary Kristallografiya 1980 25 1135 1141 KRISAJ
2 'Soviet Physics, Crystallography (= Kristallografiya)'
 1980 25 650 653 SPHCA6
3 'Golden Book of Phase Transitions, Wroclaw' 2002 1 1 123 GBOPT5
_publ_author_name
;
Karpov, O.G.;Pushcharovskii, D.Yu.;Khomyakov, A.P.;Pobedimskaya, 
E.A.;Belov, N.V.
;
_cell_length_a                     14.091(4)
_cell_length_b                     5.357(1)
_cell_length_c                     18.7400(30)
_cell_angle_alpha                  90.
_cell_angle_beta                   90.
_cell_angle_gamma                  90.
_cell_volume                       1414.6
_cell_formula_units_Z              8
_symmetry_space_group_name_H-M     'P c a 21'
_symmetry_Int_Tables_number        29
_refine_ls_R_factor_all            .126
loop_
_symmetry_equiv_pos_site_id
_symmetry_equiv_pos_as_xyz
  1	'x+.5, -y, z'
  2	'-x+.5, y, z+.5'
  3	'-x, -y, z+.5'
  4	'x, y, z'
loop_
_atom_type_symbol
_atom_type_oxidation_number
Ce3+	3
Na1+	1
O2-	-2
P5+	5
loop_
_atom_site_label
_atom_site_type_symbol
_atom_site_symmetry_multiplicity
_atom_site_Wyckoff_symbol
_atom_site_fract_x
_atom_site_fract_y
_atom_site_fract_z
_atom_site_occupancy
_atom_site_attached_hydrogens
_atom_site_B_iso_or_equiv
Ce1 Ce3+ 4 a 0.134 0.489 0 1. 0 2.12 
Ce2 Ce3+ 4 a 0.118 0.06 0.223 1. 0 1.78 
Na1 Na1+ 4 a 0.369 -.006 0.255 1. 0 1.38 
Na2 Na1+ 4 a 0.118 0.495 0.474 1. 0 1.01 
Na3 Na1+ 4 a 0.454 -.002 0.076 1. 0 1.62 
Na4 Na1+ 4 a 0.296 0.51 0.154 1. 0 0.89 
Na5 Na1+ 4 a 0.234 0.004 0.42 1. 0 1.06 
Na6 Na1+ 4 a 0.464 0.476 0.314 1. 0 1.02 
P1 P5+ 4 a 0.013 0.517 0.149 1. 0 0.33 
P2 P5+ 4 a 0.488 -.011 0.404 1. 0 0.16 
P3 P5+ 4 a 0.225 0.531 0.319 1. 0 0.19 
P4 P5+ 4 a 0.229 -.005 0.076 1. 0 0.2 
O1 O2- 4 a 0.474 0.491 0.076 1. 0 0.22 
O2 O2- 4 a 0.127 0.534 0.142 1. 0 1.6 
O3 O2- 4 a 0.489 0.249 0.19 1. 0 1.66 
O4 O2- 4 a 0.475 0.701 0.19 1. 0 1.15 
O5 O2- 4 a 0.26 0.005 0.157 1. 0 0.92 
O6 O2- 4 a 0.126 0.04 0.071 1. 0 1.76 
O7 O2- 4 a 0.271 0.75 0.039 1. 0 1.74 
O8 O2- 4 a 0.272 0.229 0.039 1. 0 1.52 
O9 O2- 4 a 0.13 0.414 0.316 1. 0 0.33 
O10 O2- 4 a 0.259 0.519 0.402 1. 0 1.63 
O11 O2- 4 a 0.318 0.464 0.275 1. 0 1.08 
O12 O2- 4 a 0.23 0.793 0.294 1. 0 1.02 
O13 O2- 4 a 0.388 0.116 0.423 1. 0 4.42 
O14 O2- 4 a 0.48 0.01 0.324 1. 0 0.15 
O15 O2- 4 a 0.036 0.82 0.448 1. 0 3.7 
O16 O2- 4 a 0.462 0.711 0.423 1. 0 2.34 

#End of data_41560-ICSD


