data_171006-ICSD
#?2014 by Fachinformationszentrum Karlsruhe, and the U.S. Secretary of 
#Commerce on behalf of the United States.  All rights reserved.
_database_code_ICSD                171006
_audit_creation_date               2006/04/01
_chemical_name_systematic
;
Disilver Dimercury Tris(tetraoxotellurate(VI))
;
_chemical_formula_structural       'Ag2 Hg2 (Te O4)3'
_chemical_formula_sum              'Ag2 Hg2 O12 Te3'
_publ_section_title                'Ag2 Hg2 (Te O4)3'
loop_
_citation_id
_citation_journal_abbrev
_citation_year
_citation_journal_volume
_citation_page_first
_citation_page_last
_citation_journal_id_ASTM
primary 'Acta Crystallographica, Section C: Crystal Structure Communications'
 2005 61 i103 i105 ACSCEE
_publ_author_name                  'Weil, M.'
_cell_length_a                     6.4664(6)
_cell_length_b                     6.1623(5)
_cell_length_c                     13.0851(11)
_cell_angle_alpha                  90.00
_cell_angle_beta                   94.548(2)
_cell_angle_gamma                  90.00
_cell_volume                       519.77
_cell_formula_units_Z              2
_symmetry_space_group_name_H-M     'P 1 21/n 1'
_symmetry_Int_Tables_number        14
_refine_ls_R_factor_all            .0307
loop_
_symmetry_equiv_pos_site_id
_symmetry_equiv_pos_as_xyz
  1	'-x+.5, y+.5, -z+.5'
  2	'-x, -y, -z'
  3	'x+.5, -y+.5, z+.5'
  4	'x, y, z'
loop_
_atom_type_symbol
_atom_type_oxidation_number
Ag1+	1
Hg2+	2
O2-	-2
Te6+	6
loop_
_atom_site_label
_atom_site_type_symbol
_atom_site_symmetry_multiplicity
_atom_site_Wyckoff_symbol
_atom_site_fract_x
_atom_site_fract_y
_atom_site_fract_z
_atom_site_occupancy
_atom_site_attached_hydrogens
_atom_site_U_iso_or_equiv
Hg1 Hg2+ 4 e 0.30593(4) 0.45775(5) 0.59921(2) 1 0 0.01283(7) 
Te1 Te6+ 2 c 0.5000 1.0000 0.5000 1 0 0.00739(12) 
Te2 Te6+ 4 e 0.01778(6) 0.90610(7) 0.60759(3) 1 0 0.00733(9) 
Ag1 Ag1+ 4 e 0.68372(9) 0.86909(10) 0.79023(5) 1 0 0.02104(14) 
O1 O2- 4 e 0.0017(7) 1.0316(8) 0.7343(3) 1 0 0.0112(9) 
O2 O2- 4 e 0.7139(7) 0.8722(8) 0.5941(4) 1 0 0.0090(9) 
O3 O2- 4 e 0.0116(7) 0.8125(8) 0.4626(3) 1 0 0.0098(9) 
O4 O2- 4 e 0.5569(7) 1.2823(8) 0.5555(4) 1 0 0.0135(10) 
O5 O2- 4 e 0.3191(7) 0.9398(8) 0.6091(3) 1 0 0.0111(9) 
O6 O2- 4 e 0.0506(8) 0.6147(8) 0.6481(4) 1 0 0.0149(11) 

loop_
_atom_site_aniso_label
_atom_site_aniso_type_symbol
_atom_site_aniso_U_11
_atom_site_aniso_U_22
_atom_site_aniso_U_33
_atom_site_aniso_U_12
_atom_site_aniso_U_13
_atom_site_aniso_U_23
Hg1 Hg2+ 0.01085(12) 0.01191(13) 0.01595(13) 0.00265(10) 0.00236(9) 
-0.00216(10)
Te1 Te6+ 0.0057(2) 0.0077(3) 0.0089(3) 0.0002(2) 0.0017(2) -0.0002(2)
Te2 Te6+ 0.00623(18) 0.0082(2) 0.00771(19) 0.00059(14) 0.00166(14) 
0.00049(14)
Ag1 Ag1+ 0.0206(3) 0.0204(3) 0.0236(3) -0.0023(2) 0.0113(2) -0.0011(2)
O1 O2- 0.010(2) 0.017(3) 0.006(2) 0.0006(19) 0.0003(17) 0.0011(19)
O2 O2- 0.003(2) 0.011(2) 0.012(2) -0.0006(17) -0.0014(17) 0.0064(18)
O3 O2- 0.017(2) 0.006(2) 0.007(2) 0.0012(18) -0.0004(18) -0.0021(17)
O4 O2- 0.008(2) 0.011(2) 0.021(3) 0.0003(18) -0.0018(19) -0.004(2)
O5 O2- 0.007(2) 0.017(3) 0.010(2) -0.0032(19) 0.0023(17) 0.0010(19)
O6 O2- 0.017(2) 0.010(2) 0.019(3) 0.0044(19) 0.007(2) 0.006(2)
#End of data_171006-ICSD


