data_187002-ICSD
#?2014 by Fachinformationszentrum Karlsruhe, and the U.S. Secretary of 
#Commerce on behalf of the United States.  All rights reserved.
_database_code_ICSD                187002
_audit_creation_date               2013/08/01
_chemical_name_systematic          'Potassium Ytterbium Tetrafluoride'
_chemical_formula_structural       'K Yb F4'
_chemical_formula_sum              'F4 K1 Yb1'
_publ_section_title
;
Crystal structures and stability of trigonal K Ln F4 fluorides (Ln = 
Y, Ho, Er, Tm, Yb)
;
loop_
_citation_id
_citation_journal_abbrev
_citation_year
_citation_journal_volume
_citation_journal_issue
_citation_page_first
_citation_page_last
_citation_journal_id_ASTM
primary 'Dalton Transactions' 2013 42 2 441 447 DTARAF
_publ_author_name
;
Grzechnik, Andrzej;Khaidukov, Nicholas;Friese, Karen
;
_cell_length_a                     13.754(3)
_cell_length_b                     13.754(3)
_cell_length_c                     9.891(2)
_cell_angle_alpha                  90
_cell_angle_beta                   90
_cell_angle_gamma                  120
_cell_volume                       1620.42
_cell_formula_units_Z              18
_symmetry_space_group_name_H-M     'P 32'
_symmetry_Int_Tables_number        145
_refine_ls_R_factor_all            .0828
loop_
_symmetry_equiv_pos_site_id
_symmetry_equiv_pos_as_xyz
  1	'-x+y, -x, z+.3333'
  2	'-y, x-y, z+.6667'
  3	'x, y, z'
loop_
_atom_type_symbol
_atom_type_oxidation_number
F1-	-1
K1+	1
Yb3+	3
loop_
_atom_site_label
_atom_site_type_symbol
_atom_site_symmetry_multiplicity
_atom_site_Wyckoff_symbol
_atom_site_fract_x
_atom_site_fract_y
_atom_site_fract_z
_atom_site_occupancy
_atom_site_attached_hydrogens
_atom_site_U_iso_or_equiv
Yb1 Yb3+ 3 a 0.13433(12) 0.89287(13) 0.6710(2) 1 0 0.0121(2) 
Yb2 Yb3+ 3 a 0.28475(16) 0.73326(14) 0.6809(2) 1 0 0.0125(2) 
Yb3 Yb3+ 3 a 0.77966(18) 0.20538(15) 0.65941(18) 1 0 0.0121(2) 
Yb4 Yb3+ 3 a 0.94283(17) 0.05946(19) 0.6763(3) 1 0 0.0125(2) 
Yb5 Yb3+ 3 a 0.45111(19) 0.5417(2) 0.67879(18) 1 0 0.0121(2) 
Yb6 Yb3+ 3 a 0.60383(13) 0.38564(16) 0.65423(16) 1 0 0.0125(2) 
K1 K1+ 3 a 0.2653(8) 0.2183(7) 0.6523(13) 1 0 0.027(2) 
K2 K1+ 3 a 0.7829(7) 0.7152(7) 0.6807(9) 1 0 0.0181(14) 
K3 K1+ 3 a 0.6122(10) 0.8752(7) 0.6507(11) 1 0 0.027(2) 
K4 K1+ 3 a 0.1056(6) 0.3982(7) 0.6909(9) 1 0 0.0181(14) 
K5 K1+ 3 a 0.4586(7) 0.0656(6) 0.6892(9) 1 0 0.0181(14) 
K6 K1+ 3 a 0.9516(9) 0.5702(6) 0.6555(10) 1 0 0.027(2) 
F1 F1- 3 a 0.1361(13) 0.9343(12) 0.8961(17) 1 0 0.0118(16) 
F2 F1- 3 a 0.068(2) 0.877(2) 0.466(3) 1 0 0.032(3) 
F3 F1- 3 a 0.2038(14) 0.5934(14) 0.537(2) 1 0 0.0231(17) 
F4 F1- 3 a 0.3352(18) 0.7318(17) 0.347(3) 1 0 0.0290(17) 
F5 F1- 3 a 0.750(2) 0.211(2) 0.443(3) 1 0 0.032(3) 
F6 F1- 3 a 0.7839(12) 0.2650(13) 0.873(2) 1 0 0.0118(16) 
F7 F1- 3 a -0.0105(18) 0.0584(16) 0.341(3) 1 0 0.0290(17) 
F8 F1- 3 a -0.1237(14) -0.0765(14) 1.526(2) 1 0 0.0231(17) 
F9 F1- 3 a 0.3881(18) 0.5320(18) 0.470(3) 1 0 0.032(3) 
F10 F1- 3 a 0.4597(15) 0.5890(13) 0.8981(19) 1 0 0.0118(16) 
F11 F1- 3 a 0.5482(14) 0.2997(14) 0.452(2) 1 0 0.0231(17) 
F12 F1- 3 a -0.2601(17) -0.6055(19) 1.314(3) 1 0 0.0290(17) 
F13 F1- 3 a 0.7702(16) 0.7268(13) 0.943(2) 1 0 0.0185(19) 
F14 F1- 3 a 0.7999(14) 0.7213(14) 0.416(2) 1 0 0.0172(17) 
F15 F1- 3 a 0.2463(13) 0.2225(12) 0.398(2) 1 0 0.0161(18) 
F16 F1- 3 a 0.8053(14) 0.0696(15) 1.572(2) 1 0 0.0139(16) 
F17 F1- 3 a 0.1232(13) 0.3959(17) 0.425(2) 1 0 0.0172(17) 
F18 F1- 3 a 0.0901(13) 0.4034(15) 0.9489(18) 1 0 0.0185(19) 
F19 F1- 3 a 0.1534(13) 0.7531(14) 0.5748(19) 1 0 0.0139(16) 
F20 F1- 3 a 0.5921(13) 0.8853(13) 0.3986(19) 1 0 0.0161(18) 
F21 F1- 3 a 0.9430(14) 0.5837(15) 0.406(2) 1 0 0.0161(18) 
F22 F1- 3 a -0.5286(13) 0.4121(13) 1.5645(18) 1 0 0.0139(16) 
F23 F1- 3 a 0.4913(15) 0.0706(15) 1.436(2) 1 0 0.0172(17) 
F24 F1- 3 a 0.4612(14) 0.0895(14) 0.947(2) 1 0 0.0185(19) 

loop_
_atom_site_aniso_label
_atom_site_aniso_type_symbol
_atom_site_aniso_U_11
_atom_site_aniso_U_22
_atom_site_aniso_U_33
_atom_site_aniso_U_12
_atom_site_aniso_U_13
_atom_site_aniso_U_23
Yb1 Yb3+ 0.0105(3) 0.0101(3) 0.0171(2) 0.00627(15) -0.0004(2) 0.0009(2)
Yb2 Yb3+ 0.0065(3) 0.0126(3) 0.0199(2) 0.00588(14) 0.0030(2) -0.0010(2)
Yb3 Yb3+ 0.0105(3) 0.0101(3) 0.0171(2) 0.00627(15) -0.0004(2) 0.0009(2)
Yb4 Yb3+ 0.0065(3) 0.0126(3) 0.0199(2) 0.00588(14) 0.0030(2) -0.0010(2)
Yb5 Yb3+ 0.0105(3) 0.0101(3) 0.0171(2) 0.00627(15) -0.0004(2) 0.0009(2)
Yb6 Yb3+ 0.0065(3) 0.0126(3) 0.0199(2) 0.00588(14) 0.0030(2) -0.0010(2)
K1 K1+ 0.039(3) 0.0114(14) 0.027(3) 0.0108(19) -0.007(2) -0.0032(15)
K2 K1+ 0.0154(16) 0.0170(17) 0.020(2) 0.0068(14) -0.0026(12) -0.0035(14)
K3 K1+ 0.039(3) 0.0114(14) 0.027(3) 0.0108(19) -0.007(2) -0.0032(15)
K4 K1+ 0.0154(16) 0.0170(17) 0.020(2) 0.0068(14) -0.0026(12) -0.0035(14)
K5 K1+ 0.0154(16) 0.0170(17) 0.020(2) 0.0068(14) -0.0026(12) -0.0035(14)
K6 K1+ 0.039(3) 0.0114(14) 0.027(3) 0.0108(19) -0.007(2) -0.0032(15)
#End of data_187002-ICSD


