data_249970-ICSD
#?2014 by Fachinformationszentrum Karlsruhe, and the U.S. Secretary of 
#Commerce on behalf of the United States.  All rights reserved.
_database_code_ICSD                249970
_audit_creation_date               2010/08/01
_chemical_name_systematic
;
Cesium Silver Neptunium(IV) Trisulfide
;
_chemical_formula_structural       'Cs Ag Np S3'
_chemical_formula_sum              'Ag1 Cs1 Np1 S3'
_publ_section_title
;
Quaternary neptunium compounds: Syntheses and characterization of K 
Cu Np S3, Rb Cu Np S3, Cs Cu Np S3, K Ag Np S3, and Cs Ag Np S3
;
loop_
_citation_id
_citation_journal_abbrev
_citation_year
_citation_journal_volume
_citation_journal_issue
_citation_page_first
_citation_page_last
_citation_journal_id_ASTM
primary 'Inorganic Chemistry' 2009 48 24 11513 11517 INOCAJ
_publ_author_name
;
Wells, D.M.;Jin Geng Bang;Skanthakumar, S.;Haire, R.G.;Soderholm, 
L.;Ibers, J.
;
_cell_length_a                     4.0769(4)
_cell_length_b                     15.1444(15)
_cell_length_c                     10.4415(10)
_cell_angle_alpha                  90.00
_cell_angle_beta                   90.00
_cell_angle_gamma                  90.00
_cell_volume                       644.68
_cell_formula_units_Z              4
_symmetry_space_group_name_H-M     'C m c m'
_symmetry_Int_Tables_number        63
_refine_ls_R_factor_all            .0318
loop_
_symmetry_equiv_pos_site_id
_symmetry_equiv_pos_as_xyz
  1	'-x, y, -z+.5'
  2	'-x, -y, z+.5'
  3	'-x, y, z'
  4	'-x, -y, -z'
  5	'x, -y, z+.5'
  6	'x, y, -z+.5'
  7	'x, -y, -z'
  8	'x, y, z'
  9	'-x+.5, y+.5, -z+.5'
 10	'-x+.5, -y+.5, z+.5'
 11	'-x+.5, y+.5, z'
 12	'-x+.5, -y+.5, -z'
 13	'x+.5, -y+.5, z+.5'
 14	'x+.5, y+.5, -z+.5'
 15	'x+.5, -y+.5, -z'
 16	'x+.5, y+.5, z'
loop_
_atom_type_symbol
_atom_type_oxidation_number
Ag1+	1
Cs1+	1
Np4+	4
S2-	-2
loop_
_atom_site_label
_atom_site_type_symbol
_atom_site_symmetry_multiplicity
_atom_site_Wyckoff_symbol
_atom_site_fract_x
_atom_site_fract_y
_atom_site_fract_z
_atom_site_occupancy
_atom_site_attached_hydrogens
_atom_site_U_iso_or_equiv
Cs1 Cs1+ 4 c 0.0000 0.74130(4) 0.2500 1 0 0.01022(15) 
Ag1 Ag1+ 4 c 0.0000 0.45583(5) 0.2500 1 0 0.00907(17) 
Np1 Np4+ 4 a 0.0000 0.0000 0.0000 1 0 0.00604(12) 
S1 S2- 4 c 0.0000 0.05627(18) 0.2500 1 0 0.0080(4) 
S2 S2- 8 f 0.0000 0.38271(12) 0.03718(18) 1 0 0.0086(3) 

loop_
_atom_site_aniso_label
_atom_site_aniso_type_symbol
_atom_site_aniso_U_11
_atom_site_aniso_U_22
_atom_site_aniso_U_33
_atom_site_aniso_U_12
_atom_site_aniso_U_13
_atom_site_aniso_U_23
Cs1 Cs1+ 0.0099(3) 0.0114(3) 0.0094(3) 0.000 0.000 0.000
Ag1 Ag1+ 0.0086(4) 0.0139(4) 0.0047(3) 0.000 0.000 0.000
Np1 Np4+ 0.00510(19) 0.0098(2) 0.00327(17) 0.000 0.000 -0.00009(13)
S1 S2- 0.0068(11) 0.0117(11) 0.0055(10) 0.000 0.000 0.000
S2 S2- 0.0086(8) 0.0111(8) 0.0060(7) 0.000 0.000 0.0004(6)
#End of data_249970-ICSD


