data_172582-ICSD
#?2014 by Fachinformationszentrum Karlsruhe, and the U.S. Secretary of 
#Commerce on behalf of the United States.  All rights reserved.
_database_code_ICSD                172582
_audit_creation_date               2007/04/01
_audit_update_record               2013/02/01
_chemical_name_systematic          'Lithium Titanium Oxoarsenate'
_chemical_formula_structural       'Li Ti O As O4'
_chemical_formula_sum              'As1 Li1 O5 Ti1'
_publ_section_title
;
New process of preparation, x-ray characterisation, structure and 
vibrational studies of a solid solution Li Ti O As(1-x) P(x) O4 (0 <= 
x <= 1)
;
loop_
_citation_id
_citation_journal_abbrev
_citation_year
_citation_journal_volume
_citation_journal_issue
_citation_page_first
_citation_page_last
_citation_journal_id_ASTM
primary 'Journal of Solid State Chemistry' 2006 179 1 18 28 JSSCBI
_publ_author_name
;
Chakir, M.;El Jazouli, A.;Chaminade, J.P.;Bouree, F.;de Waal, D.
;
_cell_length_a                     7.526(2)
_cell_length_b                     6.574(8)
_cell_length_c                     7.451(8)
_cell_angle_alpha                  90.
_cell_angle_beta                   90.
_cell_angle_gamma                  90.
_cell_volume                       368.65
_cell_formula_units_Z              4
_symmetry_space_group_name_H-M     'P n m a'
_symmetry_Int_Tables_number        62
_refine_ls_R_factor_all            .081
loop_
_symmetry_equiv_pos_site_id
_symmetry_equiv_pos_as_xyz
  1	'x+.5, y, -z+.5'
  2	'x, -y+.5, z'
  3	'-x+.5, y+.5, z+.5'
  4	'-x, -y, -z'
  5	'-x+.5, -y, z+.5'
  6	'-x, y+.5, -z'
  7	'x+.5, -y+.5, -z+.5'
  8	'x, y, z'
loop_
_atom_type_symbol
_atom_type_oxidation_number
As5+	5
Li1+	1
O2-	-2
Ti4+	4
loop_
_atom_site_label
_atom_site_type_symbol
_atom_site_symmetry_multiplicity
_atom_site_Wyckoff_symbol
_atom_site_fract_x
_atom_site_fract_y
_atom_site_fract_z
_atom_site_occupancy
_atom_site_attached_hydrogens
_atom_site_B_iso_or_equiv
Ti1 Ti4+ 4 c 0.333(5) 0.75 0.225(6) 1. 0 .14(3) 
Li1 Li1+ 4 a 0 0 0 1. 0 .53(6) 
As1 As5+ 4 c 0.374(7) 0.25 0.130(2) 1. 0 .31(2) 
O1 O2- 4 c 0.117(3) 0.75 0.159(2) 1. 0 .52(8) 
O2 O2- 4 c 0.806(9) 0.75 0.002(1) 1. 0 .88(2) 
O3 O2- 4 c 0.063(2) 0.25 0.490(2) 1. 0 1.14(6) 
O4 O2- 8 d 0.873(1) 0.453(9) 0.233(2) 1. 0 .10(1) 

#End of data_172582-ICSD


