data_59855-ICSD
#?2014 by Fachinformationszentrum Karlsruhe, and the U.S. Secretary of 
#Commerce on behalf of the United States.  All rights reserved.
_database_code_ICSD                59855
_audit_creation_date               2005/10/01
_chemical_name_systematic
;
Dicesium Dibismuth Zinc Pentaselenide
;
_chemical_formula_structural       'Cs2 Bi2 Zn Se5'
_chemical_formula_sum              'Bi2 Cs2 Se5 Zn1'
_publ_section_title                'Cs2 Bi2 Zn Se5'
loop_
_citation_id
_citation_journal_abbrev
_citation_year
_citation_journal_volume
_citation_page_first
_citation_page_last
_citation_journal_id_ASTM
primary 'Acta Crystallographica, Section E. Structure Reports Online'
 2004 60 i111 i113 ACSEBH
_publ_author_name                  'Yao,  J.;Ibers, J.A.'
_cell_length_a                     16.374(2)
_cell_length_b                     4.2382(5)
_cell_length_c                     18.780(2)
_cell_angle_alpha                  90.00
_cell_angle_beta                   90.00
_cell_angle_gamma                  90.00
_cell_volume                       1303.26
_cell_formula_units_Z              4
_symmetry_space_group_name_H-M     'P n m a'
_symmetry_Int_Tables_number        62
_refine_ls_R_factor_all            .0283
loop_
_symmetry_equiv_pos_site_id
_symmetry_equiv_pos_as_xyz
  1	'x+.5, y, -z+.5'
  2	'x, -y+.5, z'
  3	'-x+.5, y+.5, z+.5'
  4	'-x, -y, -z'
  5	'-x+.5, -y, z+.5'
  6	'-x, y+.5, -z'
  7	'x+.5, -y+.5, -z+.5'
  8	'x, y, z'
loop_
_atom_type_symbol
_atom_type_oxidation_number
Bi3+	3
Cs1+	1
Se2-	-2
Zn2+	2
loop_
_atom_site_label
_atom_site_type_symbol
_atom_site_symmetry_multiplicity
_atom_site_Wyckoff_symbol
_atom_site_fract_x
_atom_site_fract_y
_atom_site_fract_z
_atom_site_occupancy
_atom_site_attached_hydrogens
_atom_site_U_iso_or_equiv
Cs1 Cs1+ 4 c 0.45998(3) 0.2500 0.38242(3) 1 0 0.01433(13) 
Cs2 Cs1+ 4 c 0.00563(3) 0.2500 0.62302(2) 1 0 0.01131(12) 
Bi1 Bi3+ 4 c 0.293870(16) 0.2500 0.697761(15) 1 0 0.00914(10) 
Bi2 Bi3+ 4 c 0.252870(17) 0.2500 0.018003(15) 1 0 0.01028(10) 
Zn1 Zn2+ 4 c 0.20510(5) 0.2500 0.35574(5) 1 0 0.00888(18) 
Se1 Se2- 4 c 0.32077(4) 0.2500 0.15146(4) 1 0 0.00869(16) 
Se2 Se2- 4 c 0.13666(4) 0.2500 0.47302(4) 1 0 0.00824(16) 
Se3 Se2- 4 c 0.21217(4) 0.2500 0.84364(4) 1 0 0.00953(17) 
Se4 Se2- 4 c 0.36850(4) 0.2500 0.56053(4) 1 0 0.00959(16) 
Se5 Se2- 4 c 0.10345(4) 0.2500 0.25616(4) 1 0 0.00807(16) 

loop_
_atom_site_aniso_label
_atom_site_aniso_type_symbol
_atom_site_aniso_U_11
_atom_site_aniso_U_22
_atom_site_aniso_U_33
_atom_site_aniso_U_12
_atom_site_aniso_U_13
_atom_site_aniso_U_23
Cs1 Cs1+ 0.0082(2) 0.0160(2) 0.0189(3) 0.000 0.00195(17) 0.000
Cs2 Cs1+ 0.0083(2) 0.0117(2) 0.0139(3) 0.000 0.00173(16) 0.000
Bi1 Bi3+ 0.00871(16) 0.00970(16) 0.00901(17) 0.000 -0.00067(9) 0.000
Bi2 Bi3+ 0.01058(16) 0.01073(16) 0.00954(16) 0.000 0.00012(10) 0.000
Zn1 Zn2+ 0.0077(4) 0.0097(4) 0.0093(4) 0.000 -0.0013(3) 0.000
Se1 Se2- 0.0063(3) 0.0098(3) 0.0099(4) 0.000 0.0005(3) 0.000
Se2 Se2- 0.0066(3) 0.0100(3) 0.0082(3) 0.000 -0.0002(3) 0.000
Se3 Se2- 0.0069(3) 0.0080(3) 0.0137(4) 0.000 0.0003(3) 0.000
Se4 Se2- 0.0063(3) 0.0112(4) 0.0113(4) 0.000 0.0005(3) 0.000
Se5 Se2- 0.0057(3) 0.0099(3) 0.0085(3) 0.000 0.0003(2) 0.000
#End of data_59855-ICSD


