data_36657-ICSD
#?2014 by Fachinformationszentrum Karlsruhe, and the U.S. Secretary of 
#Commerce on behalf of the United States.  All rights reserved.
_database_code_ICSD                36657
_audit_creation_date               1993/01/06
_chemical_name_systematic
;
Potassium Vanadium Oxide Bis(sulfate)
;
_chemical_formula_structural       'K (V O (S O4)2)'
_chemical_formula_sum              'K1 O9 S2 V1'
_publ_section_title
;
Darstellung, Ramanspektren und Kristallstrukturen von V2O3(SO4)2, 
K(VO(SO4)2) und NH4(VO(SO4)2)
;
loop_
_citation_id
_citation_journal_abbrev
_citation_year
_citation_journal_volume
_citation_page_first
_citation_page_last
_citation_journal_id_ASTM
primary 'Zeitschrift fuer Anorganische und Allgemeine Chemie (1950) (DE)'
 1992 611 158 164 ZAACAB
_publ_author_name                  'Richter, K.;Mattes, R.'
_cell_length_a                     4.953(2)
_cell_length_b                     8.696(9)
_cell_length_c                     16.27(1)
_cell_angle_alpha                  90.
_cell_angle_beta                   90.
_cell_angle_gamma                  90.
_cell_volume                       700.77
_cell_formula_units_Z              4
_symmetry_space_group_name_H-M     'P 21 21 21'
_symmetry_Int_Tables_number        19
_refine_ls_R_factor_all            .1
loop_
_symmetry_equiv_pos_site_id
_symmetry_equiv_pos_as_xyz
  1	'-x, y+.5, -z+.5'
  2	'x+.5, -y+.5, -z'
  3	'-x+.5, -y, z+.5'
  4	'x, y, z'
loop_
_atom_type_symbol
_atom_type_oxidation_number
K1+	1
O2-	-2
S6+	6
V5+	5
loop_
_atom_site_label
_atom_site_type_symbol
_atom_site_symmetry_multiplicity
_atom_site_Wyckoff_symbol
_atom_site_fract_x
_atom_site_fract_y
_atom_site_fract_z
_atom_site_occupancy
_atom_site_attached_hydrogens
_atom_site_U_iso_or_equiv
V1 V5+ 4 a 0.2640(18) 0.1469(5) 0.3032(3) 1. 0 0.009(1) 
K1 K1+ 4 a 0.7811(26) 0.5890(12) 0.4528(6) 1. 0 0.055(4) 
S1 S6+ 4 a 0.7523(25) 0.1212(8) 0.4261(4) 1. 0 0.013(2) 
S2 S6+ 4 a 0.7430(25) 0.2477(8) 0.1909(4) 1. 0 0.010(2) 
O1 O2- 4 a 0.7771(63) 0.2854(25) 0.4368(11) 1. 0 0.020(6) 
O2 O2- 4 a 0.5493(45) 0.0650(28) 0.3631(13) 1. 0 0.016(7) 
O3 O2- 4 a 0.7387(58) 0.0300(21) 0.498(1) 1. 0 0.020(6) 
O4 O2- 4 a 0.0371(58) 0.0829(39) 0.3866(14) 1. 0 0.038(10) 
O5 O2- 4 a -.0064(45) 0.6624(49) 0.2883(14) 1. 0 0.019(9) 
O6 O2- 4 a 0.2609(56) 0.8942(19) 0.2659(10) 1. 0 0.014(5) 
O7 O2- 4 a 0.7261(82) 0.2579(21) 0.1030(11) 1. 0 0.035(8) 
O8 O2- 4 a 0.5381(58) 0.142(5) 0.2231(21) 1. 0 0.044(12) 
O9 O2- 4 a 0.2950(52) 0.3154(24) 0.3267(10) 1. 0 0.015(7) 

#End of data_36657-ICSD


