data_20862-ICSD
#?2014 by Fachinformationszentrum Karlsruhe, and the U.S. Secretary of 
#Commerce on behalf of the United States.  All rights reserved.
_database_code_ICSD                20862
_audit_creation_date               1985/03/06
_audit_update_record               2012/02/01
_chemical_name_systematic          'Potassium Hydrogenselenate(IV)'
_chemical_formula_structural       'K (H Se O3)'
_chemical_formula_sum              'H1 K1 O3 Se1'
_publ_section_title
;
Neutron-diffraction investigation and NMR spectra of a single crystal 
of K H Se O3
;
loop_
_citation_id
_citation_journal_abbrev
_citation_year
_citation_journal_volume
_citation_page_first
_citation_page_last
_citation_journal_id_ASTM
primary Kristallografiya 1984 29 243 246 KRISAJ
2 'Soviet Physics, Crystallography (= Kristallografiya)'
 1984 29 144 146 SPHCA6
_publ_author_name
;
Sarin, V.A.;Bydanov, N.N.;Vinogradova, I.S.;Rider, E.E.;Solov'ev, 
S.P.
;
_cell_length_a                     5.003(6)
_cell_length_b                     5.726(10)
_cell_length_c                     6.729(3)
_cell_angle_alpha                  108.95(11)
_cell_angle_beta                   107.31(8)
_cell_angle_gamma                  91.27(13)
_cell_volume                       172.55
_cell_formula_units_Z              2
_symmetry_space_group_name_H-M     'P -1'
_symmetry_Int_Tables_number        2
_refine_ls_R_factor_all            .0224
loop_
_symmetry_equiv_pos_site_id
_symmetry_equiv_pos_as_xyz
  1	'-x, -y, -z'
  2	'x, y, z'
loop_
_atom_type_symbol
_atom_type_oxidation_number
H1+	1
K1+	1
O2-	-2
Se4+	4
loop_
_atom_site_label
_atom_site_type_symbol
_atom_site_symmetry_multiplicity
_atom_site_Wyckoff_symbol
_atom_site_fract_x
_atom_site_fract_y
_atom_site_fract_z
_atom_site_occupancy
_atom_site_attached_hydrogens
_atom_site_B_iso_or_equiv
K1 K1+ 2 i 0.3603(2) 0.6394(2) 0.2251(2) 1. 0 1.54(3) 
Se1 Se4+ 2 i -.0566(1) 0.1770(1) 0.3242(1) 1. 0 1.17(2) 
O1 O2- 2 i -.1563(1) 0.3945(1) 0.2166(1) 1. 0 1.54(3) 
O2 O2- 2 i 0.2755(1) 0.1548(1) 0.3215(1) 1. 0 1.74(3) 
O3 O2- 2 i -.2337(2) -.1065(1) 0.1067(1) 1. 0 1.72(3) 
H1 H1+ 2 i -.2601(3) -.0968(3) -.0421(2) 1. 0 2.65(5) 

#End of data_20862-ICSD


