data_4358-ICSD
#?2014 by Fachinformationszentrum Karlsruhe, and the U.S. Secretary of 
#Commerce on behalf of the United States.  All rights reserved.
_database_code_ICSD                4358
_audit_creation_date               1986/08/12
_audit_update_record               2012/02/01
_chemical_name_systematic
;
Calcium Diiron Iron(III) Oxide Hydroxide Disilicate
;
_chemical_formula_structural       'Ca Fe3 O (O H) (Si2 O7)'
_chemical_formula_sum              'H1 Ca1 Fe3 O9 Si2'
_chemical_name_mineral             Ilvaite
_publ_section_title
;
Untersuchungen zur Kristallchemie des Ilvaits
;
loop_
_citation_id
_citation_journal_abbrev
_citation_year
_citation_journal_volume
_citation_page_first
_citation_page_last
_citation_journal_id_ASTM
primary 'Tschermaks Mineralogische und Petrographische Mitteilungen (-1978)'
 1974 21 11 29 MPMTAG
_publ_author_name                  'Beran, A.;Bittner, H.'
_cell_length_a                     8.800(3)
_cell_length_b                     13.019(4)
_cell_length_c                     5.852(3)
_cell_angle_alpha                  90.
_cell_angle_beta                   90.
_cell_angle_gamma                  90.
_cell_volume                       670.45
_cell_formula_units_Z              4
_symmetry_space_group_name_H-M     'P b n m'
_symmetry_Int_Tables_number        62
_refine_ls_R_factor_all            .036
loop_
_symmetry_equiv_pos_site_id
_symmetry_equiv_pos_as_xyz
  1	'-x+.5, y+.5, z'
  2	'x, y, -z+.5'
  3	'x+.5, -y+.5, z+.5'
  4	'-x, -y, -z'
  5	'x+.5, -y+.5, -z'
  6	'-x, -y, z+.5'
  7	'-x+.5, y+.5, -z+.5'
  8	'x, y, z'
loop_
_atom_type_symbol
_atom_type_oxidation_number
Ca2+	2
Fe2+	2
Fe2.5+	2.5
H1+	1
O2-	-2
Si4+	4
loop_
_atom_site_label
_atom_site_type_symbol
_atom_site_symmetry_multiplicity
_atom_site_Wyckoff_symbol
_atom_site_fract_x
_atom_site_fract_y
_atom_site_fract_z
_atom_site_occupancy
_atom_site_attached_hydrogens
Fe1 Fe2.5+ 8 d 0.05099(8) 0.11001(5) 0.00789(17) 1. 0 
Fe2 Fe2+ 4 c 0.74029(13) 0.05888(8) 0.25 1. 0 
Ca1 Ca2+ 4 c 0.37056(18) 0.18712(12) 0.75 1. 0 
Si1 Si4+ 4 c 0.36913(25) 0.04051(17) 0.25 1. 0 
Si2 Si4+ 4 c 0.22740(25) 0.32012(16) 0.25 1. 0 
O1 O2- 4 c 0.0303(6) -.0092(5) 0.75 1. 0 
O2 O2- 8 d 0.2731(4) 0.0642(3) 0.0182(9) 1. 0 
O3 O2- 4 c 0.1086(7) 0.2212(4) 0.25 1. 0 
O4 O2- 8 d 0.3287(4) 0.3293(3) 0.0200(9) 1. 0 
O5 O2- 4 c 0.1020(7) 0.4160(4) 0.25 1. 0 
O6 O2- 4 c 0.0269(7) 0.3987(4) 0.75 1. 0 
O7 O2- 4 c 0.1097(7) 0.2034(4) 0.75 1. 0 
H1 H1+ 4 c 0.065 0.271 0.75 1. 0 

#End of data_4358-ICSD


