data_91031-ICSD
#?2014 by Fachinformationszentrum Karlsruhe, and the U.S. Secretary of 
#Commerce on behalf of the United States.  All rights reserved.
_database_code_ICSD                91031
_audit_creation_date               2002/04/01
_chemical_name_systematic          'Strontium Dialuminium Diborate'
_chemical_formula_structural       'Sr Al2 (B2 O7)'
_chemical_formula_sum              'Al2 B2 O7 Sr1'
_publ_section_title
;
Crystal structure of Sr Al2 B2 O7 and Eu(2+) luminescence
;
loop_
_citation_id
_citation_journal_abbrev
_citation_year
_citation_journal_volume
_citation_page_first
_citation_page_last
_citation_journal_id_ASTM
primary 'Journal of Solid State Chemistry' 2000 150 404 409 JSSCBI
_publ_author_name
;
Lucas, F.;Jaulmes, S.;Quarton, M.;le Mercier, T.;Guillen, 
F.;Fouassier, C.
;
_cell_length_a                     4.893(1)
_cell_length_b                     4.893(1)
_cell_length_c                     47.78(1)
_cell_angle_alpha                  90.
_cell_angle_beta                   90.
_cell_angle_gamma                  120.
_cell_volume                       990.67
_cell_formula_units_Z              6
_symmetry_space_group_name_H-M     'R -3 c H'
_symmetry_Int_Tables_number        167
_refine_ls_R_factor_all            .043
loop_
_symmetry_equiv_pos_site_id
_symmetry_equiv_pos_as_xyz
  1	'x-y, -y, -z+.5'
  2	'-x, -x+y, -z+.5'
  3	'y, x, -z+.5'
  4	'x-y, x, -z'
  5	'y, -x+y, -z'
  6	'-x, -y, -z'
  7	'-x+y, y, z+.5'
  8	'x, x-y, z+.5'
  9	'-y, -x, z+.5'
 10	'-x+y, -x, z'
 11	'-y, x-y, z'
 12	'x, y, z'
 13	'x-y+.6666, -y+.3333, -z+.8333'
 14	'x-y+.3333, -y+.6666, -z+.1666'
 15	'-x+.6666, -x+y+.3333, -z+.8333'
 16	'-x+.3333, -x+y+.6666, -z+.1666'
 17	'y+.6666, x+.3333, -z+.8333'
 18	'y+.3333, x+.6666, -z+.1666'
 19	'x-y+.6666, x+.3333, -z+.3333'
 20	'x-y+.3333, x+.6666, -z+.6666'
 21	'y+.6666, -x+y+.3333, -z+.3333'
 22	'y+.3333, -x+y+.6666, -z+.6666'
 23	'-x+.6666, -y+.3333, -z+.3333'
 24	'-x+.3333, -y+.6666, -z+.6666'
 25	'-x+y+.6666, y+.3333, z+.8333'
 26	'-x+y+.3333, y+.6666, z+.1666'
 27	'x+.6666, x-y+.3333, z+.8333'
 28	'x+.3333, x-y+.6666, z+.1666'
 29	'-y+.6666, -x+.3333, z+.8333'
 30	'-y+.3333, -x+.6666, z+.1666'
 31	'-x+y+.6666, -x+.3333, z+.3333'
 32	'-x+y+.3333, -x+.6666, z+.6666'
 33	'-y+.6666, x-y+.3333, z+.3333'
 34	'-y+.3333, x-y+.6666, z+.6666'
 35	'x+.6666, y+.3333, z+.3333'
 36	'x+.3333, y+.6666, z+.6666'
loop_
_atom_type_symbol
_atom_type_oxidation_number
Al3+	3
B3+	3
O2-	-2
Sr2+	2
loop_
_atom_site_label
_atom_site_type_symbol
_atom_site_symmetry_multiplicity
_atom_site_Wyckoff_symbol
_atom_site_fract_x
_atom_site_fract_y
_atom_site_fract_z
_atom_site_occupancy
_atom_site_attached_hydrogens
Sr1 Sr2+ 6 b 0 0 0 1. 0 
Al1 Al3+ 12 c 0 0 0.21514(3) 1. 0 
B1 B3+ 12 c 0 0 0.1326(1) 1. 0 
O1 O2- 36 f 0.3950(7) 0.9719(7) 0.03286(7) 1. 0 
O2 O2- 6 a 0 0 0.25 1. 0 

loop_
_atom_site_aniso_label
_atom_site_aniso_type_symbol
_atom_site_aniso_U_11
_atom_site_aniso_U_22
_atom_site_aniso_U_33
_atom_site_aniso_U_12
_atom_site_aniso_U_13
_atom_site_aniso_U_23
Sr1 Sr2+ 0.0086(3) 0.0086(3) 0.0103(3) 0.0043(2) 0 0
Al1 Al3+ 0.0068(4) 0.0068(4) 0.0088(6) 0.0034(2) 0 0
B1 B3+ 0.010(2) 0.010(2) 0.011(2) 0.005(1) 0 0
O1 O2- 0.011(2) 0.008(2) 0.020(2) 0.005(1) -.004(1) -.002(1)
O2 O2- 0.031(3) 0.031(3) 0.009(3) 0.016(2) 0 0
#End of data_91031-ICSD


