data_20795-ICSD
#?2014 by Fachinformationszentrum Karlsruhe, and the U.S. Secretary of 
#Commerce on behalf of the United States.  All rights reserved.
_database_code_ICSD                20795
_audit_creation_date               1984/11/20
_audit_update_record               2013/08/01
_chemical_name_systematic
;
Pentasodium Tetrayttrium Tetrakis(silicate) Fluoride
;
_chemical_formula_structural       '(Na Y Si O4)4 Na F'
_chemical_formula_sum              'F1 Na5 O16 Si4 Y4'
_publ_section_title
;
The crystal structure of (Na Y Si O4)4 Na F
;
loop_
_citation_id
_citation_journal_abbrev
_citation_year
_citation_journal_volume
_citation_page_first
_citation_page_last
_citation_journal_id_ASTM
primary 'Doklady Akademii Nauk SSSR' 1980 255 348 351 DANKAS
_publ_author_name
;
Merinov, B.V.;Maksimov, B.A.;Ilyukhin, V.V.;Belov, N.V.
;
_cell_length_a                     11.579(3)
_cell_length_b                     11.579(3)
_cell_length_c                     5.396(1)
_cell_angle_alpha                  90.
_cell_angle_beta                   90.
_cell_angle_gamma                  90.
_cell_volume                       723.46
_cell_formula_units_Z              2
_symmetry_space_group_name_H-M     'I -4'
_symmetry_Int_Tables_number        82
_refine_ls_R_factor_all            .059
loop_
_symmetry_equiv_pos_site_id
_symmetry_equiv_pos_as_xyz
  1	'-y, x, -z'
  2	'y, -x, -z'
  3	'-x, -y, z'
  4	'x, y, z'
  5	'-y+.5, x+.5, -z+.5'
  6	'y+.5, -x+.5, -z+.5'
  7	'-x+.5, -y+.5, z+.5'
  8	'x+.5, y+.5, z+.5'
loop_
_atom_type_symbol
_atom_type_oxidation_number
F1-	-1
Na1+	1
O2-	-2
Si4+	4
Y3+	3
loop_
_atom_site_label
_atom_site_type_symbol
_atom_site_symmetry_multiplicity
_atom_site_Wyckoff_symbol
_atom_site_fract_x
_atom_site_fract_y
_atom_site_fract_z
_atom_site_occupancy
_atom_site_attached_hydrogens
Y1 Y3+ 8 g 0.1154(1) 0.1824(1) 0.0232(2) 1. 0 
Si1 Si4+ 8 g 0.2467(3) 0.1031(3) 0.4890(8) 1. 0 
Na1 Na1+ 8 g 0.1045(5) 0.4107(5) 0.491(1) 1. 0 
Na2 Na1+ 2 b 0 0 0.5 1. 0 
F1 F1- 2 a 0 0 0 1. 0 
O1 O2- 8 g 0.206(1) 0.033(1) 0.241(2) 1. 0 
O2 O2- 8 g 0.1132(9) 0.3903(9) 0.018(2) 1. 0 
O3 O2- 8 g 0.2040(8) 0.2346(8) 0.435(2) 1. 0 
O4 O2- 8 g 0.312(1) 0.451(1) 0.234(2) 1. 0 

#End of data_20795-ICSD


