data_50088-ICSD
#?2014 by Fachinformationszentrum Karlsruhe, and the U.S. Secretary of 
#Commerce on behalf of the United States.  All rights reserved.
_database_code_ICSD                50088
_audit_creation_date               1999/01/19
_audit_update_record               2006/04/01
_chemical_name_systematic          'Potassium Tetrachlorozincate'
_chemical_formula_structural       'K2 (Zn Cl4)'
_chemical_formula_sum              'Cl4 K2 Zn1'
_publ_section_title
;
X-ray study of the low temperature phase transitions in K2 Zn Cl4
;
loop_
_citation_id
_citation_journal_abbrev
_citation_year
_citation_journal_volume
_citation_page_first
_citation_page_last
_citation_journal_id_ASTM
primary 'Phase Transition' 1997 60 1 13 PHTRDP
_publ_author_name
;
Kusz, J.;Pietraszko, A.;Warczewski, J.
;
_cell_length_a                     7.196(1)
_cell_length_b                     12.2750(10)
_cell_length_c                     26.6320(80)
_cell_angle_alpha                  90.
_cell_angle_beta                   90.
_cell_angle_gamma                  90.
_cell_volume                       2352.43
_cell_formula_units_Z              12
_symmetry_space_group_name_H-M     'P 21 c n'
_symmetry_Int_Tables_number        33
_refine_ls_R_factor_all            .029
loop_
_symmetry_equiv_pos_site_id
_symmetry_equiv_pos_as_xyz
  1	'x, -y+.5, z+.5'
  2	'x+.5, y+.5, -z+.5'
  3	'x+.5, -y, -z'
  4	'x, y, z'
loop_
_atom_type_symbol
_atom_type_oxidation_number
Cl1-	-1
K1+	1
Zn2+	2
loop_
_atom_site_label
_atom_site_type_symbol
_atom_site_symmetry_multiplicity
_atom_site_Wyckoff_symbol
_atom_site_fract_x
_atom_site_fract_y
_atom_site_fract_z
_atom_site_occupancy
_atom_site_attached_hydrogens
_atom_site_U_iso_or_equiv
K1 K1+ 4 a 0.7827(15) 0.0817(3) 0.0430(1) 1. 0 0.0427(31) 
K2 K1+ 4 a 0.7177(10) 0.6876(2) 0.3319(1) 1. 0 0.0128(22) 
Zn1 Zn2+ 4 a 0.75 0.4199(1) 0.0717(1) 1. 0 0.0121(12) 
Cl1 Cl1- 4 a 0.6691(15) 0.4464(2) -.0087(1) 1. 0 0.0131(22) 
Cl2 Cl1- 4 a 0.8218(14) 0.5765(3) 0.1132(1) 1. 0 0.0146(28) 
Cl3 Cl1- 4 a -.0205(14) 0.2972(3) 0.0824(1) 1. 0 0.0229(19) 
Cl4 Cl1- 4 a 0.4899(14) 0.3554(3) 0.1110(1) 1. 0 0.0189(19) 
K3 K1+ 4 a 0.7673(14) 0.0826(3) 0.3799(1) 1. 0 0.0289(25) 
K4 K1+ 4 a 0.7324(11) 0.6849(2) 0.6663(1) 1. 0 0.0169(21) 
Zn2 Zn2+ 4 a 0.7751(4) 0.4168(1) 0.4043(1) 1. 0 0.0107(13) 
Cl5 Cl1- 4 a 0.8167(12) 0.4387(2) 0.3220(1) 1. 0 0.0186(22) 
Cl6 Cl1- 4 a 0.8235(14) 0.5772(3) 0.4448(1) 1. 0 0.0394(34) 
Cl7 Cl1- 4 a -.0131(14) 0.2959(3) 0.4339(1) 1. 0 0.0326(21) 
Cl8 Cl1- 4 a 0.4997(13) 0.3544(3) 0.4289(1) 1. 0 0.0374(21) 
K5 K1+ 4 a 0.7203(13) 0.0815(3) 0.7097(1) 1. 0 0.0231(27) 
K6 K1+ 4 a 0.7948(11) 0.6892(2) 0.9991(1) 1. 0 0.0125(22) 
Zn3 Zn2+ 4 a 0.7306(4) 0.4160(1) 0.7406(1) 1. 0 0.0088(13) 
Cl9 Cl1- 4 a 0.8049(12) 0.4344(2) 0.6592(1) 1. 0 0.0178(22) 
Cl10 Cl1- 4 a 0.6606(16) 0.5744(3) 0.7807(1) 1. 0 0.0198(32) 
Cl11 Cl1- 4 a 0.0019(15) 0.3612(2) 0.7787(1) 1. 0 0.0211(19) 
Cl12 Cl1- 4 a 0.5126(16) 0.2894(2) 0.7557(1) 1. 0 0.0161(18) 

#End of data_50088-ICSD


