data_280834-ICSD
#?2014 by Fachinformationszentrum Karlsruhe, and the U.S. Secretary of 
#Commerce on behalf of the United States.  All rights reserved.
_database_code_ICSD                280834
_audit_creation_date               2002/10/01
_chemical_name_systematic
;
Disilver Dioxouranium(VI) Bis(selenate(IV))
;
_chemical_formula_structural       'Ag2 (U O2) (Se O3)2'
_chemical_formula_sum              'Ag2 O8 Se2 U1'
_publ_section_title
;
Hydrothermal syntheses, structures, and properties of the new uranyl 
selenites Ag2 (U O2) (Se O3)2, M ((U O2) (H Se O3) (Se O3)) (M = K, 
Rb, Cs, Tl) and Pb (U O2) (Se O3)2
;
loop_
_citation_id
_citation_journal_abbrev
_citation_year
_citation_journal_volume
_citation_journal_issue
_citation_page_first
_citation_page_last
_citation_journal_id_ASTM
primary 'Inorganic Chemistry' 2002 41 5 1177 1183 INOCAJ
_publ_author_name
;
Almond, P.M.;Albrecht Schmitt, T.E.
;
_cell_length_a                     5.8555(6)
_cell_length_b                     6.5051(7)
_cell_length_c                     21.1640(20)
_cell_angle_alpha                  90.
_cell_angle_beta                   96.796(2)
_cell_angle_gamma                  90.
_cell_volume                       800.49
_cell_formula_units_Z              4
_symmetry_space_group_name_H-M     'P 1 21/n 1'
_symmetry_Int_Tables_number        14
_refine_ls_R_factor_all            .0526
loop_
_symmetry_equiv_pos_site_id
_symmetry_equiv_pos_as_xyz
  1	'-x+.5, y+.5, -z+.5'
  2	'-x, -y, -z'
  3	'x+.5, -y+.5, z+.5'
  4	'x, y, z'
loop_
_atom_type_symbol
_atom_type_oxidation_number
Ag1+	1
O2-	-2
Se4+	4
U6+	6
loop_
_atom_site_label
_atom_site_type_symbol
_atom_site_symmetry_multiplicity
_atom_site_Wyckoff_symbol
_atom_site_fract_x
_atom_site_fract_y
_atom_site_fract_z
_atom_site_occupancy
_atom_site_attached_hydrogens
U1 U6+ 4 e 0.57631(5) -.40999(4) -.144990(14) 1. 0 
Ag1 Ag1+ 4 e 0.1122(2) -.9028(2) -.15983(5) 1. 0 
Ag2 Ag1+ 4 e 0.28187(15) -.10462(11) 0.04111(5) 1. 0 
Se1 Se4+ 4 e 0.76030(14) -.34566(13) 0.02356(4) 1. 0 
Se2 Se4+ 4 e 0.57840(15) 0.06211(12) -.22520(4) 1. 0 
O1 O2- 4 e 0.8885(13) -.1256(11) 0.0519(4) 1. 0 
O2 O2- 4 e 0.6148(13) -.2494(10) -.0439(3) 1. 0 
O3 O2- 4 e 0.5397(12) -.3591(10) 0.0685(3) 1. 0 
O4 O2- 4 e 0.2914(11) -.3108(10) -.1642(3) 1. 0 
O5 O2- 4 e 0.8612(11) -.5052(10) -.1267(3) 1. 0 
O6 O2- 4 e 0.4642(11) -.7225(9) -.1975(3) 1. 0 
O7 O2- 4 e 0.6903(12) -.0559(10) -.1570(3) 1. 0 
O8 O2- 4 e 0.8346(11) 0.1417(10) -.2492(3) 1. 0 

loop_
_atom_site_aniso_label
_atom_site_aniso_type_symbol
_atom_site_aniso_U_11
_atom_site_aniso_U_22
_atom_site_aniso_U_33
_atom_site_aniso_U_12
_atom_site_aniso_U_13
_atom_site_aniso_U_23
U1 U6+ 0.0114(3) 0.0060(3) 0.0079(3) -.00083(8) -.00060(15) 0.00117(8)
Ag1 Ag1+ 0.0234(5) 0.0778(9) 0.0221(5) -.0060(4) -.0017(4) -.0066(4)
Ag2 Ag1+ 0.0216(5) 0.0140(4) 0.0432(6) 0.0036(2) 0.0018(4) 0.0067(3)
Se1 Se4+ 0.0141(4) 0.0083(4) 0.0122(4) 0.0009(3) 0.0006(3) 0.0011(3)
Se2 Se4+ 0.0150(4) 0.0048(4) 0.0092(4) -.0016(3) -.0002(3) -.0012(3)
O1 O2- 0.023(4) 0.015(3) 0.027(4) -.007(3) -.006(3) 0.000(3)
O2 O2- 0.035(4) 0.014(3) 0.014(3) 0.004(3) -.005(3) 0.001(2)
O3 O2- 0.025(3) 0.012(3) 0.023(3) 0.003(3) 0.013(3) 0.007(3)
O4 O2- 0.018(3) 0.014(3) 0.020(3) 0.002(2) 0.000(2) -.002(2)
O5 O2- 0.016(3) 0.015(3) 0.023(3) 0.006(3) -.001(2) 0.007(3)
O6 O2- 0.021(3) 0.010(3) 0.021(3) 0.002(2) 0.001(2) -.006(2)
O7 O2- 0.021(3) 0.011(3) 0.011(3) -.004(2) 0.000(2) 0.002(2)
O8 O2- 0.021(3) 0.011(3) 0.013(3) -.003(3) 0.005(2) 0.006(2)
#End of data_280834-ICSD


