data_411180-ICSD
#?2014 by Fachinformationszentrum Karlsruhe, and the U.S. Secretary of 
#Commerce on behalf of the United States.  All rights reserved.
_database_code_ICSD                411180
_audit_creation_date               2002/04/01
_chemical_name_systematic          'Potassium Tetracyanoborate'
_chemical_formula_structural       'K (B (C N)4)'
_chemical_formula_sum              'C4 B1 K1 N4'
_publ_section_title
;
Die Tetracyanoborate M (B (C N)4), M= (Bu4 N)+,Ag+, K+
;
loop_
_citation_id
_citation_journal_abbrev
_citation_year
_citation_journal_volume
_citation_page_first
_citation_page_last
_citation_journal_id_ASTM
primary 'Zeitschrift fuer Anorganische und Allgemeine Chemie (1950) (DE)'
 2000 626 560 568 ZAACAB
_publ_author_name
;
Bernhardt, E.;Henkel, G.;Willner, H.
;
_cell_length_a                     6.976(1)
_cell_length_b                     6.976(1)
_cell_length_c                     14.210(3)
_cell_angle_alpha                  90.
_cell_angle_beta                   90.
_cell_angle_gamma                  90.
_cell_volume                       691.52
_cell_formula_units_Z              4
_symmetry_space_group_name_H-M     'I 41/a Z'
_symmetry_Int_Tables_number        88
_refine_ls_R_factor_all            .0195
loop_
_symmetry_equiv_pos_site_id
_symmetry_equiv_pos_as_xyz
  1	'-y+.75, x+.75, -z+.75'
  2	'y+.25, -x+.75, -z+.75'
  3	'x, y+.5, -z'
  4	'-x, -y, -z'
  5	'y+.25, -x+.25, z+.25'
  6	'-y+.75, x+.25, z+.25'
  7	'-x, -y+.5, z'
  8	'x, y, z'
  9	'-y+.25, x+.25, -z+.25'
 10	'y+.75, -x+.25, -z+.25'
 11	'x+.5, y, -z+.5'
 12	'-x+.5, -y+.5, -z+.5'
 13	'y+.75, -x+.75, z+.75'
 14	'-y+.25, x+.75, z+.75'
 15	'-x+.5, -y, z+.5'
 16	'x+.5, y+.5, z+.5'
loop_
_atom_type_symbol
_atom_type_oxidation_number
B3+	3
C2+	2
K1+	1
N3-	-3
loop_
_atom_site_label
_atom_site_type_symbol
_atom_site_symmetry_multiplicity
_atom_site_Wyckoff_symbol
_atom_site_fract_x
_atom_site_fract_y
_atom_site_fract_z
_atom_site_occupancy
_atom_site_attached_hydrogens
K1 K1+ 4 b 0.5 0.75 0.125 1. 0 
N1 N3- 16 f 0.73282(14) 0.43492(14) 0.01714(7) 1. 0 
C1 C2+ 16 f 0.84524(15) 0.35694(15) 0.06125(7) 1. 0 
B1 B3+ 4 a 1 0.25 0.125 1. 0 

loop_
_atom_site_aniso_label
_atom_site_aniso_type_symbol
_atom_site_aniso_U_11
_atom_site_aniso_U_22
_atom_site_aniso_U_33
_atom_site_aniso_U_12
_atom_site_aniso_U_13
_atom_site_aniso_U_23
K1 K1+ 0.0189(2) 0.0189(2) 0.0184(3) 0 0 0
N1 N3- 0.0210(5) 0.0227(5) 0.0260(5) 0.0003(4) -.0035(4) 0.0020(4)
C1 C2+ 0.0168(5) 0.0153(5) 0.0178(5) -.0022(4) 0.0013(4) -.0012(4)
B1 B3+ 0.0145(6) 0.0145(6) 0.0170(11) 0 0 0
#End of data_411180-ICSD


