data_423027-ICSD
#?2014 by Fachinformationszentrum Karlsruhe, and the U.S. Secretary of 
#Commerce on behalf of the United States.  All rights reserved.
_database_code_ICSD                423027
_audit_creation_date               2012/02/01
_chemical_name_systematic          'Potassium Triborate - Hp'
_chemical_formula_structural       'K B3 O5'
_chemical_formula_sum              'B3 K1 O5'
_publ_section_title
;
HP - K B3 O5 highlights the structural diversity of borates: corner-
sharing B O3 / B O4 groups in combination with edge-sharing B O4 
tetrahedra
;
loop_
_citation_id
_citation_journal_abbrev
_citation_year
_citation_journal_volume
_citation_journal_issue
_citation_page_first
_citation_page_last
_citation_journal_id_ASTM
primary 'European Journal of Inorganic Chemistry  (online)'
 2011 2011 27 4147 4152 EJICFO
_publ_author_name
;
Neumair, S.C.;Vanicek, S.;Kaindl, R.;Toebbens, D.M.;Martineau, 
C.;Taulelle, F.;Senker, J.;Huppertz, H.
;
_cell_length_a                     9.6082(19)
_cell_length_b                     8.7704(18)
_cell_length_c                     9.0986(18)
_cell_angle_alpha                  90.00
_cell_angle_beta                   104.35(3)
_cell_angle_gamma                  90.00
_cell_volume                       742.8
_cell_formula_units_Z              8
_symmetry_space_group_name_H-M     'C 1 2/c 1'
_symmetry_Int_Tables_number        15
_refine_ls_R_factor_all            .0266
loop_
_symmetry_equiv_pos_site_id
_symmetry_equiv_pos_as_xyz
  1	'x, -y, z+.5'
  2	'-x, -y, -z'
  3	'-x, y, -z+.5'
  4	'x, y, z'
  5	'x+.5, -y+.5, z+.5'
  6	'-x+.5, -y+.5, -z'
  7	'-x+.5, y+.5, -z+.5'
  8	'x+.5, y+.5, z'
loop_
_atom_type_symbol
_atom_type_oxidation_number
B3+	3
K1+	1
O2-	-2
loop_
_atom_site_label
_atom_site_type_symbol
_atom_site_symmetry_multiplicity
_atom_site_Wyckoff_symbol
_atom_site_fract_x
_atom_site_fract_y
_atom_site_fract_z
_atom_site_occupancy
_atom_site_attached_hydrogens
_atom_site_U_iso_or_equiv
K1 K1+ 8 f 0.07792(3) 0.33814(3) 0.44121(3) 1 0 0.01838(7) 
O1 O2- 8 f 0.08143(8) 0.01376(8) 0.10125(8) 1 0 0.00714(12) 
O2 O2- 8 f 0.16613(8) 0.05297(8) 0.37352(8) 1 0 0.00715(13) 
O3 O2- 8 f 0.24719(8) 0.34004(8) 0.24658(9) 1 0 0.00896(13) 
O4 O2- 8 f 0.32514(8) 0.08790(8) 0.20509(9) 1 0 0.00749(13) 
O5 O2- 8 f 0.41329(8) 0.29746(8) 0.09439(9) 1 0 0.00815(13) 
B1 B3+ 8 f 0.20820(11) 0.00145(12) 0.23971(12) 1 0 0.00600(16) 
B2 B3+ 8 f 0.32630(12) 0.24218(12) 0.18211(12) 1 0 0.00647(17) 
B3 B3+ 8 f 0.42356(11) 0.45838(12) 0.06420(12) 1 0 0.00641(16) 

loop_
_atom_site_aniso_label
_atom_site_aniso_type_symbol
_atom_site_aniso_U_11
_atom_site_aniso_U_22
_atom_site_aniso_U_33
_atom_site_aniso_U_12
_atom_site_aniso_U_13
_atom_site_aniso_U_23
K1 K1+ 0.02073(13) 0.01709(12) 0.02159(13) -0.00377(9) 0.01329(10) 
-0.00034(9)
O1 O2- 0.0061(3) 0.0109(3) 0.0044(3) -0.0022(2) 0.0013(2) 0.0009(2)
O2 O2- 0.0092(3) 0.0067(3) 0.0068(3) -0.0011(2) 0.0044(2) -0.0008(2)
O3 O2- 0.0113(3) 0.0053(3) 0.0129(3) -0.0013(2) 0.0080(3) -0.0016(2)
O4 O2- 0.0073(3) 0.0051(3) 0.0113(3) -0.0010(2) 0.0047(2) 0.0003(2)
O5 O2- 0.0103(3) 0.0060(3) 0.0102(3) -0.0003(2) 0.0065(2) 0.0009(2)
B1 B3+ 0.0063(4) 0.0055(4) 0.0067(4) -0.0001(3) 0.0027(3) 0.0002(3)
B2 B3+ 0.0072(4) 0.0061(4) 0.0069(4) -0.0010(3) 0.0033(3) -0.0005(3)
B3 B3+ 0.0067(4) 0.0068(4) 0.0063(4) -0.0006(3) 0.0025(3) 0.0003(3)
#End of data_423027-ICSD


