data_91782-ICSD
#?2014 by Fachinformationszentrum Karlsruhe, and the U.S. Secretary of 
#Commerce on behalf of the United States.  All rights reserved.
_database_code_ICSD                91782
_audit_creation_date               2002/10/01
_chemical_name_systematic          'Potassium Strontium Vanadate'
_chemical_formula_structural       'K Sr (V O4)'
_chemical_formula_sum              'K1 O4 Sr1 V1'
_publ_section_title
;
Synthesis and crystal structure of a noncentrosymmetric form of 
potassium strontium monovanadate K Sr V O4
;
loop_
_citation_id
_citation_journal_abbrev
_citation_year
_citation_journal_volume
_citation_page_first
_citation_page_last
_citation_journal_id_ASTM
primary 'Materials Research Bulletin' 2000 35 263 270 MRBUAC
_publ_author_name
;
Azrour, M.;El Ammari, L.;le Fur, Y.;Elouadi, B.
;
_cell_length_a                     5.865(2)
_cell_length_b                     7.491(2)
_cell_length_c                     10.021(3)
_cell_angle_alpha                  90.
_cell_angle_beta                   90.
_cell_angle_gamma                  90.
_cell_volume                       440.27
_cell_formula_units_Z              4
_symmetry_space_group_name_H-M     'P 21 21 21'
_symmetry_Int_Tables_number        19
_refine_ls_R_factor_all            .044
loop_
_symmetry_equiv_pos_site_id
_symmetry_equiv_pos_as_xyz
  1	'-x, y+.5, -z+.5'
  2	'x+.5, -y+.5, -z'
  3	'-x+.5, -y, z+.5'
  4	'x, y, z'
loop_
_atom_type_symbol
_atom_type_oxidation_number
K1+	1
O2-	-2
Sr2+	2
V5+	5
loop_
_atom_site_label
_atom_site_type_symbol
_atom_site_symmetry_multiplicity
_atom_site_Wyckoff_symbol
_atom_site_fract_x
_atom_site_fract_y
_atom_site_fract_z
_atom_site_occupancy
_atom_site_attached_hydrogens
Sr1 Sr2+ 4 a 0.98218(6) 0.24903(9) 0.80073(4) 1. 0 
V1 V5+ 4 a 0.0134(2) 0.47531(12) 0.08366(9) 1. 0 
K1 K1+ 4 a 0.5135(3) 0.5927(2) 0.92138(13) 1. 0 
O1 O2- 4 a 0.7424(11) -.0551(9) 0.8273(6) 1. 0 
O2 O2- 4 a 0.2630(11) -.019(1) 0.8321(6) 1. 0 
O3 O2- 4 a 0.0601(12) 0.2532(9) 0.0644(4) 1. 0 
O4 O2- 4 a 0.0060(12) 0.5681(7) -.0754(4) 1. 0 

loop_
_atom_site_aniso_label
_atom_site_aniso_type_symbol
_atom_site_aniso_U_11
_atom_site_aniso_U_22
_atom_site_aniso_U_33
_atom_site_aniso_U_12
_atom_site_aniso_U_13
_atom_site_aniso_U_23
Sr1 Sr2+ 0.0141(2) 0.0100(2) 0.0099(1) -.0008(3) 0.0007(2) 0.0000(2)
V1 V5+ 0.0109(4) 0.0100(4) 0.0086(3) -.0002(4) 0.0000(4) 0.0001(2)
K1 K1+ 0.0196(6) 0.0142(5) 0.0176(4) -.0004(6) -.0005(7) -.0002(4)
O1 O2- 0.015(2) 0.022(3) 0.022(3) 0.003(3) 0.004(2) -.005(2)
O2 O2- 0.014(2) 0.026(3) 0.009(2) -.003(2) -.003(2) -.005(2)
O3 O2- 0.033(3) 0.091(13) 0.023(2) 0.003(2) -.005(2) 0.000(2)
O4 O2- 0.019(2) 0.020(2) 0.088(11) -.001(2) 0.001(2) 0.0041(12)
#End of data_91782-ICSD


