data_34950-ICSD
#?2014 by Fachinformationszentrum Karlsruhe, and the U.S. Secretary of 
#Commerce on behalf of the United States.  All rights reserved.
_database_code_ICSD                34950
_audit_creation_date               1980/01/01
_audit_update_record               1998/06/26
_chemical_name_systematic
;
Sodium Lithium Iron(III) Silicate *
;
_chemical_formula_structural       'Na2 Li Fe Si6 O15'
_chemical_formula_sum              'Fe1 Li1 Na2 O15 Si6'
_chemical_name_mineral             Emeleusite
_publ_section_title
;
The crystal structure of Emeleusite, a novel example of Sechser-
Doppelkette
;
loop_
_citation_id
_citation_journal_abbrev
_citation_year
_citation_journal_volume
_citation_page_first
_citation_page_last
_citation_journal_id_ASTM
primary
;
Zeitschrift fuer Kristallographie, Kristallgeometrie, Kristallphysik, 
Kristallchemie (145,1977-148,1979)
;
 1978 147 297 306 ZKKKAJ
_publ_author_name
;
Johnsen, O.;Nielsen, K.;Sotofte, I.
;
_cell_length_a                     10.072(3)
_cell_length_b                     17.3370(60)
_cell_length_c                     14.003(3)
_cell_angle_alpha                  90.
_cell_angle_beta                   90.
_cell_angle_gamma                  90.
_cell_volume                       2445.18
_cell_formula_units_Z              8
_symmetry_space_group_name_H-M     'A c a m'
_symmetry_Int_Tables_number        64
_refine_ls_R_factor_all            .049
loop_
_symmetry_equiv_pos_site_id
_symmetry_equiv_pos_as_xyz
  1	'x+.5, -y+.5, -z'
  2	'-x+.5, y+.5, -z'
  3	'x, y, -z'
  4	'-x, -y, -z'
  5	'-x+.5, y+.5, z'
  6	'x+.5, -y+.5, z'
  7	'-x, -y, z'
  8	'x, y, z'
  9	'x+.5, -y, -z+.5'
 10	'-x+.5, y, -z+.5'
 11	'x, y+.5, -z+.5'
 12	'-x, -y+.5, -z+.5'
 13	'-x+.5, y, z+.5'
 14	'x+.5, -y, z+.5'
 15	'-x, -y+.5, z+.5'
 16	'x, y+.5, z+.5'
loop_
_atom_type_symbol
_atom_type_oxidation_number
Fe3+	3
Li1+	1
Na1+	1
O2-	-2
Si4+	4
loop_
_atom_site_label
_atom_site_type_symbol
_atom_site_symmetry_multiplicity
_atom_site_Wyckoff_symbol
_atom_site_fract_x
_atom_site_fract_y
_atom_site_fract_z
_atom_site_occupancy
_atom_site_attached_hydrogens
_atom_site_U_iso_or_equiv
Na1 Na1+ 8 f 0.2516(18) 0.4145(4) 0.5 1. 0 0 
Na2 Na1+ 8 e 0.25 0.2243(3) 0.25 1. 0 0 
Li1 Li1+ 8 d 0 0 0.2518(19) 1. 0 0.005(4) 
Fe1 Fe3+ 8 e 0.25 0.4137(1) 0.25 1. 0 0 
Si1 Si4+ 16 g 0.4867(2) 0.1322(1) 0.6137(2) 1. 0 0.0039(6) 
Si2 Si4+ 16 g 0.1923(2) 0.0716(1) 0.6140(2) 1. 0 0.0037(5) 
Si3 Si4+ 16 g 0.4579(2) 0.3107(1) 0.6140(2) 1. 0 0.0050(6) 
O1 O2- 16 g -.0032(6) 0.2230(4) 0.1385(5) 1. 0 0.013(2) 
O2 O2- 16 g 0.4123(6) 0.4203(4) 0.1702(5) 1. 0 0.009(1) 
O3 O2- 16 g 0.3340(7) 0.1116(4) 0.3606(5) 1. 0 0.014(2) 
O4 O2- 16 g 0.3371(7) 0.4944(4) 0.3306(5) 1. 0 0.009(2) 
O5 O2- 16 g 0.0861(7) 0.1379(3) 0.3570(5) 1. 0 0.009(2) 
O6 O2- 16 g 0.1757(6) 0.3332(4) 0.1664(5) 1. 0 0.011(2) 
O7 O2- 8 f 0.5136(11) 0.1209(6) 0.5 1. 0 0.015(2) 
O8 O2- 8 f 0.1885(11) 0.0535(6) 0.5 1. 0 0.015(2) 
O9 O2- 8 f 0.4319(10) 0.3205(6) 0.5 1. 0 0.015(2) 

loop_
_atom_site_aniso_label
_atom_site_aniso_type_symbol
_atom_site_aniso_U_11
_atom_site_aniso_U_22
_atom_site_aniso_U_33
_atom_site_aniso_U_12
_atom_site_aniso_U_13
_atom_site_aniso_U_23
Na1 Na1+ 0.017(3) 0.025(4) 0.066(5) -.002(3) 0 0
Na2 Na1+ 0.042(4) 0.012(3) 0.028(4) 0 -.021(4) 0
Fe1 Fe3+ 0.012(1) 0.008(1) 0.009(1) 0 0.000(1) 0
#End of data_34950-ICSD


