data_162110-ICSD
#?2014 by Fachinformationszentrum Karlsruhe, and the U.S. Secretary of 
#Commerce on behalf of the United States.  All rights reserved.
_database_code_ICSD                162110
_audit_creation_date               2009/08/01
_chemical_name_systematic          'Calcium Manganate(IV)'
_chemical_formula_structural       'Ca (Mn O3)'
_chemical_formula_sum              'Ca1 Mn1 O3'
_publ_section_title
;
Neutron powder diffraction studies in Ca Mn1-x Cux O3 (x= 0, 0.2)
;
loop_
_citation_id
_citation_journal_abbrev
_citation_year
_citation_journal_volume
_citation_journal_issue
_citation_page_first
_citation_page_last
_citation_journal_id_ASTM
primary 'Crystal Research and Technology' 2008 43 12 1318 1322 CRTEDF
_publ_author_name
;
Ravi, S.;Kar, M.;Borah, S.M.;Krishna, P.S.R.
;
_cell_length_a                     5.2556
_cell_length_b                     5.2680
_cell_length_c                     7.4322
_cell_angle_alpha                  90.
_cell_angle_beta                   90.
_cell_angle_gamma                  90.
_cell_volume                       205.77
_cell_formula_units_Z              4
_symmetry_space_group_name_H-M     'P b n m'
_symmetry_Int_Tables_number        62
_refine_ls_R_factor_all            .0586
loop_
_symmetry_equiv_pos_site_id
_symmetry_equiv_pos_as_xyz
  1	'-x+.5, y+.5, z'
  2	'x, y, -z+.5'
  3	'x+.5, -y+.5, z+.5'
  4	'-x, -y, -z'
  5	'x+.5, -y+.5, -z'
  6	'-x, -y, z+.5'
  7	'-x+.5, y+.5, -z+.5'
  8	'x, y, z'
loop_
_atom_type_symbol
_atom_type_oxidation_number
Ca2+	2
Mn4+	4
O2-	-2
loop_
_atom_site_label
_atom_site_type_symbol
_atom_site_symmetry_multiplicity
_atom_site_Wyckoff_symbol
_atom_site_fract_x
_atom_site_fract_y
_atom_site_fract_z
_atom_site_occupancy
_atom_site_attached_hydrogens
Ca1 Ca2+ 4 c 0.0035 0.0032 0.250 1. 0 
Mn1 Mn4+ 4 b 0.5 0 0 1. 0 
O1 O2- 4 c 0.9282 0.5092 0.250 1. 0 
O2 O2- 8 d 0.2864 0.7160 0.0342 1. 0 

#End of data_162110-ICSD


