data_420147-ICSD
#?2014 by Fachinformationszentrum Karlsruhe, and the U.S. Secretary of 
#Commerce on behalf of the United States.  All rights reserved.
_database_code_ICSD                420147
_audit_creation_date               2009/08/01
_chemical_name_systematic
;
Potassium Nickel Tris(hexafluoroarsenate(V))
;
_chemical_formula_structural       'K Ni (As F6)3'
_chemical_formula_sum              'As3 F18 K1 Ni1'
_publ_section_title
;
Syntheses and characterization of A Ni (As F6)3 (A= (H3 O)(+), 
(O2)(+), (N O)(+), (N H4)(+), K(+), Rb(+) and Cs(+)) compounds
;
loop_
_citation_id
_citation_journal_abbrev
_citation_year
_citation_journal_volume
_citation_page_first
_citation_page_last
_citation_journal_id_ASTM
primary 'Journal of Fluorine Chemistry' 2009 130 399 405 JFLCAR
_publ_author_name                  'Mazej, Z.;Goreshnik, E.'
_cell_length_a                     10.2770(7)
_cell_length_b                     13.7784(10)
_cell_length_c                     9.4177(8)
_cell_angle_alpha                  90
_cell_angle_beta                   90
_cell_angle_gamma                  90
_cell_volume                       1333.55
_cell_formula_units_Z              4
_symmetry_space_group_name_H-M     'P n m a'
_symmetry_Int_Tables_number        62
_refine_ls_R_factor_all            .056
loop_
_symmetry_equiv_pos_site_id
_symmetry_equiv_pos_as_xyz
  1	'x+.5, y, -z+.5'
  2	'x, -y+.5, z'
  3	'-x+.5, y+.5, z+.5'
  4	'-x, -y, -z'
  5	'-x+.5, -y, z+.5'
  6	'-x, y+.5, -z'
  7	'x+.5, -y+.5, -z+.5'
  8	'x, y, z'
loop_
_atom_type_symbol
_atom_type_oxidation_number
As5+	5
F1-	-1
K1+	1
Ni2+	2
loop_
_atom_site_label
_atom_site_type_symbol
_atom_site_symmetry_multiplicity
_atom_site_Wyckoff_symbol
_atom_site_fract_x
_atom_site_fract_y
_atom_site_fract_z
_atom_site_occupancy
_atom_site_attached_hydrogens
_atom_site_U_iso_or_equiv
As1 As5+ 4 c 1.02130(10) -0.25 0.89332(11) 1 0 0.0250(3) 
As2 As5+ 8 d 0.79621(7) 0.04964(5) 0.69529(8) 1 0 0.0242(2) 
Ni1 Ni2+ 4 a 1 0 1 1 0 0.0213(3) 
K1 K1+ 4 c 0.9235(3) -0.25 0.4770(3) 1 0 0.0494(7) 
F1 F1- 4 c 0.8664(7) -0.25 0.8410(11) 1 0 0.078(3) 
F2 F1- 8 d 0.7161(5) -0.0348(4) 0.7921(5) 1 0 0.0531(15) 
F3 F1- 8 d 0.9210(4) 0.0564(3) 0.8255(5) 1 0 0.0381(11) 
F4 F1- 4 c 1.1794(6) -0.25 0.9398(9) 1 0 0.060(2) 
F5 F1- 8 d 0.7159(5) 0.1387(4) 0.7813(6) 1 0 0.0599(15) 
F6 F1- 8 d 0.6732(4) 0.0481(3) 0.5636(5) 1 0 0.0343(10) 
F7 F1- 8 d 0.8759(5) -0.0398(4) 0.6100(6) 1 0 0.0596(15) 
F8 F1- 8 d 1.0235(5) -0.1219(3) 0.8914(5) 1 0 0.0411(11) 
F9 F1- 8 d 0.8772(4) 0.1325(4) 0.5980(5) 1 0 0.0536(15) 
F10 F1- 4 c 0.9793(8) -0.25 1.0676(8) 1 0 0.057(2) 
F11 F1- 4 c 1.0670(8) -0.25 0.7215(7) 1 0 0.0513(19) 

loop_
_atom_site_aniso_label
_atom_site_aniso_type_symbol
_atom_site_aniso_U_11
_atom_site_aniso_U_22
_atom_site_aniso_U_33
_atom_site_aniso_U_12
_atom_site_aniso_U_13
_atom_site_aniso_U_23
As1 As5+ 0.0268(6) 0.0195(5) 0.0286(6) 0 0.0015(4) 0
As2 As5+ 0.0217(4) 0.0286(4) 0.0222(4) -0.0028(3) -0.0031(3) 0.0013(3)
Ni1 Ni2+ 0.0190(6) 0.0224(6) 0.0225(6) -0.0009(5) -0.0003(5) 0.0003(5)
K1 K1+ 0.0384(15) 0.0571(18) 0.0528(18) 0 -0.0028(13) 0
F1 F1- 0.031(4) 0.053(5) 0.150(9) 0 -0.021(5) 0
F2 F1- 0.056(3) 0.073(4) 0.031(3) -0.037(3) -0.010(2) 0.019(2)
F3 F1- 0.030(2) 0.048(3) 0.037(3) -0.0080(19) -0.0149(19) 0.010(2)
F4 F1- 0.026(4) 0.075(5) 0.078(6) 0 -0.017(4) 0
F5 F1- 0.064(3) 0.063(3) 0.053(3) 0.026(3) -0.016(3) -0.028(3)
F6 F1- 0.027(2) 0.046(3) 0.030(2) -0.0085(19) -0.0062(18) 0.0032(19)
F7 F1- 0.059(3) 0.068(4) 0.052(3) 0.029(3) -0.004(3) -0.020(3)
F8 F1- 0.065(3) 0.021(2) 0.037(3) -0.004(2) 0.014(2) -0.0057(19)
F9 F1- 0.047(3) 0.069(4) 0.044(3) -0.030(3) -0.020(2) 0.028(3)
F10 F1- 0.089(6) 0.033(4) 0.048(4) 0 0.036(4) 0
F11 F1- 0.101(6) 0.025(3) 0.028(4) 0 0.008(4) 0
#End of data_420147-ICSD


