data_156311-ICSD
#?2014 by Fachinformationszentrum Karlsruhe, and the U.S. Secretary of 
#Commerce on behalf of the United States.  All rights reserved.
_database_code_ICSD                156311
_audit_creation_date               2007/08/01
_chemical_name_systematic
;
Beryllium Aluminium Hydride - Alpha
;
_chemical_formula_structural       'Be Al H5'
_chemical_formula_sum              'H5 Al1 Be1'
_publ_section_title
;
Structure and bonding in B Al H5 (B = Be, Ca, Sr) from first-
principle calculations
;
loop_
_citation_id
_citation_journal_abbrev
_citation_year
_citation_journal_volume
_citation_page_first
_citation_page_last
_citation_journal_id_ASTM
primary 'Journal of Alloys and Compounds' 2007 433 225 232 JALCEU
_publ_author_name
;
Klaveness, A.;Vajeeston, P.;Ravindran, P.;Fjellvag, H.;Kjekshus, A.
;
_cell_length_a                     4.790
_cell_length_b                     4.324
_cell_length_c                     6.277
_cell_angle_alpha                  90.
_cell_angle_beta                   89.408
_cell_angle_gamma                  90.
_cell_volume                       130
_cell_formula_units_Z              2
_symmetry_space_group_name_H-M     'P 1 21 1'
_symmetry_Int_Tables_number        4
loop_
_symmetry_equiv_pos_site_id
_symmetry_equiv_pos_as_xyz
  1	'-x, y+.5, -z'
  2	'x, y, z'
loop_
_atom_type_symbol
_atom_type_oxidation_number
Al3+	3
Be2+	2
H1-	-1
loop_
_atom_site_label
_atom_site_type_symbol
_atom_site_symmetry_multiplicity
_atom_site_Wyckoff_symbol
_atom_site_fract_x
_atom_site_fract_y
_atom_site_fract_z
_atom_site_occupancy
_atom_site_attached_hydrogens
Be1 Be2+ 2 a 0.002 0.230 0.623 1. 0 
Al1 Al3+ 2 a 0.243 0.990 0.000 1. 0 
H1 H1- 2 a 0.247 0.162 0.749 1. 0 
H2 H1- 2 a 0.001 0.740 0.902 1. 0 
H3 H1- 2 a 0.501 0.740 0.914 1. 0 
H4 H1- 2 a 0.240 0.821 0.251 1. 0 
H5 H1- 2 a 0.890 0.965 0.515 1. 0 

#End of data_156311-ICSD


