data_12116-ICSD
#?2014 by Fachinformationszentrum Karlsruhe, and the U.S. Secretary of 
#Commerce on behalf of the United States.  All rights reserved.
_database_code_ICSD                12116
_audit_creation_date               1980/01/01
_audit_update_record               2010/02/01
_chemical_name_systematic          'Calcium Potassium Diarsenate(V)'
_chemical_formula_structural       'Ca K2 (As2 O7)'
_chemical_formula_sum              'As2 Ca1 K2 O7'
_publ_section_title
;
Crystal structure of Ca K2 As2 O7 And Cd K2 P2 O7
;
loop_
_citation_id
_citation_journal_abbrev
_citation_year
_citation_journal_volume
_citation_page_first
_citation_page_last
_citation_journal_id_ASTM
primary 'Canadian Journal of Chemistry' 1976 54 3319 3324 CJCHAG
_publ_author_name                  'Faggiani, R.;Calvo, C.'
_cell_length_a                     9.222(6)
_cell_length_b                     5.835(3)
_cell_length_c                     14.698(10)
_cell_angle_alpha                  90.
_cell_angle_beta                   105.84(5)
_cell_angle_gamma                  90.
_cell_volume                       760.87
_cell_formula_units_Z              4
_symmetry_space_group_name_H-M     'P 1 21/c 1'
_symmetry_Int_Tables_number        14
_refine_ls_R_factor_all            .056
loop_
_symmetry_equiv_pos_site_id
_symmetry_equiv_pos_as_xyz
  1	'x, -y+.5, z+.5'
  2	'-x, -y, -z'
  3	'-x, y+.5, -z+.5'
  4	'x, y, z'
loop_
_atom_type_symbol
_atom_type_oxidation_number
As5+	5
Ca2+	2
K1+	1
O2-	-2
loop_
_atom_site_label
_atom_site_type_symbol
_atom_site_symmetry_multiplicity
_atom_site_Wyckoff_symbol
_atom_site_fract_x
_atom_site_fract_y
_atom_site_fract_z
_atom_site_occupancy
_atom_site_attached_hydrogens
Ca1 Ca2+ 4 e 0.7341(1) 0.2726(2) 0.13742(9) 1. 0 
K1 K1+ 4 e 0.5337(2) 0.2381(3) 0.3348(1) 1. 0 
K2 K1+ 4 e 0.9669(2) 0.2558(3) 0.3879(1) 1. 0 
As1 As5+ 4 e 0.31519(8) 0.2065(1) 0.02852(5) 1. 0 
As2 As5+ 4 e 0.17478(7) 0.2603(1) 0.19770(4) 1. 0 
O1 O2- 4 e 0.1654(5) 0.3006(8) 0.0749(3) 1. 0 
O2 O2- 4 e 0.2609(5) 0.0097(7) 0.2285(3) 1. 0 
O3 O2- 4 e -.0066(5) 0.2615(9) 0.1929(4) 1. 0 
O4 O2- 4 e 0.28687(5) 0.4881(8) 0.2501(3) 1. 0 
O5 O2- 4 e 0.2743(6) -.0681(8) 0.0017(4) 1. 0 
O6 O2- 4 e 0.4728(5) 0.2504(9) 0.1127(3) 1. 0 
O7 O2- 4 e 0.2867(6) 0.3680(4) -.0681(3) 1. 0 

loop_
_atom_site_aniso_label
_atom_site_aniso_type_symbol
_atom_site_aniso_U_11
_atom_site_aniso_U_22
_atom_site_aniso_U_33
_atom_site_aniso_U_12
_atom_site_aniso_U_13
_atom_site_aniso_U_23
Ca1 Ca2+ 0.0111(6) 0.0105(6) 0.0119(5) -.0002(5) 0.0037(5) -.0006(5)
K1 K1+ 0.0176(7) 0.0165(7) 0.0244(7) -.0018(7) 0.0047(6) -.0021(7)
K2 K1+ 0.0265(9) 0.0285(8) 0.0165(8) 0.0088(7) 0.0057(7) 0.0039(8)
As1 As5+ 0.0133(3) 0.0087(3) 0.0105(3) 0.0001(3) 0.0042(2) 0.0006(2)
As2 As5+ 0.0099(3) 0.0082(2) 0.0126(3) 0.0005(3) 0.0044(2) -.0002(3)
O1 O2- 0.016(2) 0.029(3) 0.017(2) 0.009(2) 0.006(2) 0.004(2)
O2 O2- 0.015(3) 0.009(2) 0.019(2) 0.000(2) 0.004(2) 0.000(2)
O3 O2- 0.012(2) 0.032(3) 0.025(3) 0.003(2) 0.006(2) 0.000(2)
O4 O2- 0.018(3) 0.010(2) 0.021(3) -.005(2) 0.006(2) -.006(2)
O5 O2- 0.041(3) 0.015(2) 0.019(3) -.004(2) 0.009(3) -.005(2)
O6 O2- 0.017(3) 0.029(3) 0.023(2) -.004(2) 0.002(2) -.005(2)
O7 O2- 0.038(3) 0.020(3) 0.020(3) 0.005(2) 0.014(2) 0.008(2)
#End of data_12116-ICSD


