data_99613-ICSD
#?2014 by Fachinformationszentrum Karlsruhe, and the U.S. Secretary of 
#Commerce on behalf of the United States.  All rights reserved.
_database_code_ICSD                99613
_audit_creation_date               2005/04/01
_chemical_name_systematic
;
Pentalanthanum Dititanium Silver Pentasulfide Heptaoxide
;
_chemical_formula_structural       'La5 Ti2 Ag S5 O7'
_chemical_formula_sum              'Ag1 La5 O7 S5 Ti2'
_publ_section_title
;
Crystal structures of two new oxysulfides La5 Ti2 M S5 O7 (M = Cu, 
Ag): evidence of anionic segregation
;
loop_
_citation_id
_citation_journal_abbrev
_citation_year
_citation_journal_volume
_citation_page_first
_citation_page_last
_citation_journal_id_ASTM
primary 'Journal of Solid State Chemistry' 2004 177 2810 2817 JSSCBI
_publ_author_name
;
Meignen, V.;Cario, L.;Lafond, A.;Moelo, Y.;Guillot Deudon, 
C.;Meerschaut, A.
;
_cell_length_a                     19.593(1)
_cell_length_b                     3.9963(1)
_cell_length_c                     18.2973(15)
_cell_angle_alpha                  90
_cell_angle_beta                   90
_cell_angle_gamma                  90
_cell_volume                       1432.67
_cell_formula_units_Z              4
_symmetry_space_group_name_H-M     'P n m a'
_symmetry_Int_Tables_number        62
_refine_ls_R_factor_all            .0385
loop_
_symmetry_equiv_pos_site_id
_symmetry_equiv_pos_as_xyz
  1	'x+.5, y, -z+.5'
  2	'x, -y+.5, z'
  3	'-x+.5, y+.5, z+.5'
  4	'-x, -y, -z'
  5	'-x+.5, -y, z+.5'
  6	'-x, y+.5, -z'
  7	'x+.5, -y+.5, -z+.5'
  8	'x, y, z'
loop_
_atom_type_symbol
_atom_type_oxidation_number
Ag1+	1
La3+	3
O2-	-2
S2-	-2
Ti4+	4
loop_
_atom_site_label
_atom_site_type_symbol
_atom_site_symmetry_multiplicity
_atom_site_Wyckoff_symbol
_atom_site_fract_x
_atom_site_fract_y
_atom_site_fract_z
_atom_site_occupancy
_atom_site_attached_hydrogens
_atom_site_U_iso_or_equiv
La1 La3+ 4 c 0.69330(4) 0.750 0.28526(5) 1. 0 0.0077(2) 
La2 La3+ 4 c 0.51314(4) 0.750 0.37656(4) 1. 0 0.0052(2) 
La3 La3+ 4 c 0.31798(4) 0.750 0.47171(4) 1. 0 0.0052(2) 
La4 La3+ 4 c 0.10694(4) 0.750 0.50024(5) 1. 0 0.0064(2) 
La5 La3+ 4 c 0.54179(4) 0.250 0.19525(4) 1. 0 0.0056(2) 
Ti1 Ti4+ 4 c 0.19750(12) 0.250 0.38792(13) 1. 0 0.0045(7) 
Ti2 Ti4+ 4 c 0.37801(13) 0.250 0.33130(14) 1. 0 0.0127(8) 
Ag1 Ag1+ 4 c 0.86628(6) 0.750 0.34386(7) 1. 0 0.0207(4) 
S1 S2- 4 c 0.6286(2) 0.250 0.3793(2) 1. 0 0.0079(10) 
S2 S2- 4 c 0.7791(2) 0.750 0.4567(2) 1. 0 0.0092(10) 
S3 S2- 4 c 0.5675(2) 0.750 0.5335(2) 1. 0 0.0072(10) 
S4 S2- 4 c 0.8165(2) 0.250 0.2801(2) 1. 0 0.0097(10) 
S5 S2- 4 c 0.9752(2) 0.750 0.4109(2) 1. 0 0.0083(10) 
O1 O2- 4 c 0.6724(5) 0.250 0.2078(5) 1. 0 0.007(2) 
O2 O2- 4 c 0.5725(5) 0.750 0.2540(5) 1. 0 0.008(2) 
O3 O2- 4 c 0.4695(4) 0.250 0.3056(5) 1. 0 0.006(2) 
O4 O2- 4 c 0.3811(4) 0.750 0.3453(5) 1. 0 0.005(2) 
O5 O2- 4 c 0.2950(4) 0.250 0.3939(5) 1. 0 0.005(2) 
O6 O2- 4 c 0.2017(5) 0.750 0.4027(5) 1. 0 0.008(2) 
O7 O2- 4 c 0.1068(4) 0.250 0.4244(5) 1. 0 0.006(2) 

loop_
_atom_site_aniso_label
_atom_site_aniso_type_symbol
_atom_site_aniso_U_11
_atom_site_aniso_U_22
_atom_site_aniso_U_33
_atom_site_aniso_U_12
_atom_site_aniso_U_13
_atom_site_aniso_U_23
La1 La3+ .0049(4) .0045(4) .0139(4) 0. .0013(3) 0.
La2 La3+ .0041(4) .0048(4) .0066(4) 0. .0007(3) 0.
La3 La3+ .0053(4) .0036(4) .0067(4) 0. -.0002(3) 0.
La4 La3+ .0063(4) .0041(4) .0087(4) 0. .0023(3) 0.
La5 La3+ .0058(4) .0047(4) .0065(4) 0. .0005(3) 0.
Ti1 Ti4+ .0018(12) .0057(12) .0060(12) 0. -.0010(10) 0.
Ti2 Ti4+ .0024(13) .029(2) .0070(13) 0. .0013(11) 0.
Ag1 Ag1+ .0169(7) .0245(7) .0208(6) 0. -.0078(6) 0.
S1 S2- .006(2) .008(2) .009(2) 0. .0020(14) 0.
S2 S2- .008(2) .009(2) .010(2) 0. .0002(14) 0.
S3 S2- .006(2) .004(2) .012(2) 0. -.0012(14) 0.
S4 S2- .009(2) .008(2) .012(2) 0. .0032(15) 0.
S5 S2- .006(2) .008(2) .011(2) 0. .0012(14) 0.
#End of data_99613-ICSD


