data_157427-ICSD
#?2014 by Fachinformationszentrum Karlsruhe, and the U.S. Secretary of 
#Commerce on behalf of the United States.  All rights reserved.
_database_code_ICSD                157427
_audit_creation_date               2008/02/01
_audit_update_record               2013/02/01
_chemical_name_systematic          'Dilithium Tungstate'
_chemical_formula_structural       'Li2 (W O4)'
_chemical_formula_sum              'Li2 O4 W1'
_publ_section_title
;
Luminescence characteristics and crystal structure of (Ca W O4) - 
(Li2 W O4) - (Eu2 O3)
;
loop_
_citation_id
_citation_journal_abbrev
_citation_year
_citation_journal_volume
_citation_journal_issue
_citation_page_first
_citation_page_last
_citation_journal_id_ASTM
primary 'Journal of the Korean Ceramic Society' 2006 43 1 10 15 JKCSBW
_publ_author_name
;
Kim Jeong Seog;Choi Jinho;Jeong Bong Man;Kang Hyun-Ju
;
_cell_length_a                     14.3548(3)
_cell_length_b                     14.3548(3)
_cell_length_c                     9.596(2)
_cell_angle_alpha                  90.
_cell_angle_beta                   90.
_cell_angle_gamma                  120.
_cell_volume                       1712.44
_cell_formula_units_Z              18
_symmetry_space_group_name_H-M     'R -3 H'
_symmetry_Int_Tables_number        148
_refine_ls_R_factor_all            .0723
loop_
_symmetry_equiv_pos_site_id
_symmetry_equiv_pos_as_xyz
  1	'x-y, x, -z'
  2	'y, -x+y, -z'
  3	'-x, -y, -z'
  4	'-x+y, -x, z'
  5	'-y, x-y, z'
  6	'x, y, z'
  7	'x-y+.6666, x+.3333, -z+.3333'
  8	'x-y+.3333, x+.6666, -z+.6666'
  9	'y+.6666, -x+y+.3333, -z+.3333'
 10	'y+.3333, -x+y+.6666, -z+.6666'
 11	'-x+.6666, -y+.3333, -z+.3333'
 12	'-x+.3333, -y+.6666, -z+.6666'
 13	'-x+y+.6666, -x+.3333, z+.3333'
 14	'-x+y+.3333, -x+.6666, z+.6666'
 15	'-y+.6666, x-y+.3333, z+.3333'
 16	'-y+.3333, x-y+.6666, z+.6666'
 17	'x+.6666, y+.3333, z+.3333'
 18	'x+.3333, y+.6666, z+.6666'
loop_
_atom_type_symbol
_atom_type_oxidation_number
Li1+	1
O2-	-2
W6+	6
loop_
_atom_site_label
_atom_site_type_symbol
_atom_site_symmetry_multiplicity
_atom_site_Wyckoff_symbol
_atom_site_fract_x
_atom_site_fract_y
_atom_site_fract_z
_atom_site_occupancy
_atom_site_attached_hydrogens
_atom_site_B_iso_or_equiv
Li1 Li1+ 18 f -0.0001(23) 0.1591(20) 0.5306(28) 1. 0 0.10(19) 
Li2 Li1+ 18 f -0.0030(24) 0.1827(24) 0.8713(24) 1. 0 0.10(19) 
W1 W6+ 18 f -0.0197(0) 0.1954(1) 0.2524(1) 1. 0 3.02(3) 
O1 O2- 18 f 0.1066(9) 0.1934(9) 0.2763(15) 1. 0 0.51(15) 
O2 O2- 18 f 0.0118(11) 0.3435(9) 0.2188(12) 1. 0 0.51(15) 
O3 O2- 18 f -0.0925(8) 0.1299(9) 0.0578(13) 1. 0 0.51(15) 
O4 O2- 18 f -0.0915(9) 0.1268(9) 0.3962(0) 1. 0 0.51(15) 

#End of data_157427-ICSD


