data_236598-ICSD
#?2014 by Fachinformationszentrum Karlsruhe, and the U.S. Secretary of 
#Commerce on behalf of the United States.  All rights reserved.
_database_code_ICSD                236598
_audit_creation_date               2014/08/01
_chemical_name_systematic          'Diiron Magnesium Dioxo Borate'
_chemical_formula_structural       'Fe2 Mg O2 (B O3)'
_chemical_formula_sum              'B1 Fe2 Mg1 O5'
_chemical_name_mineral             Ludwigite
_publ_section_title
;
Crystal structure and chemical composition of ludwigite from Vranovac 
ore deposit (Boranja Mountain, Serbia)
;
loop_
_citation_id
_citation_journal_abbrev
_citation_year
_citation_journal_volume
_citation_journal_issue
_citation_page_first
_citation_page_last
_citation_journal_id_ASTM
primary 'Acta Geologica Sinica' 2012 86 6 1524 1538 AGSIDP
_publ_author_name
;
Tancic, Pavle;Dimitrijevic, Radovan;Poznanovic, Maja;Pacevski, 
Aleksandar;Sudar, Slobodanka
;
_cell_length_a                     9.4270(10)
_cell_length_b                     12.272(2)
_cell_length_c                     6.1310(10)
_cell_angle_alpha                  90.
_cell_angle_beta                   90.
_cell_angle_gamma                  90.
_cell_volume                       709.28
_cell_formula_units_Z              8
_symmetry_space_group_name_H-M     'P b n m'
_symmetry_Int_Tables_number        62
loop_
_symmetry_equiv_pos_site_id
_symmetry_equiv_pos_as_xyz
  1	'-x+.5, y+.5, z'
  2	'x, y, -z+.5'
  3	'x+.5, -y+.5, z+.5'
  4	'-x, -y, -z'
  5	'x+.5, -y+.5, -z'
  6	'-x, -y, z+.5'
  7	'-x+.5, y+.5, -z+.5'
  8	'x, y, z'
loop_
_atom_type_symbol
_atom_type_oxidation_number
B3+	3
Fe2+	2
Fe3+	3
Mg2+	2
O2-	-2
loop_
_atom_site_label
_atom_site_type_symbol
_atom_site_symmetry_multiplicity
_atom_site_Wyckoff_symbol
_atom_site_fract_x
_atom_site_fract_y
_atom_site_fract_z
_atom_site_occupancy
_atom_site_attached_hydrogens
Fe1 Fe3+ 4 a 0.5 0.5 0 1. 0 
Fe2 Fe3+ 4 c -0.01181(4) 0.49724(4) 0.25 1. 0 
Mg1 Mg2+ 8 d -0.00027(3) 0.72602(3) 0.00271(5) 1. 0 
Fe3 Fe2+ 4 c 0.74967(4) 0.39077(4) 0.25 1. 0 
Fe4 Fe2+ 4 c 0.26023(5) 0.61476(4) 0.25 1. 0 
B1 B3+ 4 c 0.7271(4) 0.6401(3) 0.25 1. 0 
B2 B3+ 4 c 0.2660(4) 0.3629(3) 0.25 1. 0 
O1 O2- 4 c 0.6550(2) 0.542877(19) 0.25 1. 0 
O2 O2- 4 c 0.3416(2) 0.45903(19) 0.25 1. 0 
O3 O2- 8 d 0.11203(16) 0.57852(15) 0.0103(2) 1. 0 
O4 O2- 4 c 0.8751(2) 0.63897(19) 0.25 1. 0 
O5 O2- 4 c 0.1191(2) 0.36268(19) 0.25 1. 0 
O6 O2- 8 d 0.61313(18) 0.35895(13) -0.0029(2) 1. 0 
O7 O2- 4 c 0.1620(2) 0.7643(2) 0.25 1. 0 
O8 O2- 4 c 0.8438(2) 0.2381(2) 0.25 1. 0 

#End of data_236598-ICSD


