data_108816-ICSD
#?2014 by Fachinformationszentrum Karlsruhe, and the U.S. Secretary of 
#Commerce on behalf of the United States.  All rights reserved.
_database_code_ICSD                108816
_audit_creation_date               2007/04/01
_chemical_name_systematic
;
Sodium Dititanium Pentagallium Oxide
;
_chemical_formula_structural       'Na Ti2 Ga5 O12'
_chemical_formula_sum              'Ga5 Na1 O12 Ti2'
_publ_section_title
;
Structural features of a new compound potassium titanium gallium 
oxide (K1-x Ti2+x Ga5-x O12) which exhibits one-dimensional ionic 
conduction
;
loop_
_citation_id
_citation_journal_abbrev
_citation_year
_citation_journal_volume
_citation_page_first
_citation_page_last
_citation_journal_id_ASTM
primary 'Solid State Ionics' 1989 35 369 375 SSIOD3
_publ_author_name
;
Watanabe, M.;Fujiki, Y.;Yoshikado, S.;Ohachi, T.
;
_cell_length_a                     9.265
_cell_length_b                     16.329
_cell_length_c                     2.9843
_cell_angle_alpha                  90.
_cell_angle_beta                   90.
_cell_angle_gamma                  90.
_cell_volume                       451.49
_cell_formula_units_Z              2
_symmetry_space_group_name_H-M     'P b a m'
_symmetry_Int_Tables_number        55
loop_
_symmetry_equiv_pos_site_id
_symmetry_equiv_pos_as_xyz
  1	'x+.5, -y+.5, z'
  2	'-x+.5, y+.5, z'
  3	'x, y, -z'
  4	'-x, -y, -z'
  5	'-x+.5, y+.5, -z'
  6	'x+.5, -y+.5, -z'
  7	'-x, -y, z'
  8	'x, y, z'
loop_
_atom_type_symbol
_atom_type_oxidation_number
Ga3+	3
Na1+	1
O2-	-2
Ti4+	4
loop_
_atom_site_label
_atom_site_type_symbol
_atom_site_symmetry_multiplicity
_atom_site_Wyckoff_symbol
_atom_site_fract_x
_atom_site_fract_y
_atom_site_fract_z
_atom_site_occupancy
_atom_site_attached_hydrogens
Na1 Na1+ 2 d 0 0.5 0.5 1. 0 
Ga1 Ga3+ 2 a 0 0 0 1. 0 
Ga2 Ga3+ 4 g 0.0098(9) 0.2999(5) 0 1. 0 
Ga3 Ga3+ 4 h 0.3069(9) 0.3553(7) 0.5 1. 0 
Ti1 Ti4+ 4 h 0.2294(6) 0.1449(4) 0.5 1. 0 
O1 O2- 4 h 0.1050(19) 0.0513(13) 0.5 1. 0 
O2 O2- 4 g 0.3638(20) 0.1108(14) 0 1. 0 
O3 O2- 4 g 0.1319(22) 0.2059(14) 0 1. 0 
O4 O2- 4 h 0.3902(24) 0.2481(14) 0.5 1. 0 
O5 O2- 4 h 0.1100(22) 0.3534(16) 0.5 1. 0 
O6 O2- 4 g 0.3662(21) 0.4072(14) 0 1. 0 

#End of data_108816-ICSD


