data_154826-ICSD
#?2014 by Fachinformationszentrum Karlsruhe, and the U.S. Secretary of 
#Commerce on behalf of the United States.  All rights reserved.
_database_code_ICSD                154826
_audit_creation_date               2007/04/01
_chemical_name_systematic          'Disilver Dimolybdate'
_chemical_formula_structural       'Ag2 (Mo2 O7)'
_chemical_formula_sum              'Ag2 Mo2 O7'
_publ_section_title
;
A novel three-dimensional inorganic open-framework constructes from 
(Mo4 O16)n(8n-) chains linked through Ag(+)
;
loop_
_citation_id
_citation_journal_abbrev
_citation_year
_citation_journal_volume
_citation_journal_issue
_citation_page_first
_citation_page_last
_citation_journal_id_ASTM
primary 'Jiegon Huaxue' 2005 24 12 1452 1456 JHUADF
_publ_author_name                  'Guo Hongxu;Liu Shixiong'
_cell_length_a                     6.1274(3)
_cell_length_b                     13.1836(6)
_cell_length_c                     7.8780(3)
_cell_angle_alpha                  90.
_cell_angle_beta                   110.673(3)
_cell_angle_gamma                  90.
_cell_volume                       595.42
_cell_formula_units_Z              4
_symmetry_space_group_name_H-M     'P 1 21/c 1'
_symmetry_Int_Tables_number        14
_refine_ls_R_factor_all            .0204
loop_
_symmetry_equiv_pos_site_id
_symmetry_equiv_pos_as_xyz
  1	'x, -y+.5, z+.5'
  2	'-x, -y, -z'
  3	'-x, y+.5, -z+.5'
  4	'x, y, z'
loop_
_atom_type_symbol
_atom_type_oxidation_number
Ag1+	1
Mo6+	6
O2-	-2
loop_
_atom_site_label
_atom_site_type_symbol
_atom_site_symmetry_multiplicity
_atom_site_Wyckoff_symbol
_atom_site_fract_x
_atom_site_fract_y
_atom_site_fract_z
_atom_site_occupancy
_atom_site_attached_hydrogens
_atom_site_U_iso_or_equiv
Mo1 Mo6+ 4 e 0.5178(1) 0.3793(1) 0.3960(1) 1. 0 0.008(1) 
Mo2 Mo6+ 4 e 0.0296(1) 0.5063(1) 0.3020(1) 1. 0 0.008(1) 
Ag1 Ag1+ 4 e 0.4667(1) 0.5966(1) 0.1054(1) 1. 0 0.019(1) 
Ag2 Ag1+ 4 e -0.0742(1) 0.7307(1) -0.0340(1) 1. 0 0.020(1) 
O1 O2- 4 e 0.4389(5) 0.3775(3) 0.1603(4) 1. 0 0.020(1) 
O2 O2- 4 e 0.3540(5) 0.5415(2) 0.3462(4) 1. 0 0.011(1) 
O3 O2- 4 e -0.0971(5) 0.6235(3) 0.2309(4) 1. 0 0.015(1) 
O4 O2- 4 e -0.1802(5) 0.4566(2) 0.4148(4) 1. 0 0.011(1) 
O5 O2- 4 e 0.0608(5) 0.5681(3) -0.1093(4) 1. 0 0.015(1) 
O6 O2- 4 e 0.3361(6) 0.7674(3) 0.0287(5) 1. 0 0.021(1) 
O7 O2- 4 e -0.2435(5) 0.8628(2) 0.0729(4) 1. 0 0.012(1) 

#End of data_154826-ICSD


