data_248035-ICSD
#?2014 by Fachinformationszentrum Karlsruhe, and the U.S. Secretary of 
#Commerce on behalf of the United States.  All rights reserved.
_database_code_ICSD                248035
_audit_creation_date               2010/08/01
_chemical_name_systematic
;
Pentapotassium Triindium(III) Nonadecaselenohexaphosphate(IV)
;
_chemical_formula_structural       'K5 In3 P6 Se19'
_chemical_formula_sum              'In3 K5 P6 Se19'
_publ_section_title
;
Structural diversity by mixing chalcogen atoms in the chalcophosphate 
system K/In/P/Q (Q = S, Se)
;
loop_
_citation_id
_citation_journal_abbrev
_citation_year
_citation_journal_volume
_citation_journal_issue
_citation_page_first
_citation_page_last
_citation_journal_id_ASTM
primary 'Inorganic Chemistry' 2010 49 3 1144 1151 INOCAJ
_publ_author_name
;
Rothenberger, A.;Wang Hsienhau;Chung Duck Young;Kanatzidis, M.G.
;
_cell_length_a                     7.6603(10)
_cell_length_b                     13.1854(16)
_cell_length_c                     18.378(3)
_cell_angle_alpha                  87.040(10)
_cell_angle_beta                   88.659(11)
_cell_angle_gamma                  82.025(10)
_cell_volume                       1835.6
_cell_formula_units_Z              2
_symmetry_space_group_name_H-M     'P -1'
_symmetry_Int_Tables_number        2
_refine_ls_R_factor_all            .0756
loop_
_symmetry_equiv_pos_site_id
_symmetry_equiv_pos_as_xyz
  1	'-x, -y, -z'
  2	'x, y, z'
loop_
_atom_type_symbol
_atom_type_oxidation_number
In3+	3
K1+	1
P4+	4
Se2-	-2
loop_
_atom_site_label
_atom_site_type_symbol
_atom_site_symmetry_multiplicity
_atom_site_Wyckoff_symbol
_atom_site_fract_x
_atom_site_fract_y
_atom_site_fract_z
_atom_site_occupancy
_atom_site_attached_hydrogens
_atom_site_U_iso_or_equiv
In1 In3+ 2 i 0.49428(17) 0.90107(8) 0.67050(7) 1 0 0.0202(3) 
In2 In3+ 2 i 0.75495(17) 0.73573(7) 0.84110(7) 1 0 0.0200(3) 
In3 In3+ 2 i 0.81747(17) 0.56492(7) 0.67777(7) 1 0 0.0202(3) 
Se1 Se2- 2 i 0.7881(2) 0.76072(10) 0.70407(10) 1 0 0.0190(4) 
Se2 Se2- 2 i 0.5439(2) 1.00127(11) 0.78962(11) 1 0 0.0213(4) 
Se3 Se2- 2 i 0.4842(2) 0.79516(11) 0.92279(11) 1 0 0.0208(4) 
Se4 Se2- 2 i 0.2601(3) 1.05050(11) 0.94530(11) 1 0 0.0222(4) 
Se5 Se2- 2 i 0.2614(2) 0.78523(10) 0.72846(11) 1 0 0.0194(4) 
Se6 Se2- 2 i 0.0002(2) 0.82869(11) 0.89679(11) 1 0 0.0211(4) 
Se7 Se2- 2 i -0.0031(2) 1.03555(11) 0.75355(11) 1 0 0.0214(4) 
Se8 Se2- 2 i 0.8201(3) 0.56695(11) 0.92494(11) 1 0 0.0230(4) 
Se9 Se2- 2 i 1.0528(2) 0.46528(11) 0.76517(11) 1 0 0.0213(4) 
Se10 Se2- 2 i 0.9915(2) 0.30569(11) 0.92845(10) 1 0 0.0204(4) 
Se11 Se2- 2 i 0.5208(2) 0.54046(11) 0.75742(11) 1 0 0.0217(4) 
Se12 Se2- 2 i 0.6949(3) 0.26821(11) 0.74274(11) 1 0 0.0237(4) 
Se13 Se2- 2 i 0.4658(3) 0.35868(11) 0.90644(11) 1 0 0.0236(4) 
Se14 Se2- 2 i 1.1597(2) 0.58776(11) 0.60483(11) 1 0 0.0210(4) 
Se15 Se2- 2 i 0.9772(3) 0.69190(11) 0.42957(11) 1 0 0.0231(4) 
Se16 Se2- 2 i 1.3257(2) 0.47346(11) 0.44221(11) 1 0 0.0205(4) 
Se17 Se2- 2 i 0.7269(2) 1.03457(11) 0.60573(11) 1 0 0.0205(4) 
Se18 Se2- 2 i 0.2639(2) 1.06081(11) 0.60766(11) 1 0 0.0213(4) 
Se19 Se2- 2 i 0.4914(3) 1.19967(11) 0.46060(11) 1 0 0.0222(4) 
P1 P4+ 2 i 0.3607(6) 0.9408(3) 0.8683(3) 1 0 0.0183(9) 
P2 P4+ 2 i 0.1376(6) 0.9004(3) 0.8044(3) 1 0 0.0187(9) 
P3 P4+ 2 i 0.8770(6) 0.4303(3) 0.8582(3) 1 0 0.0188(9) 
P4 P4+ 2 i 0.6258(6) 0.3924(3) 0.8133(3) 1 0 0.0202(10) 
P5 P4+ 2 i 1.0903(6) 0.5612(3) 0.4936(3) 1 0 0.0167(9) 
P6 P4+ 2 i 0.4969(6) 1.0661(3) 0.5351(3) 1 0 0.0193(9) 
K1 K1+ 2 i 0.2678(6) 0.5933(3) 0.9245(3) 1 0 0.0279(9) 
K2 K1+ 2 i 0.0496(6) 0.8454(2) 0.5584(3) 1 0 0.0267(9) 
K3 K1+ 2 i 1.2495(6) 0.2161(2) 0.7947(3) 1 0 0.0263(9) 
K4 K1+ 2 i 0.4274(6) 0.3525(3) 0.6089(3) 1 0 0.0285(9) 
K5 K1+ 2 i 0.7621(6) 0.1147(3) 0.9106(3) 1 0 0.0292(10) 

loop_
_atom_site_aniso_label
_atom_site_aniso_type_symbol
_atom_site_aniso_U_11
_atom_site_aniso_U_22
_atom_site_aniso_U_33
_atom_site_aniso_U_12
_atom_site_aniso_U_13
_atom_site_aniso_U_23
In1 In3+ 0.0221(6) 0.0132(4) 0.0236(7) 0.0002(4) 0.0081(6) 0.0035(4)
In2 In3+ 0.0230(6) 0.0124(4) 0.0233(7) -0.0007(4) 0.0077(6) 0.0019(4)
In3 In3+ 0.0265(7) 0.0114(4) 0.0216(7) -0.0010(4) 0.0058(6) 0.0014(4)
Se1 Se2- 0.0206(8) 0.0115(6) 0.0239(10) -0.0005(5) 0.0066(8) 0.0025(6)
Se2 Se2- 0.0237(9) 0.0132(6) 0.0268(10) -0.0039(6) 0.0075(8) 0.0006(6)
Se3 Se2- 0.0224(9) 0.0128(6) 0.0252(10) 0.0010(6) 0.0076(8) 0.0037(6)
Se4 Se2- 0.0297(10) 0.0112(6) 0.0244(10) 0.0003(6) 0.0074(8) -0.0008(6)
Se5 Se2- 0.0221(9) 0.0111(6) 0.0245(10) -0.0019(5) 0.0081(8) -0.0002(6)
Se6 Se2- 0.0231(9) 0.0167(6) 0.0230(10) -0.0039(6) 0.0072(8) 0.0037(6)
Se7 Se2- 0.0221(9) 0.0137(6) 0.0265(10) 0.0007(6) 0.0066(8) 0.0047(6)
Se8 Se2- 0.0327(10) 0.0093(6) 0.0262(10) -0.0018(6) 0.0066(9) 0.0021(6)
Se9 Se2- 0.0224(9) 0.0143(6) 0.0256(10) -0.0006(6) 0.0082(8) 0.0048(6)
Se10 Se2- 0.0257(9) 0.0119(6) 0.0223(10) -0.0008(6) 0.0046(8) 0.0041(6)
Se11 Se2- 0.0254(9) 0.0128(6) 0.0252(10) 0.0007(6) 0.0076(8) 0.0043(6)
Se12 Se2- 0.0291(10) 0.0134(6) 0.0276(11) 0.0002(6) 0.0060(9) -0.0018(6)
Se13 Se2- 0.0265(9) 0.0154(6) 0.0276(11) -0.0023(6) 0.0101(9) 0.0051(6)
Se14 Se2- 0.0249(9) 0.0139(6) 0.0236(10) -0.0021(6) 0.0067(8) 0.0014(6)
Se15 Se2- 0.0284(10) 0.0125(6) 0.0275(10) -0.0022(6) 0.0043(9) 0.0040(6)
Se16 Se2- 0.0213(9) 0.0157(6) 0.0236(10) -0.0008(6) 0.0062(8) 0.0001(6)
Se17 Se2- 0.0209(9) 0.0158(6) 0.0238(10) -0.0019(6) 0.0046(8) 0.0031(6)
Se18 Se2- 0.0230(9) 0.0131(6) 0.0259(10) 0.0005(6) 0.0089(8) 0.0037(6)
Se19 Se2- 0.0312(10) 0.0108(6) 0.0231(10) -0.0003(6) 0.0076(8) 0.0028(6)
P1 P4+ 0.020(2) 0.0114(15) 0.022(2) 0.0004(14) 0.009(2) 0.0028(14)
P2 P4+ 0.022(2) 0.0110(15) 0.022(2) 0.0000(14) 0.005(2) 0.0035(14)
P3 P4+ 0.020(2) 0.0118(15) 0.023(3) -0.0010(14) 0.003(2) 0.0036(15)
P4 P4+ 0.022(2) 0.0104(15) 0.027(3) -0.0012(14) 0.007(2) 0.0043(15)
P5 P4+ 0.020(2) 0.0101(15) 0.020(2) -0.0016(14) 0.0020(19) 0.0020(14)
P6 P4+ 0.024(2) 0.0101(15) 0.022(3) -0.0014(14) 0.006(2) 0.0049(15)
K1 K1+ 0.030(2) 0.0156(14) 0.036(3) -0.0012(13) 0.010(2) 0.0004(14)
K2 K1+ 0.031(2) 0.0151(14) 0.033(2) -0.0009(13) 0.007(2) -0.0016(14)
K3 K1+ 0.028(2) 0.0137(13) 0.036(3) -0.0009(13) 0.011(2) 0.0037(14)
K4 K1+ 0.033(2) 0.0209(15) 0.032(2) -0.0055(14) 0.000(2) 0.0064(15)
K5 K1+ 0.040(2) 0.0159(14) 0.031(2) -0.0058(15) 0.007(2) 0.0036(14)
#End of data_248035-ICSD


