data_180997-ICSD
#?2014 by Fachinformationszentrum Karlsruhe, and the U.S. Secretary of 
#Commerce on behalf of the United States.  All rights reserved.
_database_code_ICSD                180997
_audit_creation_date               2012/02/01
_chemical_name_systematic          'Calcium Dialuminate'
_chemical_formula_structural       'Ca (Al2 O4)'
_chemical_formula_sum              'Al2 Ca1 O4'
_chemical_name_mineral             Krotite
_publ_section_title
;
Krotite, Ca Al2 O4, a new refractory mineral from the NWA 1934 
meteorite
;
loop_
_citation_id
_citation_journal_abbrev
_citation_year
_citation_journal_volume
_citation_journal_issue
_citation_page_first
_citation_page_last
_citation_journal_id_ASTM
primary 'American Mineralogist' 2011 96 5-6 709 715 AMMIAY
_publ_author_name
;
Ma Chi;Kampf, A.R.;Connolly, H.C.jr.;Beckett, J.R.;Rossman, 
G.R.;Sweeney Smith, S.A.;Schrader, D.L.
;
_cell_length_a                     8.6996(3)
_cell_length_b                     8.0994(3)
_cell_length_c                     15.217(1)
_cell_angle_alpha                  90.
_cell_angle_beta                   90.188(6)
_cell_angle_gamma                  90.
_cell_volume                       1072.21
_cell_formula_units_Z              12
_symmetry_space_group_name_H-M     'P 1 21/n 1'
_symmetry_Int_Tables_number        14
_refine_ls_R_factor_all            .0161
loop_
_symmetry_equiv_pos_site_id
_symmetry_equiv_pos_as_xyz
  1	'-x+.5, y+.5, -z+.5'
  2	'-x, -y, -z'
  3	'x+.5, -y+.5, z+.5'
  4	'x, y, z'
loop_
_atom_type_symbol
_atom_type_oxidation_number
Al3+	3
Ca2+	2
O2-	-2
loop_
_atom_site_label
_atom_site_type_symbol
_atom_site_symmetry_multiplicity
_atom_site_Wyckoff_symbol
_atom_site_fract_x
_atom_site_fract_y
_atom_site_fract_z
_atom_site_occupancy
_atom_site_attached_hydrogens
_atom_site_U_iso_or_equiv
Ca1 Ca2+ 4 e 0.23931(6) 0.03429(7) 0.08926(4) 1. 0 0.0126(2) 
Ca2 Ca2+ 4 e 0.26876(6) 0.47015(7) 0.07086(4) 1. 0 0.0138(2) 
Ca3 Ca2+ 4 e 0.73966(7) 0.52887(7) 0.24701(4) 1. 0 0.0180(2) 
Al1 Al3+ 4 e 0.42372(9) 0.32738(10) 0.23832(5) 1. 0 0.0113(2) 
Al2 Al3+ 4 e 0.41960(9) 0.72376(10) 0.23313(5) 1. 0 0.0112(2) 
Al3 Al3+ 4 e 0.59857(9) 0.82885(10) 0.07786(5) 1. 0 0.0112(2) 
Al4 Al3+ 4 e 0.61194(9) 0.21941(10) 0.08071(5) 1. 0 0.0112(2) 
Al5 Al3+ 4 e 0.93519(9) 0.72697(10) 0.09133(5) 1. 0 0.0111(2) 
Al6 Al3+ 4 e 0.93934(9) 0.33446(10) 0.09220(5) 1. 0 0.0112(2) 
O1 O2- 4 e 0.0764(5) 0.2398(2) 0.02364(12) 1. 0 0.0146(5) 
O2 O2- 4 e 0.0158(2) 0.5323(2) 0.11035(12) 1. 0 0.0153(5) 
O3 O2- 4 e 0.0541(2) 0.8643(2) 0.14910(12) 1. 0 0.0151(5) 
O4 O2- 4 e 0.2478(2) 0.2451(2) 0.20288(12) 1. 0 0.0148(5) 
O5 O2- 4 e 0.4360(2) 0.2590(2) 0.02679(12) 1. 0 0.0147(5) 
O6 O2- 4 e 0.4315(2) 0.8532(2) 0.14078(12) 1. 0 0.0147(5) 
O7 O2- 4 e 0.4344(2) 0.5242(2) 0.18865(12) 1. 0 0.0162(5) 
O8 O2- 4 e 0.5843(2) 0.2263(2) 0.19545(12) 1. 0 0.0152(5) 
O9 O2- 4 e 0.6782(2) 0.0226(2) 0.05493(12) 1. 0 0.0165(5) 
O10 O2- 4 e 0.7555(2) 0.3562(2) 0.04659(12) 1. 0 0.0155(5) 
O11 O2- 4 e 0.7469(2) 0.7258(2) 0.13366(12) 1. 0 0.0165(5) 
O12 O2- 4 e 0.9209(2) 0.2454(2) 0.19657(12) 1. 0 0.0158(5) 

loop_
_atom_site_aniso_label
_atom_site_aniso_type_symbol
_atom_site_aniso_U_11
_atom_site_aniso_U_22
_atom_site_aniso_U_33
_atom_site_aniso_U_12
_atom_site_aniso_U_13
_atom_site_aniso_U_23
Ca1 Ca2+ 0.0130(4) 0.0129(3) 0.0119(3) 0.0014(3) 0.0022(3) 0.0009(3)
Ca2 Ca2+ 0.0127(3) 0.0146(3) 0.0141(4) 0.0017(3) -0.0003(3) 0.0006(3)
Ca3 Ca2+ 0.0166(4) 0.0176(4) 0.0198(4) -0.0003(3) -0.0007(3) 0.0004(3)
Al1 Al3+ 0.0110(5) 0.0122(5) 0.0108(5) -0.0001(4) 0.0010(4) -0.0005(4)
Al2 Al3+ 0.0102(5) 0.0129(5) 0.0105(5) 0.0000(4) 0.0011(4) 0.0008(4)
Al3 Al3+ 0.0102(5) 0.0127(5) 0.0107(5) 0.0007(4) 0.0005(4) -0.0002(4)
Al4 Al3+ 0.0107(5) 0.0126(5) 0.0105(5) -0.0005(4) 0.0007(4) -0.0001(4)
Al5 Al3+ 0.0104(5) 0.0127(5) 0.0101(5) -0.0005(4) 0.0005(4) 0.0003(4)
Al6 Al3+ 0.0103(5) 0.0124(5) 0.0110(5) 0.0008(4) 0.0008(4) 0.0002(4)
O1 O2- 0.0147(11) 0.0144(11) 0.0147(11) 0.0004(8) 0.0007(9) 0.0011(9)
O2 O2- 0.0147(11) 0.0146(11) 0.0166(11) 0.0008(9) -0.0026(9) -0.0007(8)
O3 O2- 0.0184(10) 0.0143(11) 0.0127(11) -0.0034(9) 0.0003(8) 0.0007(8)
O4 O2- 0.0130(11) 0.0184(11) 0.0131(11) -0.0012(8) 0.0015(9) -0.0034(8)
O5 O2- 0.0131(11) 0.0172(11) 0.0139(11) 0.0019(8) 0.0003(9) -0.0007(9)
O6 O2- 0.0129(10) 0.0159(11) 0.0154(11) 0.0033(9) 0.0038(9) 0.0031(9)
O7 O2- 0.0205(11) 0.0155(11) 0.0126(11) -0.0010(9) 0.0004(9) 0.0008(8)
O8 O2- 0.0131(11) 0.0192(11) 0.0132(11) 0.0037(9) 0.0003(9) 0.0006(9)
O9 O2- 0.0153(10) 0.0163(11) 0.0179(11) 0.0002(9) 0.0043(9) 0.0003(9)
O10 O2- 0.0147(11) 0.0155(11) 0.0164(11) -0.0004(9) -0.0009(9) 0.0023(9)
O11 O2- 0.0142(11) 0.0209(12) 0.0145(11) 0.0016(9) 0.0012(9) 0.0041(9)
O12 O2- 0.0126(11) 0.0210(11) 0.0138(11) -0.0026(9) 0.0012(9) 0.0013(9)
#End of data_180997-ICSD


