data_414064-ICSD
#?2014 by Fachinformationszentrum Karlsruhe, and the U.S. Secretary of 
#Commerce on behalf of the United States.  All rights reserved.
_database_code_ICSD                414064
_audit_creation_date               2005/10/01
_audit_update_record               2012/02/01
_chemical_name_systematic
;
Dipotassium Bis(tellurato(IV))dioxotris(dioxouranate)
;
_chemical_formula_structural       'K2 ((U O2)3 (Te O3)2 O2)'
_chemical_formula_sum              'K2 O14 Te2 U3'
_publ_section_title
;
Synthesis and crystal structures of the layered uranyl tellurites A2 
((U O2)3 (Te O3)2 O2) (A = K, Rb, Cs)
;
loop_
_citation_id
_citation_journal_abbrev
_citation_year
_citation_journal_volume
_citation_page_first
_citation_page_last
_citation_journal_id_ASTM
primary 'Journal of Solid State Chemistry' 2004 177 3971 3976 JSSCBI
_publ_author_name
;
Woodward, J.D.;Almond, P.M.;Albrecht Schmitt, T.E.
;
_cell_length_a                     6.7989(5)
_cell_length_b                     7.0123(5)
_cell_length_c                     7.8965(6)
_cell_angle_alpha                  101.8520(10)
_cell_angle_beta                   102.9740(10)
_cell_angle_gamma                  100.0810(10)
_cell_volume                       349.25
_cell_formula_units_Z              1
_symmetry_space_group_name_H-M     'P -1'
_symmetry_Int_Tables_number        2
_refine_ls_R_factor_all            .0285
loop_
_symmetry_equiv_pos_site_id
_symmetry_equiv_pos_as_xyz
  1	'-x, -y, -z'
  2	'x, y, z'
loop_
_atom_type_symbol
_atom_type_oxidation_number
K1+	1
O2-	-2
Te4+	4
U6+	6
loop_
_atom_site_label
_atom_site_type_symbol
_atom_site_symmetry_multiplicity
_atom_site_Wyckoff_symbol
_atom_site_fract_x
_atom_site_fract_y
_atom_site_fract_z
_atom_site_occupancy
_atom_site_attached_hydrogens
_atom_site_U_iso_or_equiv
U1 U6+ 1 a 0.0000 0.0000 0.0000 1 0 0.02224(13) 
U2 U6+ 2 i 0.16697(3) -0.39985(3) 0.23580(3) 1 0 0.01154(11) 
Te1 Te4+ 2 i 0.31175(6) 0.16099(6) 0.48238(5) 1 0 0.01246(13) 
K1 K1+ 2 i 0.6020(2) 0.2929(2) 0.1600(2) 1 0 0.0230(3) 
O1 O2- 2 i 0.1980(9) -0.0425(7) 0.2682(7) 1 0 0.0348(14) 
O2 O2- 2 i 0.2525(9) 0.3468(9) 0.3555(8) 1 0 0.0426(16) 
O3 O2- 2 i 0.5905(7) 0.1997(7) 0.4823(6) 1 0 0.0214(10) 
O4 O2- 2 i 0.0114(8) -0.3188(6) -0.0230(6) 1 0 0.0191(10) 
O5 O2- 2 i -0.0543(8) -0.3989(8) 0.3258(7) 1 0 0.0222(11) 
O6 O2- 2 i 0.4022(8) -0.3920(7) 0.1583(6) 1 0 0.0163(10) 
O7 O2- 2 i -0.2335(8) -0.0364(8) 0.0750(9) 1 0 0.0288(13) 

loop_
_atom_site_aniso_label
_atom_site_aniso_type_symbol
_atom_site_aniso_U_11
_atom_site_aniso_U_22
_atom_site_aniso_U_33
_atom_site_aniso_U_12
_atom_site_aniso_U_13
_atom_site_aniso_U_23
U1 U6+ 0.0137(2) 0.0164(2) 0.0432(3) 0.00653(14) 0.00699(17) 0.02028(17)
U2 U6+ 0.01631(16) 0.00756(14) 0.00972(15) 0.00376(10) 0.00145(10) 
0.00135(9)
Te1 Te4+ 0.0168(2) 0.0083(2) 0.0102(2) 0.00270(15) -0.00027(16) 0.00230(15)
K1 K1+ 0.0247(8) 0.0235(8) 0.0246(7) 0.0063(6) 0.0116(6) 0.0083(6)
O1 O2- 0.040(3) 0.019(3) 0.024(3) 0.007(2) -0.017(2) -0.012(2)
O2 O2- 0.059(4) 0.045(3) 0.057(4) 0.038(3) 0.036(3) 0.041(3)
O3 O2- 0.018(2) 0.024(2) 0.019(2) 0.007(2) 0.0011(19) 0.002(2)
O4 O2- 0.030(3) 0.013(2) 0.010(2) 0.0001(18) 0.0008(19) 0.0015(17)
O5 O2- 0.022(3) 0.027(3) 0.018(2) 0.011(2) 0.007(2) 0.001(2)
O6 O2- 0.020(2) 0.015(2) 0.015(2) 0.0012(18) 0.0072(19) 0.0051(18)
O7 O2- 0.022(3) 0.020(3) 0.051(4) 0.005(2) 0.013(3) 0.022(3)
#End of data_414064-ICSD


