data_39218-ICSD
#?2014 by Fachinformationszentrum Karlsruhe, and the U.S. Secretary of 
#Commerce on behalf of the United States.  All rights reserved.
_database_code_ICSD                39218
_audit_creation_date               1990/06/08
_chemical_name_systematic
;
Dirubidium Dimagnesium Decavanadate 16-hydrate
;
_chemical_formula_structural       'Rb2 Mg2 V10 O28 (H2 O)16'
_chemical_formula_sum              'H32 Mg2 O44 Rb2 V10'
_publ_section_title
;
Specifying the crystal structures of magnesium 
hexadecaaquadecavanadates with potassium, ammonium and rubidium
;
loop_
_citation_id
_citation_journal_abbrev
_citation_year
_citation_journal_volume
_citation_page_first
_citation_page_last
_citation_journal_id_ASTM
primary 'Izvestiya Akademii Nauk SSSR, Neorganicheskie Materialy'
 1990 26 350 356 IVNMAW
_publ_author_name
;
Avtamonova, N.V.;Trunov, V.K.;Makarevich, L.G.
;
_cell_length_a                     8.879(2)
_cell_length_b                     10.904(3)
_cell_length_c                     11.052(2)
_cell_angle_alpha                  114.19(2)
_cell_angle_beta                   73.70(1)
_cell_angle_gamma                  108.81(2)
_cell_volume                       910.16
_cell_formula_units_Z              1
_symmetry_space_group_name_H-M     'P -1'
_symmetry_Int_Tables_number        2
_refine_ls_R_factor_all            .042
loop_
_symmetry_equiv_pos_site_id
_symmetry_equiv_pos_as_xyz
  1	'-x, -y, -z'
  2	'x, y, z'
loop_
_atom_type_symbol
_atom_type_oxidation_number
H1+	1
Mg2+	2
O2-	-2
Rb1+	1
V5+	5
loop_
_atom_site_label
_atom_site_type_symbol
_atom_site_symmetry_multiplicity
_atom_site_Wyckoff_symbol
_atom_site_fract_x
_atom_site_fract_y
_atom_site_fract_z
_atom_site_occupancy
_atom_site_attached_hydrogens
_atom_site_B_iso_or_equiv
V1 V5+ 2 i 0.8271(2) 0.0105(1) 0.9825(1) 1. 0 1.14(3) 
V2 V5+ 2 i 0.1214(2) 0.2732(1) 0.0454(1) 1. 0 1.28(3) 
V3 V5+ 2 i 0.1460(2) 0.0455(1) 0.7673(1) 1. 0 1.15(3) 
V4 V5+ 2 i 0.1384(2) 0.2183(1) 0.2968(1) 1. 0 1.46(3) 
V5 V5+ 2 i 0.8177(2) 0.2413(1) 0.2611(1) 1. 0 1.50(3) 
Rb1 Rb1+ 2 i 0.8260(1) 0.5889(1) 0.2754(1) 1. 0 2.12(2) 
Mg1 Mg2+ 2 i 0.2855(5) 0.7674(3) 0.2834(3) 1. 0 1.63(7) 
O1 O2- 2 i 0.9830(8) 0.1442(5) 0.9074(5) 1. 0 1.2(1) 
O2 O2- 2 i 0.7121(8) 0.1197(5) 0.0937(5) 1. 0 1.4(1) 
O3 O2- 2 i 0.2414(8) 0.1259(5) 0.9341(5) 1. 0 1.1(1) 
O4 O2- 2 i 0.7327(8) 0.9169(5) 0.8473(5) 1. 0 1.4(1) 
O5 O2- 2 i 0.9898(8) 0.0982(5) 0.1214(5) 1. 0 1.1(1) 
O6 O2- 2 i 0.216(1) 0.3860(6) 0.9745(5) 1. 0 1.9(2) 
O7 O2- 2 i 0.2257(9) 0.3239(6) 0.1859(6) 1. 0 1.7(1) 
O8 O2- 2 i 0.9442(9) 0.3407(6) 0.1541(5) 1. 0 1.5(1) 
O9 O2- 2 i 0.9909(9) 0.9411(6) 0.6631(5) 1. 0 1.5(1) 
O10 O2- 2 i 0.246(1) 0.1589(6) 0.6976(6) 1. 0 1.9(1) 
O11 O2- 2 i 0.7281(8) 0.0782(5) 0.3058(5) 1. 0 1.4(1) 
O12 O2- 2 i 0.967(1) 0.3016(5) 0.3710(5) 1. 0 1.7(1) 
O13 O2- 2 i 0.250(1) 0.2914(7) 0.4108(6) 1. 0 2.5(2) 
O14 O2- 2 i 0.685(1) 0.3306(6) 0.3502(6) 1. 0 2.3(2) 
O15 O2- 2 i 0.443(1) 0.6414(8) 0.1761(7) 1. 0 3.2(2) 
O16 O2- 2 i 0.140(1) 0.6089(6) 0.3556(6) 1. 0 1.8(2) 
O17 O2- 2 i 0.4177(9) 0.8454(7) 0.4350(6) 1. 0 2.4(2) 
O18 O2- 2 i 0.420(1) 0.9304(7) 0.2166(8) 1. 0 3.8(2) 
O19 O2- 2 i 0.163(1) 0.6845(6) 0.1240(6) 1. 0 2.3(2) 
O20 O2- 2 i 0.110(1) 0.8732(6) 0.3927(6) 1. 0 2.2(2) 
O21 O2- 2 i 0.424(1) 0.6589(7) 0.8971(7) 1. 0 3.3(2) 
O22 O2- 2 i 0.483(1) 0.5576(7) 0.3773(7) 1. 0 2.9(2) 
H1 H1+ 2 i 0.45(2) 0.62(1) 0.07(1) 1. 0 8.(5) 
H2 H1+ 2 i 0.51(2) 0.65(1) 0.16(1) 1. 0 9.(5) 
H3 H1+ 2 i 0.16(2) 0.54(1) 0.31(1) 1. 0 5.(3) 
H4 H1+ 2 i 0.10(2) 0.63(1) 0.45(1) 1. 0 5.(3) 
H5 H1+ 2 i 0.50(2) 0.83(1) 0.42(1) 1. 0 4.(3) 
H6 H1+ 2 i 0.37(2) 0.87(1) 0.52(1) 1. 0 6.(4) 
H7 H1+ 2 i 0.49(2) 0.98(2) 0.24(2) 1. 0 10.(6) 
H8 H1+ 2 i 0.37(2) 0.99(1) 0.18(1) 1. 0 8.(5) 
H9 H1+ 2 i 0.14(2) 0.74(1) 0.12(1) 1. 0 3.(3) 
H10 H1+ 2 i 0.19(2) 0.63(1) 0.07(1) 1. 0 6.(4) 
H11 H1+ 2 i 0.08(2) 0.90(1) 0.48(1) 1. 0 4.(3) 
H12 H1+ 2 i 0.10(2) 0.94(1) 0.38(1) 1. 0 4.(3) 
H13 H1+ 2 i 0.57(2) 0.26(1) 0.09(1) 1. 0 5.(4) 
H14 H1+ 2 i 0.46(2) 0.35(1) 0.13(1) 1. 0 4.(3) 
H15 H1+ 2 i 0.43(2) 0.48(1) 0.37(1) 1. 0 7.(5) 
H16 H1+ 2 i 0.53(2) 0.38(1) 0.54(1) 1. 0 8.(5) 

#End of data_39218-ICSD


