data_173363-ICSD
#?2014 by Fachinformationszentrum Karlsruhe, and the U.S. Secretary of 
#Commerce on behalf of the United States.  All rights reserved.
_database_code_ICSD                173363
_audit_creation_date               2008/08/01
_chemical_name_systematic
;
Tetrapotassium Nonafluorodititanophospate
;
_chemical_formula_structural       'K4 (Ti2 P O4 F9)'
_chemical_formula_sum              'F9 K4 O4 P1 Ti2'
_publ_section_title
;
Syntheses and structural characterization of a series of one - 
dimensional fluorotitanophosphates (N H4)(x) K(4-x) [Ti2 P O4 F9] (x 
= 0, 0.70, 1.00, 1.25)
;
loop_
_citation_id
_citation_journal_abbrev
_citation_year
_citation_journal_volume
_citation_journal_issue
_citation_page_first
_citation_page_last
_citation_journal_id_ASTM
primary 'Inorganic Chemistry' 2007 46 26 11431 11436 INOCAJ
_publ_author_name
;
Yang Sihai;Li Guo Bao;Li Lei;Tian Shujian;Liao Fuhui;Xiong Ming;Lin 
Jian Hua
;
_cell_length_a                     5.8402(12)
_cell_length_b                     11.000(2)
_cell_length_c                     19.436(4)
_cell_angle_alpha                  90.00
_cell_angle_beta                   90.87(3)
_cell_angle_gamma                  90.00
_cell_volume                       1248.47
_cell_formula_units_Z              4
_symmetry_space_group_name_H-M     'P 1 21/n 1'
_symmetry_Int_Tables_number        14
_refine_ls_R_factor_all            .0311
loop_
_symmetry_equiv_pos_site_id
_symmetry_equiv_pos_as_xyz
  1	'-x+.5, y+.5, -z+.5'
  2	'-x, -y, -z'
  3	'x+.5, -y+.5, z+.5'
  4	'x, y, z'
loop_
_atom_type_symbol
_atom_type_oxidation_number
F1-	-1
K1+	1
O2-	-2
P5+	5
Ti4+	4
loop_
_atom_site_label
_atom_site_type_symbol
_atom_site_symmetry_multiplicity
_atom_site_Wyckoff_symbol
_atom_site_fract_x
_atom_site_fract_y
_atom_site_fract_z
_atom_site_occupancy
_atom_site_attached_hydrogens
_atom_site_U_iso_or_equiv
Ti1 Ti4+ 2 a 0.0000 0.0000 0.0000 1 0 0.01178(13) 
Ti2 Ti4+ 4 e -0.47465(8) -0.25376(4) 0.24501(2) 1 0 0.01363(11) 
Ti3 Ti4+ 2 c 0.0000 -0.5000 0.0000 1 0 0.01266(13) 
K1 K1+ 4 e 0.47184(10) -0.23098(6) 0.01593(3) 1 0 0.02016(13) 
K2 K1+ 4 e -0.48645(13) -0.54415(6) 0.15070(4) 1 0 0.02734(15) 
K3 K1+ 4 e -0.48874(12) 0.04709(6) 0.16647(3) 1 0 0.02432(14) 
K4 K1+ 4 e 0.01194(11) -0.24392(7) 0.13982(4) 1 0 0.02674(15) 
P1 P5+ 4 e 0.04598(11) 0.25240(6) 0.09174(3) 1 0 0.01210(13) 
F1 F1- 4 e 0.2157(3) -0.03866(17) 0.06812(10) 1 0 0.0297(4) 
F2 F1- 4 e -0.2285(4) -0.0576(2) 0.05741(11) 1 0 0.0351(5) 
F3 F1- 4 e -0.2562(3) -0.37266(15) 0.22427(9) 1 0 0.0207(3) 
F4 F1- 4 e -0.7057(3) -0.36811(18) 0.23815(10) 1 0 0.0275(4) 
F5 F1- 4 e -0.5131(3) -0.2299(2) 0.14907(9) 1 0 0.0318(4) 
F6 F1- 4 e -0.6866(3) -0.13277(18) 0.25745(11) 1 0 0.0322(4) 
F7 F1- 4 e -0.2398(3) -0.13834(17) 0.24030(10) 1 0 0.0271(4) 
F8 F1- 4 e -0.2141(3) -0.40197(16) 0.04359(10) 1 0 0.0265(4) 
F9 F1- 4 e 0.2274(3) -0.42870(17) 0.05583(10) 1 0 0.0279(4) 
O1 O2- 4 e 0.3002(3) 0.25064(18) 0.10003(10) 1 0 0.0197(4) 
O2 O2- 4 e -0.0419(4) 0.16177(18) 0.03606(10) 1 0 0.0210(4) 
O3 O2- 4 e -0.0525(4) 0.37762(17) 0.06960(10) 1 0 0.0203(4) 
O4 O2- 4 e -0.0797(4) 0.21892(19) 0.15909(10) 1 0 0.0203(4) 

loop_
_atom_site_aniso_label
_atom_site_aniso_type_symbol
_atom_site_aniso_U_11
_atom_site_aniso_U_22
_atom_site_aniso_U_33
_atom_site_aniso_U_12
_atom_site_aniso_U_13
_atom_site_aniso_U_23
Ti1 Ti4+ 0.0145(3) 0.0093(3) 0.0115(3) 0.0003(2) -0.0023(2) -0.0013(2)
Ti2 Ti4+ 0.0163(2) 0.0123(2) 0.0122(2) -0.00008(16) -0.00109(15) 
-0.00042(15)
Ti3 Ti4+ 0.0155(3) 0.0078(3) 0.0147(3) 0.0008(2) -0.0014(2) 0.0001(2)
K1 K1+ 0.0201(3) 0.0239(3) 0.0165(3) 0.0028(2) 0.00033(19) 0.0001(2)
K2 K1+ 0.0332(4) 0.0214(3) 0.0272(3) -0.0033(3) -0.0078(3) -0.0033(2)
K3 K1+ 0.0292(3) 0.0208(3) 0.0228(3) 0.0012(2) -0.0059(2) -0.0007(2)
K4 K1+ 0.0229(3) 0.0318(3) 0.0255(3) -0.0003(3) 0.0027(2) 0.0028(3)
P1 P5+ 0.0176(3) 0.0084(3) 0.0102(3) -0.0005(2) -0.0019(2) -0.0006(2)
F1 F1- 0.0376(10) 0.0222(9) 0.0286(9) 0.0092(8) -0.0207(8) -0.0073(7)
F2 F1- 0.0348(11) 0.0336(11) 0.0373(11) -0.0138(9) 0.0150(9) -0.0049(9)
F3 F1- 0.0245(8) 0.0166(8) 0.0210(8) 0.0053(6) 0.0016(6) -0.0023(6)
F4 F1- 0.0244(9) 0.0255(9) 0.0326(10) -0.0107(7) -0.0017(7) -0.0004(7)
F5 F1- 0.0358(10) 0.0446(12) 0.0147(8) -0.0026(9) -0.0047(7) 0.0067(8)
F6 F1- 0.0335(11) 0.0254(9) 0.0380(11) 0.0155(8) 0.0068(8) 0.0062(8)
F7 F1- 0.0281(9) 0.0192(8) 0.0340(10) -0.0093(7) 0.0011(7) -0.0031(7)
F8 F1- 0.0306(10) 0.0199(8) 0.0293(9) 0.0115(7) 0.0066(7) 0.0016(7)
F9 F1- 0.0284(9) 0.0265(9) 0.0284(9) -0.0093(7) -0.0108(7) 0.0011(7)
O1 O2- 0.0175(9) 0.0221(10) 0.0194(9) 0.0000(8) -0.0019(7) -0.0019(8)
O2 O2- 0.0292(11) 0.0128(8) 0.0207(9) 0.0047(8) -0.0099(8) -0.0069(7)
O3 O2- 0.0306(11) 0.0098(8) 0.0204(9) 0.0037(7) 0.0033(8) 0.0030(7)
O4 O2- 0.0236(10) 0.0241(10) 0.0133(8) -0.0056(8) -0.0001(7) 0.0036(7)
#End of data_173363-ICSD


