data_26591-ICSD
#?2014 by Fachinformationszentrum Karlsruhe, and the U.S. Secretary of 
#Commerce on behalf of the United States.  All rights reserved.
_database_code_ICSD                26591
_audit_creation_date               1980/01/01
_audit_update_record               2012/02/01
_chemical_name_systematic          'Potassium Trioxochlorochromate'
_chemical_formula_structural       'K (Cr O3 Cl)'
_chemical_formula_sum              'Cl1 Cr1 K1 O3'
_publ_section_title
;
The crystal structure of potassium chlorochromate, K Cr O3 Cl
;
loop_
_citation_id
_citation_journal_abbrev
_citation_year
_citation_journal_volume
_citation_page_first
_citation_page_last
_citation_journal_id_ASTM
primary 'Journal of the American Chemical Society' 1950 72 4971 4974 JACSAT
2 'Golden Book of Phase Transitions, Wroclaw' 2002 1 1 123 GBOPT5
_publ_author_name                  'Helmholz, L.;Foster, W.R.'
_cell_length_a                     7.79(2)
_cell_length_b                     7.50(2)
_cell_length_c                     7.80(2)
_cell_angle_alpha                  90.
_cell_angle_beta                   91.33
_cell_angle_gamma                  90.
_cell_volume                       455.59
_cell_formula_units_Z              4
_symmetry_space_group_name_H-M     'P 1 21/c 1'
_symmetry_Int_Tables_number        14
loop_
_symmetry_equiv_pos_site_id
_symmetry_equiv_pos_as_xyz
  1	'x, -y+.5, z+.5'
  2	'-x, -y, -z'
  3	'-x, y+.5, -z+.5'
  4	'x, y, z'
loop_
_atom_type_symbol
_atom_type_oxidation_number
Cl1-	-1
Cr6+	6
K1+	1
O2-	-2
loop_
_atom_site_label
_atom_site_type_symbol
_atom_site_symmetry_multiplicity
_atom_site_Wyckoff_symbol
_atom_site_fract_x
_atom_site_fract_y
_atom_site_fract_z
_atom_site_occupancy
_atom_site_attached_hydrogens
Cr1 Cr6+ 4 e 0.220(3) 0.127(3) 0.117(3) 1. 0 
Cl1 Cl1- 4 e 0.455(3) 0.280(3) 0.133(3) 1. 0 
O1 O2- 4 e 0.228(5) 0.005(5) -.032(5) 1. 0 
O2 O2- 4 e 0.211(5) 0.005(5) 0.275(5) 1. 0 
O3 O2- 4 e 0.060(5) 0.245(5) 0.110(5) 1. 0 
K1 K1+ 4 e 0.200(5) 0.630(5) 0.130(5) 1. 0 

#End of data_26591-ICSD


