data_48198-ICSD
#?2014 by Fachinformationszentrum Karlsruhe, and the U.S. Secretary of 
#Commerce on behalf of the United States.  All rights reserved.
_database_code_ICSD                48198
_audit_creation_date               1986/04/14
_chemical_name_systematic          'Pentapotassium Trivanadate'
_chemical_formula_structural       'K5 V3 O10'
_chemical_formula_sum              'K5 O10 V3'
_publ_section_title
;
Pentapotassium Trivanadate, K5 V3 O10
;
loop_
_citation_id
_citation_journal_abbrev
_citation_year
_citation_journal_volume
_citation_page_first
_citation_page_last
_citation_journal_id_ASTM
primary 'Acta Crystallographica, Section C: Crystal Structure Communications'
 1985 41 647 649 ACSCEE
_publ_author_name                  'Kato, K.;Takayama Muromachi, E.'
_cell_length_a                     8.1757(6)
_cell_length_b                     8.1757(6)
_cell_length_c                     18.7313(7)
_cell_angle_alpha                  90.
_cell_angle_beta                   90.
_cell_angle_gamma                  90.
_cell_volume                       1252.04
_cell_formula_units_Z              4
_symmetry_space_group_name_H-M     'P 41 21 2'
_symmetry_Int_Tables_number        92
_refine_ls_R_factor_all            .064
loop_
_symmetry_equiv_pos_site_id
_symmetry_equiv_pos_as_xyz
  1	'x+.5, -y+.5, -z+.75'
  2	'-x+.5, y+.5, -z+.25'
  3	'-y, -x, -z+.5'
  4	'y, x, -z'
  5	'y+.5, -x+.5, z+.75'
  6	'-y+.5, x+.5, z+.25'
  7	'-x, -y, z+.5'
  8	'x, y, z'
loop_
_atom_type_symbol
_atom_type_oxidation_number
K1+	1
O2-	-2
V5+	5
loop_
_atom_site_label
_atom_site_type_symbol
_atom_site_symmetry_multiplicity
_atom_site_Wyckoff_symbol
_atom_site_fract_x
_atom_site_fract_y
_atom_site_fract_z
_atom_site_occupancy
_atom_site_attached_hydrogens
_atom_site_B_iso_or_equiv
K1 K1+ 4 a 0.2363(3) 0.2363(3) 0 1. 0 1.70(5) 
K2 K1+ 8 b 0.0000(3) -.0273(1) 0.1117(1) 1. 0 2.30(5) 
K3 K1+ 8 b -.0231(4) 0.4886(3) 0.1175(1) 1. 0 2.19(5) 
V1 V5+ 4 a -.1910(2) 0.1910(2) 0.25 1. 0 1.26(4) 
V2 V5+ 8 b 0.2319(2) 0.2302(2) 0.23221(7) 1. 0 1.07(2) 
O1 O2- 8 b -.258(1) 0.275(1) 0.1777(3) 1. 0 3.4(2) 
O2 O2- 8 b 0.0204(9) 0.229(1) 0.2606(5) 1. 0 4.7(2) 
O3 O2- 8 b 0.2396(9) 0.2303(8) 0.1435(3) 1. 0 2.1(1) 
O4 O2- 8 b 0.322(1) 0.0618(8) 0.2627(4) 1. 0 2.9(2) 
O5 O2- 8 b 0.3113(9) 0.4017(8) 0.2632(4) 1. 0 2.2(1) 

#End of data_48198-ICSD


