data_62294-ICSD
#?2014 by Fachinformationszentrum Karlsruhe, and the U.S. Secretary of 
#Commerce on behalf of the United States.  All rights reserved.
_database_code_ICSD                62294
_audit_creation_date               1988/07/15
_chemical_name_systematic
;
Dipotassium Dimanganese(II) Tris(molybdate(VI))
;
_chemical_formula_structural       'K2 Mn2 (Mo O4)3'
_chemical_formula_sum              'K2 Mn2 Mo3 O12'
_publ_section_title
;
Synthesis and crystal structure of the double molybdate K2 Mn2 (Mo 
O4)3
;
loop_
_citation_id
_citation_journal_abbrev
_citation_year
_citation_journal_volume
_citation_page_first
_citation_page_last
_citation_journal_id_ASTM
primary Kristallografiya 1986 31 440 445 KRISAJ
2 'Soviet Physics, Crystallography (= Kristallografiya)'
 1986 31 258 261 SPHCA6
_publ_author_name
;
Solodovnikov, S.F.;Klevtsov, P.V.;Klevtsova, R.F.
;
_cell_length_a                     10.698(2)
_cell_length_b                     12.292(2)
_cell_length_c                     18.060(6)
_cell_angle_alpha                  90.
_cell_angle_beta                   90.
_cell_angle_gamma                  90.
_cell_volume                       2374.89
_cell_formula_units_Z              8
_symmetry_space_group_name_H-M     'P c c a'
_symmetry_Int_Tables_number        54
_refine_ls_R_factor_all            .068
loop_
_symmetry_equiv_pos_site_id
_symmetry_equiv_pos_as_xyz
  1	'x, -y, z+.5'
  2	'-x+.5, y, z+.5'
  3	'x+.5, y, -z'
  4	'-x, -y, -z'
  5	'-x, y, -z+.5'
  6	'x+.5, -y, -z+.5'
  7	'-x+.5, -y, z'
  8	'x, y, z'
loop_
_atom_type_symbol
_atom_type_oxidation_number
K1+	1
Mn2+	2
Mo6+	6
O2-	-2
loop_
_atom_site_label
_atom_site_type_symbol
_atom_site_symmetry_multiplicity
_atom_site_Wyckoff_symbol
_atom_site_fract_x
_atom_site_fract_y
_atom_site_fract_z
_atom_site_occupancy
_atom_site_attached_hydrogens
_atom_site_U_iso_or_equiv
Mo1 Mo6+ 8 f 0.0475(1) 0.0234(1) 0.1161(1) 1. 0 0.0064 
Mo2 Mo6+ 8 f 0.4241(1) 0.3572(1) 0.0871(1) 1. 0 0.006 
Mo3 Mo6+ 8 f 0.2195(1) 0.3005(1) 0.2952(1) 1. 0 0.0076 
Mn1 Mn2+ 8 f 0.0845(2) 0.3245(2) 0.0974(1) 1. 0 0.0079 
Mn2 Mn2+ 4 d 0.25 0 0.2856(2) 1. 0 0.0065 
Mn3 Mn2+ 4 c 0.5 0.1673(3) 0.25 1. 0 0.0078 
K1 K1+ 8 f 0.2747(4) 0.1510(3) 0.4620(2) 1. 0 0.0184 
K2 K1+ 4 e 0.25 0.5 0.4439(3) 1. 0 0.0265 
K3 K1+ 4 c 0.5 0.4964(5) 0.25 1. 0 0.015 
O1 O2- 8 f 0.1166(13) 0.0250(13) 0.3740(7) 1. 0 0.0189 
O2 O2- 8 f 0.3917(11) 0.0257(11) 0.2026(7) 1. 0 0.0135 
O3 O2- 8 f 0.4116(15) 0.0701(12) 0.0466(8) 1. 0 0.0223 
O4 O2- 8 f 0.1065(12) 0.1528(10) 0.0946(8) 1. 0 0.0177 
O5 O2- 8 f 0.4411(12) 0.4978(11) 0.1015(7) 1. 0 0.017 
O6 O2- 8 f 0.4387(11) 0.2837(11) 0.1718(6) 1. 0 0.0131 
O7 O2- 8 f 0.4636(12) 0.3168(12) 0.4790(7) 1. 0 0.0166 
O8 O2- 8 f 0.2723(11) 0.3368(13) 0.0492(7) 1. 0 0.0164 
O9 O2- 8 f 0.3021(12) 0.1727(9) 0.2976(7) 1. 0 0.0124 
O10 O2- 8 f 0.3253(13) 0.4045(11) 0.3190(9) 1. 0 0.0204 
O11 O2- 8 f 0.1071(12) 0.3005(12) 0.3671(7) 1. 0 0.0169 
O12 O2- 8 f 0.1501(13) 0.3309(12) 0.2096(7) 1. 0 0.0182 

#End of data_62294-ICSD


