data_165210-ICSD
#?2014 by Fachinformationszentrum Karlsruhe, and the U.S. Secretary of 
#Commerce on behalf of the United States.  All rights reserved.
_database_code_ICSD                165210
_audit_creation_date               2010/02/01
_chemical_name_systematic          'Dilithium Hexafluoruthenate(IV)'
_chemical_formula_structural       'Li2 (Ru F6)'
_chemical_formula_sum              'F6 Li2 Ru1'
_publ_section_title
;
M-F interatomic distances and effective volumes of second and third 
transition series (M F6)- and (M F6)2- anions
;
loop_
_citation_id
_citation_journal_abbrev
_citation_year
_citation_journal_volume
_citation_journal_issue
_citation_page_first
_citation_page_last
_citation_journal_id_ASTM
primary 'Inorganic Chemistry' 2000 39 13 2794 2800 INOCAJ
_publ_author_name
;
Graudejus, O.;Wilkinson, A.P.;Chacon, L.C.;Bartlett, N.
;
_cell_length_a                     4.64358(6)
_cell_length_b                     4.64358(6)
_cell_length_c                     9.1090(4)
_cell_angle_alpha                  90.
_cell_angle_beta                   90.
_cell_angle_gamma                  90.
_cell_volume                       196.42
_cell_formula_units_Z              2
_symmetry_space_group_name_H-M     'P 42/m n m'
_symmetry_Int_Tables_number        136
_refine_ls_R_factor_all            .096
loop_
_symmetry_equiv_pos_site_id
_symmetry_equiv_pos_as_xyz
  1	'-y+.5, x+.5, -z+.5'
  2	'y+.5, -x+.5, -z+.5'
  3	'y, x, -z'
  4	'-y, -x, -z'
  5	'y+.5, -x+.5, z+.5'
  6	'-y+.5, x+.5, z+.5'
  7	'-y, -x, z'
  8	'y, x, z'
  9	'x+.5, -y+.5, -z+.5'
 10	'-x+.5, y+.5, -z+.5'
 11	'x, y, -z'
 12	'-x, -y, -z'
 13	'-x+.5, y+.5, z+.5'
 14	'x+.5, -y+.5, z+.5'
 15	'-x, -y, z'
 16	'x, y, z'
loop_
_atom_type_symbol
_atom_type_oxidation_number
F1-	-1
Li1+	1
Ru4+	4
loop_
_atom_site_label
_atom_site_type_symbol
_atom_site_symmetry_multiplicity
_atom_site_Wyckoff_symbol
_atom_site_fract_x
_atom_site_fract_y
_atom_site_fract_z
_atom_site_occupancy
_atom_site_attached_hydrogens
_atom_site_U_iso_or_equiv
Li1 Li1+ 4 e 0 0 0.334(3) 1. 0 0.05 
Ru1 Ru4+ 2 a 0 0 0 1. 0 0.076(9) 
F1 F1- 8 j 0.305(1) 0.305(1) 0.6587(7) 1. 0 0.015(3) 
F2 F1- 4 f 0.289(2) 0.289(2) 0 1. 0 0.011(5) 

#End of data_165210-ICSD


