data_279617-ICSD
#?2014 by Fachinformationszentrum Karlsruhe, and the U.S. Secretary of 
#Commerce on behalf of the United States.  All rights reserved.
_database_code_ICSD                279617
_audit_creation_date               2002/10/01
_chemical_name_systematic
;
Potassium Lanthanum Hexathiodiphosphate(IV) Tetrathiophosphate(V) 
(2/1/0.5/1)
;
_chemical_formula_structural       'K2 La (P2 S6)0.5 (P S4)'
_chemical_formula_sum              'K2 La1 P2 S7'
_publ_section_title
;
Thiophosphhate phase diagrams developed in conjunction with the 
synthesis of the new compounds K La P2 S6, K2 La (P2 S6)1/2 (P S4), 
k3 La (P S4)2, K4 La0.67 (P S4)2, K9-x La1+x/3 (P S4)4 (x = 0.5), K4 
Eu (P S4)2, and K Eu P S4
;
loop_
_citation_id
_citation_journal_abbrev
_citation_year
_citation_journal_volume
_citation_page_first
_citation_page_last
_citation_journal_id_ASTM
primary 'Inorganic Chemistry' 2001 40 2884 2891 INOCAJ
_publ_author_name                  'Evenson, C.R.IV.;Dorhout, P.K.'
_cell_length_a                     9.066(6)
_cell_length_b                     6.793(3)
_cell_length_c                     20.112(7)
_cell_angle_alpha                  90.
_cell_angle_beta                   97.54(3)
_cell_angle_gamma                  90.
_cell_volume                       1227.89
_cell_formula_units_Z              4
_symmetry_space_group_name_H-M     'P 1 21/n 1'
_symmetry_Int_Tables_number        14
_refine_ls_R_factor_all            .0493
loop_
_symmetry_equiv_pos_site_id
_symmetry_equiv_pos_as_xyz
  1	'-x+.5, y+.5, -z+.5'
  2	'-x, -y, -z'
  3	'x+.5, -y+.5, z+.5'
  4	'x, y, z'
loop_
_atom_type_symbol
_atom_type_oxidation_number
K1+	1
La3+	3
P4+	4
P5+	5
S2-	-2
loop_
_atom_site_label
_atom_site_type_symbol
_atom_site_symmetry_multiplicity
_atom_site_Wyckoff_symbol
_atom_site_fract_x
_atom_site_fract_y
_atom_site_fract_z
_atom_site_occupancy
_atom_site_attached_hydrogens
La1 La3+ 4 e 0.31090(5) 0.97704(6) 0.15048(2) 1. 0 
P1 P5+ 4 e 0.0943(2) 0.5158(3) 0.16784(9) 1. 0 
P2 P4+ 4 e 0.5847(2) 0.0101(3) 0.04420(9) 1. 0 
S1 S2- 4 e 0.2224(2) 0.9695(3) -.00603(9) 1. 0 
S2 S2- 4 e 0.3046(2) 0.5650(3) 0.21716(10) 1. 0 
S3 S2- 4 e 0.5499(2) 0.9932(3) 0.26298(9) 1. 0 
S4 S2- 4 e 0.0802(3) 0.2754(3) 0.10816(11) 1. 0 
S5 S2- 4 e 0.5591(3) 0.7637(3) 0.09900(11) 1. 0 
S6 S2- 4 e 0.5305(2) 0.2489(3) 0.09629(11) 1. 0 
S7 S2- 4 e 0.0386(3) 0.7485(3) 0.10673(11) 1. 0 
K1 K1+ 4 e -.1508(2) 0.0262(3) 0.19179(10) 1. 0 
K2 K1+ 4 e 0.7606(2) 0.5110(3) 0.00942(8) 1. 0 

loop_
_atom_site_aniso_label
_atom_site_aniso_type_symbol
_atom_site_aniso_U_11
_atom_site_aniso_U_22
_atom_site_aniso_U_33
_atom_site_aniso_U_12
_atom_site_aniso_U_13
_atom_site_aniso_U_23
La1 La3+ 0.0126(2) 0.0140(3) 0.0091(2) -.0009(2) 0.0017(2) 0.0005(2)
P1 P5+ 0.0142(11) 0.0140(11) 0.0106(9) -.0019(9) 0.0030(8) -.0006(9)
P2 P4+ 0.0147(11) 0.0101(11) 0.0112(9) -.0005(9) 0.0024(8) -.0002(9)
S1 S2- 0.0116(10) 0.0209(11) 0.0149(10) -.0016(9) 0.0029(8) -.0006(9)
S2 S2- 0.0140(11) 0.0152(11) 0.0136(10) -.0010(8) 0.0020(8) 0.0021(8)
S3 S2- 0.0142(10) 0.0320(13) 0.0120(9) 0.0014(10) 0.0034(8) 0.0004(10)
S4 S2- 0.0264(14) 0.0141(11) 0.0188(12) 0.0009(9) 0.0022(10) -.0038(9)
S5 S2- 0.0230(13) 0.0139(11) 0.0138(11) 0.0039(9) 0.0063(9) 0.0037(9)
S6 S2- 0.0198(13) 0.0114(10) 0.0140(11) -.0025(9) 0.0037(9) -.0017(8)
S7 S2- 0.0204(13) 0.0150(11) 0.0179(12) -.0010(9) -.0013(10) 0.0023(9)
K1 K1+ 0.0191(10) 0.0348(12) 0.0336(11) -.0053(10) 0.0072(8) -.0061(10)
K2 K1+ 0.0245(10) 0.015(1) 0.0229(9) -.0006(9) 0.0080(8) -.0001(8)
#End of data_279617-ICSD


