data_28061-ICSD
#?2014 by Fachinformationszentrum Karlsruhe, and the U.S. Secretary of 
#Commerce on behalf of the United States.  All rights reserved.
_database_code_ICSD                28061
_audit_creation_date               1980/01/01
_audit_update_record               2012/08/01
_chemical_name_systematic
;
Disodium Pentafluoroantimonate(III)
;
_chemical_formula_structural       'Na2 (Sb F5)'
_chemical_formula_sum              'F5 Na2 Sb1'
_publ_section_title
;
Etude structurale du pentafluoroantimonate(III) de sodium
;
loop_
_citation_id
_citation_journal_abbrev
_citation_year
_citation_journal_volume
_citation_page_first
_citation_page_last
_citation_journal_id_ASTM
primary 'Revue de Chimie Minerale' 1974 11 481 488 RVCMA8
_publ_author_name
;
Fourcade, R.;Mascherpa, G.;Philippot, E.;Maurin, M.
;
_cell_length_a                     5.451(3)
_cell_length_b                     11.234(5)
_cell_length_c                     8.083(3)
_cell_angle_alpha                  90.
_cell_angle_beta                   90.
_cell_angle_gamma                  90.
_cell_volume                       494.97
_cell_formula_units_Z              4
_symmetry_space_group_name_H-M     'P 21 21 21'
_symmetry_Int_Tables_number        19
_refine_ls_R_factor_all            .085
loop_
_symmetry_equiv_pos_site_id
_symmetry_equiv_pos_as_xyz
  1	'-x, y+.5, -z+.5'
  2	'x+.5, -y+.5, -z'
  3	'-x+.5, -y, z+.5'
  4	'x, y, z'
loop_
_atom_type_symbol
_atom_type_oxidation_number
F1-	-1
Na1+	1
Sb3+	3
loop_
_atom_site_label
_atom_site_type_symbol
_atom_site_symmetry_multiplicity
_atom_site_Wyckoff_symbol
_atom_site_fract_x
_atom_site_fract_y
_atom_site_fract_z
_atom_site_occupancy
_atom_site_attached_hydrogens
_atom_site_B_iso_or_equiv
Na1 Na1+ 4 a 0.319(3) 0.317(1) 0.895(2) 1. 0 0 
Na2 Na1+ 4 a 0.246(4) 0.010(1) 0.356(1) 1. 0 0 
Sb1 Sb3+ 4 a 0.2569(6) 0.3649(1) 0.3291(2) 1. 0 0 
F1 F1- 4 a 0.924(5) 0.447(2) 0.396(3) 1. 0 2.1 
F2 F1- 4 a 0.074(4) 0.380(2) 0.114(2) 1. 0 0.8 
F3 F1- 4 a 0.123(6) 0.197(2) 0.304(3) 1. 0 2.5 
F4 F1- 4 a 0.353(5) 0.534(2) 0.259(3) 1. 0 1.3 
F5 F1- 4 a 0.523(5) 0.320(2) 0.153(3) 1. 0 1.7 

loop_
_atom_site_aniso_label
_atom_site_aniso_type_symbol
_atom_site_aniso_U_11
_atom_site_aniso_U_22
_atom_site_aniso_U_33
_atom_site_aniso_U_12
_atom_site_aniso_U_13
_atom_site_aniso_U_23
Na1 Na1+ 0.018(9) 0.023(4) 0.014(8) 0.000(5) 0.00(1) 0.001(2)
Na2 Na1+ 0.021(7) 0.025(4) 0.012(6) 0.000(5) -0.015(5) 0.000(2)
Sb1 Sb3+ 0.013(1) 0.0144(5) 0.0104(8) 0.002(1) 0.000(1) -0.0012(3)
#End of data_28061-ICSD


