data_62999-ICSD
#?2014 by Fachinformationszentrum Karlsruhe, and the U.S. Secretary of 
#Commerce on behalf of the United States.  All rights reserved.
_database_code_ICSD                62999
_audit_creation_date               1989/06/19
_audit_update_record               2006/04/01
_chemical_name_systematic          'Dirubidium Tetrabromozincate'
_chemical_formula_structural       'Rb2 (Zn Br4)'
_chemical_formula_sum              'Br4 Rb2 Zn1'
_publ_section_title
;
Structural study of three modulated phases in Rb2 Zn Br4.
;
loop_
_citation_id
_citation_journal_abbrev
_citation_year
_citation_journal_volume
_citation_page_first
_citation_page_last
_citation_journal_id_ASTM
primary 'Acta Crystallographica, Section B: Structural Science'
 1988 44 120 128 ASBSDK
2 'Golden Book of Phase Transitions, Wroclaw' 2002 1 1 123 GBOPT5
_publ_author_name                  'Hogervorst, A.C.R.;Helmholdt, R.B.'
_cell_length_a                     13.198(5)
_cell_length_b                     7.594(4)
_cell_length_c                     9.614(3)
_cell_angle_alpha                  90.
_cell_angle_beta                   90.
_cell_angle_gamma                  90.
_cell_volume                       963.57
_cell_formula_units_Z              4
_symmetry_space_group_name_H-M     'P c 21 n'
_symmetry_Int_Tables_number        33
_refine_ls_R_factor_all            .119
loop_
_symmetry_equiv_pos_site_id
_symmetry_equiv_pos_as_xyz
  1	'-x+.5, y, z+.5'
  2	'x+.5, y+.5, -z+.5'
  3	'-x, y+.5, -z'
  4	'x, y, z'
loop_
_atom_type_symbol
_atom_type_oxidation_number
Br1-	-1
Rb1+	1
Zn2+	2
loop_
_atom_site_label
_atom_site_type_symbol
_atom_site_symmetry_multiplicity
_atom_site_Wyckoff_symbol
_atom_site_fract_x
_atom_site_fract_y
_atom_site_fract_z
_atom_site_occupancy
_atom_site_attached_hydrogens
Rb1 Rb1+ 4 a 0.3229(1) 0.2476(8) 0.5127(1) 1. 0 
Rb2 Rb1+ 4 a 0.5970(2) 0.2530(9) 0.8759(2) 1. 0 
Zn1 Zn2+ 4 a 0.5785(1) 0.2491 0.2766(1) 1. 0 
Br1 Br1- 4 a 0.5803(1) 0.2479(8) 0.5224(1) 1. 0 
Br2 Br1- 4 a 0.4146(1) 0.2603(8) 0.1756(2) 1. 0 
Br3 Br1- 4 a 0.6687(2) 0.4966(6) 0.1910(3) 1. 0 
Br4 Br1- 4 a 0.6569(2) -.0047(6) 0.1858(3) 1. 0 

loop_
_atom_site_aniso_label
_atom_site_aniso_type_symbol
_atom_site_aniso_U_11
_atom_site_aniso_U_22
_atom_site_aniso_U_33
_atom_site_aniso_U_12
_atom_site_aniso_U_13
_atom_site_aniso_U_23
Rb1 Rb1+ 0.0254(6) 0.0369(8) 0.0172(6) -0.0001(13) 0.0009(5) -0.0022(18)
Rb2 Rb1+ 0.0654(12) 0.0450(11) 0.0176(7) 0.0090(21) -0.0006(7) -0.0008(19)
Zn1 Zn2+ 0.0217(6) 0.0210(7) 0.0140(6) -0.0002(16) 0.0000(5) 0.0004(18)
Br1 Br1- 0.0376(8) 0.0540(13) 0.0119(6) -0.0081(16) -0.0036(6) -0.0023(15)
Br2 Br1- 0.0258(7) 0.0581(12) 0.0200(7) 0.0053(15) -0.0054(6) -0.0010(17)
Br3 Br1- 0.0604(16) 0.0237(13) 0.0291(13) -0.0165(12) 0.0133(13) 
-0.0025(12)
Br4 Br1- 0.0549(15) 0.0266(14) 0.0306(14) 0.0090(12) 0.0071(13) 0.0010(12)
#End of data_62999-ICSD


