data_182555-ICSD
#?2014 by Fachinformationszentrum Karlsruhe, and the U.S. Secretary of 
#Commerce on behalf of the United States.  All rights reserved.
_database_code_ICSD                182555
_audit_creation_date               2012/02/01
_chemical_name_systematic          'Dilead Magnesium Uranate'
_chemical_formula_structural       'Pb2 Mg (U O6)'
_chemical_formula_sum              'Mg1 O6 Pb2 U1'
_publ_section_title
;
Synthesis, structures, physicochemical properties and crystal 
chemical systematics of M2(II) A(II) U O6 (M(II) = Pb, Ba, Sr; A(II) 
= Mg, Ca, Sr, Ba, Mn, Fe, Co, Ni, Cu, Zn, Cd, Pb) compounds
;
loop_
_citation_id
_citation_journal_abbrev
_citation_year
_citation_journal_volume
_citation_journal_issue
_citation_page_first
_citation_page_last
_citation_journal_id_ASTM
primary 'Zhurnal Neorganicheskoi Khimii' 2011 56 6 946 956 ZNOKAQ
_publ_author_name
;
Knyazev, A.V.;Chernorukov, N.G.;Dashkina, Z.S.;Bulanov, E.N;Ladenkov, 
I.V.
;
_cell_length_a                     5.8461(6)
_cell_length_b                     5.8338(6)
_cell_length_c                     8.2492(9)
_cell_angle_alpha                  90.
_cell_angle_beta                   90.064(8)
_cell_angle_gamma                  90.
_cell_volume                       281.34
_cell_formula_units_Z              2
_symmetry_space_group_name_H-M     'P 1 21/n 1'
_symmetry_Int_Tables_number        14
_refine_ls_R_factor_all            .0897
loop_
_symmetry_equiv_pos_site_id
_symmetry_equiv_pos_as_xyz
  1	'-x+.5, y+.5, -z+.5'
  2	'-x, -y, -z'
  3	'x+.5, -y+.5, z+.5'
  4	'x, y, z'
loop_
_atom_type_symbol
_atom_type_oxidation_number
Mg2+	2
O2-	-2
Pb2+	2
U6+	6
loop_
_atom_site_label
_atom_site_type_symbol
_atom_site_symmetry_multiplicity
_atom_site_Wyckoff_symbol
_atom_site_fract_x
_atom_site_fract_y
_atom_site_fract_z
_atom_site_occupancy
_atom_site_attached_hydrogens
_atom_site_B_iso_or_equiv
Pb1 Pb2+ 4 e 0.9662(5) 0.0157(6) 0.2371(8) 1. 0 0.42(5) 
Mg1 Mg2+ 2 d 0.5 0 0 1. 0 0.42(5) 
U1 U6+ 2 c 0.5 0 0.5 1. 0 0.42(5) 
O1 O2- 4 e 0.023(6) 0.390(9) 0.240(8) 1. 0 0.42(5) 
O2 O2- 4 e 0.763(6) 0.363(8) 0.003(4) 1. 0 0.42(5) 
O3 O2- 4 e 0.178(7) 0.191(5) 0.960(4) 1. 0 0.42(5) 

#End of data_182555-ICSD


