data_10386-ICSD
#?2014 by Fachinformationszentrum Karlsruhe, and the U.S. Secretary of 
#Commerce on behalf of the United States.  All rights reserved.
_database_code_ICSD                10386
_audit_creation_date               1980/01/01
_audit_update_record               2004/10/01
_chemical_name_systematic
;
Lithium Trihydrogen Bis(selenate(IV))
;
_chemical_formula_structural       'Li H3 (Se O3)2'
_chemical_formula_sum              'H3 Li1 O6 Se2'
_publ_section_title
;
Hydrogen bond studies. 54. A neutron diffraction study of the 
ferroelectric lithium trihydrogen selenite, Li H3 (Se O3)2
;
loop_
_citation_id
_citation_journal_abbrev
_citation_year
_citation_journal_volume
_citation_page_first
_citation_page_last
_citation_journal_id_ASTM
primary 'Journal of Solid State Chemistry' 1972 4 255 261 JSSCBI
_publ_author_name                  'Tellgren, R.;Liminga, R.'
_cell_length_a                     6.2554(3)
_cell_length_b                     7.8823(5)
_cell_length_c                     5.4339(5)
_cell_angle_alpha                  90.
_cell_angle_beta                   105.325(5)
_cell_angle_gamma                  90.
_cell_volume                       258.4
_cell_formula_units_Z              2
_symmetry_space_group_name_H-M     'P 1 n 1'
_symmetry_Int_Tables_number        7
_refine_ls_R_factor_all            .029
loop_
_symmetry_equiv_pos_site_id
_symmetry_equiv_pos_as_xyz
  1	'x+.5, -y, z+.5'
  2	'x, y, z'
loop_
_atom_type_symbol
_atom_type_oxidation_number
H1+	1
Li1+	1
O2-	-2
Se4+	4
loop_
_atom_site_label
_atom_site_type_symbol
_atom_site_symmetry_multiplicity
_atom_site_Wyckoff_symbol
_atom_site_fract_x
_atom_site_fract_y
_atom_site_fract_z
_atom_site_occupancy
_atom_site_attached_hydrogens
Se1 Se4+ 2 a 0.233 0.39507(23) 0.088 1. 0 
Se2 Se4+ 2 a 0.7669(2) 0.10074(21) 0.91095(26) 1. 0 
O1 O2- 2 a 0.19252(40) 0.22747(32) -.13341(47) 1. 0 
O2 O2- 2 a 0.79816(38) 0.27366(31) 0.10145(46) 1. 0 
O3 O2- 2 a 0.30176(43) 0.29114(33) 0.36189(49) 1. 0 
O4 O2- 2 a 0.70944(42) 0.20193(35) 0.61072(49) 1. 0 
O5 O2- 2 a 0.47888(42) 0.47641(32) 0.05452(46) 1. 0 
O6 O2- 2 a 0.51917(40) 0.02447(29) 0.91695(44) 1. 0 
Li1 Li1+ 2 a 0.0024(15) 0.2487(15) 0.4807(16) 1. 0 
H1 H1+ 2 a 0.32880(84) 0.14685(64) -.09938(82) 1. 0 
H2 H1+ 2 a 0.6200(11) 0.38177(71) 0.07074(98) 1. 0 
H3 H1+ 2 a 0.55051(60) 0.23084(52) 0.52793(75) 1. 0 

#End of data_10386-ICSD


