data_46017-ICSD
#?2014 by Fachinformationszentrum Karlsruhe, and the U.S. Secretary of 
#Commerce on behalf of the United States.  All rights reserved.
_database_code_ICSD                46017
_audit_creation_date               1983/12/31
_chemical_name_systematic          'Calcium Digallium Sulfide'
_chemical_formula_structural       'Ca Ga2 S4'
_chemical_formula_sum              'Ca1 Ga2 S4'
_publ_section_title
;
Die Strukturen von Ca Al2 S4, Ca Ga2 S4, Sr Al2 S4 und Ba In2 S4
;
loop_
_citation_id
_citation_journal_abbrev
_citation_year
_citation_journal_volume
_citation_page_first
_citation_page_last
_citation_journal_id_ASTM
primary 'Revue de Chimie Minerale' 1983 20 255 263 RVCMA8
_publ_author_name
;
Eisenmann, B.;Jakowski, M.;Klee, W.;Schaefer, H.
;
_cell_length_a                     20.122(6)
_cell_length_b                     20.090(6)
_cell_length_c                     12.133(4)
_cell_angle_alpha                  90.
_cell_angle_beta                   90.
_cell_angle_gamma                  90.
_cell_volume                       4904.78
_cell_formula_units_Z              32
_symmetry_space_group_name_H-M     'F d d d Z'
_symmetry_Int_Tables_number        70
_refine_ls_R_factor_all            .077
loop_
_symmetry_equiv_pos_site_id
_symmetry_equiv_pos_as_xyz
  1	'x+.75, y+.75, -z'
  2	'x+.75, -y, z+.75'
  3	'-x, y+.75, z+.75'
  4	'-x, -y, -z'
  5	'-x+.25, -y+.25, z'
  6	'-x+.25, y, -z+.25'
  7	'x, -y+.25, -z+.25'
  8	'x, y, z'
  9	'x+.75, y+.25, -z+.5'
 10	'x+.25, y+.75, -z+.5'
 11	'x+.25, y+.25, -z'
 12	'x+.75, -y+.5, z+.25'
 13	'x+.25, -y, z+.25'
 14	'x+.25, -y+.5, z+.75'
 15	'-x, y+.25, z+.25'
 16	'-x+.5, y+.75, z+.25'
 17	'-x+.5, y+.25, z+.75'
 18	'-x, -y+.5, -z+.5'
 19	'-x+.5, -y, -z+.5'
 20	'-x+.5, -y+.5, -z'
 21	'-x+.25, -y+.75, z+.5'
 22	'-x+.75, -y+.25, z+.5'
 23	'-x+.75, -y+.75, z'
 24	'-x+.25, y+.5, -z+.75'
 25	'-x+.75, y, -z+.75'
 26	'-x+.75, y+.5, -z+.25'
 27	'x, -y+.75, -z+.75'
 28	'x+.5, -y+.25, -z+.75'
 29	'x+.5, -y+.75, -z+.25'
 30	'x, y+.5, z+.5'
 31	'x+.5, y, z+.5'
 32	'x+.5, y+.5, z'
loop_
_atom_type_symbol
_atom_type_oxidation_number
Ca2+	2
Ga3+	3
S2-	-2
loop_
_atom_site_label
_atom_site_type_symbol
_atom_site_symmetry_multiplicity
_atom_site_Wyckoff_symbol
_atom_site_fract_x
_atom_site_fract_y
_atom_site_fract_z
_atom_site_occupancy
_atom_site_attached_hydrogens
_atom_site_U_iso_or_equiv
Ca1 Ca2+ 8 a 0.125 0.125 0.125 1. 0 0.0096(12) 
Ca2 Ca2+ 8 b 0.125 0.125 0.625 1. 0 0.0094(12) 
Ca3 Ca2+ 16 e 0.8724(5) 0.125 0.125 1. 0 0.0104(10) 
Ga1 Ga3+ 32 h 0.0003(1) 0.8042(1) 0.1638(1) 1. 0 0.0075(3) 
Ga2 Ga3+ 32 h 0.0009(1) 0.2383(1) 0.3743(1) 1. 0 0.0071(3) 
S1 S2- 32 h 0.1649(2) 0.2474(4) 0.0052(4) 1. 0 0.0051(6) 
S2 S2- 32 h 0.1643(2) 0.5023(2) 0.2474(4) 1. 0 0.0051(6) 
S3 S2- 32 h 0.9975(2) 0.3438(2) 0.0008(3) 1. 0 0.0060(6) 
S4 S2- 32 h 0.0008(2) 0.4184(2) 0.2663(3) 1. 0 0.0054(6) 

#End of data_46017-ICSD


