data_249730-ICSD
#?2014 by Fachinformationszentrum Karlsruhe, and the U.S. Secretary of 
#Commerce on behalf of the United States.  All rights reserved.
_database_code_ICSD                249730
_audit_creation_date               2009/02/01
_chemical_name_systematic
;
Nonapotassium Difluoride Dotriacontaoxo-dodecasilico-trieuropate(III)
;
_chemical_formula_structural       '(K9 F2) (Eu3 Si12 O32)'
_chemical_formula_sum              'Eu3 F2 K9 O32 Si12'
_publ_section_title
;
Flux synthesis, crystal structures, and luminescence properties of 
salt-inclusion lanthanide silicates: [K9 F2][Ln3 Si12 O32] (Ln = Sm, 
Eu, Gd)
;
loop_
_citation_id
_citation_journal_abbrev
_citation_year
_citation_journal_volume
_citation_journal_issue
_citation_page_first
_citation_page_last
_citation_journal_id_ASTM
primary 'Inorganic Chemistry' 2008 47 19 8985 8989 INOCAJ
_publ_author_name
;
Tang Mingfeng;Chiang Peiyun;Su Yuhan;Jung Yuchi;Hou Guangyi;Chang 
Borchen;Lii Kwanghwa
;
_cell_length_a                     6.8979(2)
_cell_length_b                     11.3798(4)
_cell_length_c                     11.4964(4)
_cell_angle_alpha                  87.607(2)
_cell_angle_beta                   89.470(2)
_cell_angle_gamma                  80.164(2)
_cell_volume                       888.39
_cell_formula_units_Z              1
_symmetry_space_group_name_H-M     'P -1'
_symmetry_Int_Tables_number        2
_refine_ls_R_factor_all            .0251
loop_
_symmetry_equiv_pos_site_id
_symmetry_equiv_pos_as_xyz
  1	'-x, -y, -z'
  2	'x, y, z'
loop_
_atom_type_symbol
_atom_type_oxidation_number
Eu3+	3
F1-	-1
K1+	1
O2-	-2
Si4+	4
loop_
_atom_site_label
_atom_site_type_symbol
_atom_site_symmetry_multiplicity
_atom_site_Wyckoff_symbol
_atom_site_fract_x
_atom_site_fract_y
_atom_site_fract_z
_atom_site_occupancy
_atom_site_attached_hydrogens
_atom_site_U_iso_or_equiv
K1 K1+ 2 i 1.26380(17) -0.38509(10) 0.01683(10) 1 0 0.0272(2) 
K2 K1+ 2 i 1.16958(15) -0.19180(9) -0.22136(9) 1 0 0.0219(2) 
K3 K1+ 2 i 1.16769(18) -0.15378(12) 0.21326(11) 1 0 0.0352(3) 
K4 K1+ 1 d 0.5000 0.0000 0.0000 1 0 0.0430(5) 
K5 K1+ 2 i 0.01820(14) 0.33049(8) 0.51141(9) 1 0 0.01824(19) 
F1 F1- 2 i 1.2465(5) -0.1568(3) -0.0043(3) 1 0 0.0333(7) 
Eu1 Eu3+ 1 b 0.0000 0.0000 0.5000 1 0 0.00829(7) 
Eu2 Eu3+ 2 i 0.48593(3) 0.485281(17) 0.335099(17) 1 0 0.00808(6) 
Si1 Si4+ 2 i 0.55285(15) 0.23315(9) 0.51093(9) 1 0 0.0077(2) 
Si2 Si4+ 2 i 0.33852(15) 0.13867(9) 0.31075(10) 1 0 0.0083(2) 
Si3 Si4+ 2 i 0.65746(15) -0.09039(9) 0.30348(9) 1 0 0.0081(2) 
Si4 Si4+ 2 i 0.68841(16) -0.30386(9) 0.15934(9) 1 0 0.0086(2) 
Si5 Si4+ 2 i 0.98287(15) -0.51499(9) 0.25669(10) 1 0 0.0090(2) 
Si6 Si4+ 2 i 1.28464(16) -0.66730(9) 0.11705(9) 1 0 0.0089(2) 
O1 O2- 2 i 0.5273(4) 0.3758(2) 0.5178(2) 1 0 0.0124(6) 
O2 O2- 2 i 0.4872(4) 0.2134(3) 0.3747(3) 1 0 0.0148(6) 
O3 O2- 2 i 0.6133(4) -0.1836(3) 0.4069(3) 1 0 0.0135(6) 
O4 O2- 2 i 0.7685(4) 0.1641(3) 0.5390(3) 1 0 0.0152(6) 
O5 O2- 2 i 0.1465(4) 0.1278(3) 0.3820(3) 1 0 0.0137(6) 
O6 O2- 2 i 1.2837(5) -0.7963(3) 0.1829(3) 1 0 0.0163(6) 
O7 O2- 2 i 0.4619(4) 0.0090(3) 0.2766(3) 1 0 0.0164(6) 
O8 O2- 2 i 0.6870(4) -0.1634(2) 0.1838(2) 1 0 0.0131(6) 
O9 O2- 2 i 0.8452(4) -0.0348(3) 0.3303(3) 1 0 0.0139(6) 
O10 O2- 2 i 0.8963(4) -0.3759(3) 0.2122(3) 1 0 0.0153(6) 
O11 O2- 2 i 1.2932(5) -0.6896(3) -0.0202(3) 1 0 0.0196(7) 
O12 O2- 2 i 0.5003(4) -0.3510(3) 0.2097(3) 1 0 0.0133(6) 
O13 O2- 2 i 1.1573(4) -0.5107(3) 0.3458(3) 1 0 0.0130(6) 
O14 O2- 2 i 0.8122(4) -0.5785(3) 0.3106(3) 1 0 0.0149(6) 
O15 O2- 2 i 1.0685(4) -0.5842(3) 0.1378(3) 1 0 0.0170(6) 
O16 O2- 2 i 1.4585(4) -0.6041(3) 0.1568(3) 1 0 0.0148(6) 

loop_
_atom_site_aniso_label
_atom_site_aniso_type_symbol
_atom_site_aniso_U_11
_atom_site_aniso_U_22
_atom_site_aniso_U_33
_atom_site_aniso_U_12
_atom_site_aniso_U_13
_atom_site_aniso_U_23
K1 K1+ 0.0299(5) 0.0251(5) 0.0267(6) -0.0061(4) -0.0016(4) 0.0029(4)
K2 K1+ 0.0242(5) 0.0190(5) 0.0223(5) -0.0032(4) -0.0021(4) 0.0013(4)
K3 K1+ 0.0293(6) 0.0491(8) 0.0242(6) 0.0027(5) 0.0043(5) -0.0077(5)
K4 K1+ 0.0544(12) 0.0423(10) 0.0366(10) -0.0236(9) -0.0180(9) 0.0153(8)
K5 K1+ 0.0222(5) 0.0135(4) 0.0181(5) -0.0005(3) 0.0014(4) -0.0014(3)
F1 F1- 0.0429(18) 0.0318(17) 0.0259(16) -0.0084(14) -0.0002(14) -0.0021(13)
Eu1 Eu3+ 0.00792(12) 0.00702(13) 0.00928(13) 0.00043(9) 0.00070(10) 
-0.00008(10)
Eu2 Eu3+ 0.00714(9) 0.00810(10) 0.00853(10) 0.00001(6) 0.00068(7) 
-0.00027(7)
Si1 Si4+ 0.0082(5) 0.0059(5) 0.0084(5) 0.0008(4) 0.0011(4) -0.0002(4)
Si2 Si4+ 0.0085(5) 0.0068(5) 0.0091(5) 0.0004(4) 0.0004(4) 0.0006(4)
Si3 Si4+ 0.0086(5) 0.0065(5) 0.0089(5) 0.0000(4) 0.0008(4) -0.0003(4)
Si4 Si4+ 0.0107(5) 0.0066(5) 0.0080(5) 0.0003(4) 0.0010(4) -0.0002(4)
Si5 Si4+ 0.0064(4) 0.0085(5) 0.0113(5) 0.0012(4) 0.0005(4) -0.0005(4)
Si6 Si4+ 0.0114(5) 0.0074(5) 0.0076(5) -0.0006(4) 0.0014(4) -0.0007(4)
O1 O2- 0.0196(14) 0.0055(13) 0.0107(14) 0.0016(11) -0.0010(11) 0.0005(10)
O2 O2- 0.0152(14) 0.0213(15) 0.0099(14) -0.0086(12) 0.0002(11) -0.0027(12)
O3 O2- 0.0136(14) 0.0138(14) 0.0128(14) -0.0028(11) 0.0019(11) 0.0028(11)
O4 O2- 0.0108(13) 0.0122(14) 0.0205(16) 0.0033(11) 0.0004(12) 0.0007(12)
O5 O2- 0.0119(13) 0.0151(14) 0.0144(15) -0.0035(11) 0.0032(11) 0.0010(11)
O6 O2- 0.0224(15) 0.0146(15) 0.0127(15) -0.0067(12) -0.0037(12) 0.0043(12)
O7 O2- 0.0162(14) 0.0108(14) 0.0205(16) 0.0028(11) -0.0014(12) -0.0016(12)
O8 O2- 0.0195(14) 0.0096(13) 0.0095(14) -0.0002(11) 0.0033(11) -0.0029(11)
O9 O2- 0.0135(13) 0.0155(14) 0.0140(15) -0.0064(11) 0.0000(11) -0.0005(11)
O10 O2- 0.0104(13) 0.0115(14) 0.0227(16) 0.0003(11) -0.0018(12) 0.0041(12)
O11 O2- 0.0274(17) 0.0209(16) 0.0109(15) -0.0048(13) 0.0034(13) -0.0033(12)
O12 O2- 0.0134(13) 0.0119(14) 0.0146(15) -0.0026(11) 0.0020(11) 0.0023(11)
O13 O2- 0.0098(13) 0.0179(15) 0.0110(14) -0.0014(11) 0.0000(11) -0.0022(11)
O14 O2- 0.0088(13) 0.0129(14) 0.0220(16) 0.0001(11) 0.0020(11) 0.0019(12)
O15 O2- 0.0125(14) 0.0217(16) 0.0144(15) 0.0054(12) 0.0000(12) -0.0071(12)
O16 O2- 0.0164(14) 0.0144(14) 0.0150(15) -0.0058(11) 0.0042(12) -0.0051(11)
#End of data_249730-ICSD


