data_50491-ICSD
#?2014 by Fachinformationszentrum Karlsruhe, and the U.S. Secretary of 
#Commerce on behalf of the United States.  All rights reserved.
_database_code_ICSD                50491
_audit_creation_date               1999/11/30
_chemical_name_systematic          'Trisodium Triselenoarsenate(III)'
_chemical_formula_structural       'Na3 (As Se3)'
_chemical_formula_sum              'As1 Na3 Se3'
_publ_section_title
;
Na3 As Se3 und K3 As Se3 - Darstellung und Kristallstruktur
;
loop_
_citation_id
_citation_journal_abbrev
_citation_year
_citation_journal_volume
_citation_page_first
_citation_page_last
_citation_journal_id_ASTM
primary 'Zeitschrift fuer Anorganische und Allgemeine Chemie (1950) (DE)'
 1998 624 553 554 ZAACAB
_publ_author_name                  'Bronger, W.;Donike, A.;Schmitz, D.'
_cell_length_a                     8.952(3)
_cell_length_b                     8.952(3)
_cell_length_c                     8.952(3)
_cell_angle_alpha                  90.
_cell_angle_beta                   90.
_cell_angle_gamma                  90.
_cell_volume                       717.4
_cell_formula_units_Z              4
_symmetry_space_group_name_H-M     'P 21 3'
_symmetry_Int_Tables_number        198
_refine_ls_R_factor_all            .034
loop_
_symmetry_equiv_pos_site_id
_symmetry_equiv_pos_as_xyz
  1	'-z+.5, -x, y+.5'
  2	'-y+.5, -z, x+.5'
  3	'-x+.5, -y, z+.5'
  4	'-z, x+.5, -y+.5'
  5	'-y, z+.5, -x+.5'
  6	'-x, y+.5, -z+.5'
  7	'z+.5, -x+.5, -y'
  8	'y+.5, -z+.5, -x'
  9	'x+.5, -y+.5, -z'
 10	'z, x, y'
 11	'y, z, x'
 12	'x, y, z'
loop_
_atom_type_symbol
_atom_type_oxidation_number
As3+	3
Na1+	1
Se2-	-2
loop_
_atom_site_label
_atom_site_type_symbol
_atom_site_symmetry_multiplicity
_atom_site_Wyckoff_symbol
_atom_site_fract_x
_atom_site_fract_y
_atom_site_fract_z
_atom_site_occupancy
_atom_site_attached_hydrogens
_atom_site_B_iso_or_equiv
Se1 Se2- 12 b 0.2250(2) 0.6076(2) 0.4992(2) 1. 0 1.63(3) 
Na1 Na1+ 4 a 0.319(1) 0.319(1) 0.319(1) 1. 0 1.84(7) 
Na2 Na1+ 4 a 0.581(1) 0.581(1) 0.581(1) 1. 0 2.58(9) 
Na3 Na1+ 4 a 0.812(1) 0.812(1) 0.812(1) 1. 0 2.41(3) 
As1 As3+ 4 a 0.0290(2) 0.0290(2) 0.0290(2) 1. 0 1.54(2) 

#End of data_50491-ICSD


