data_20366-ICSD
#?2014 by Fachinformationszentrum Karlsruhe, and the U.S. Secretary of 
#Commerce on behalf of the United States.  All rights reserved.
_database_code_ICSD                20366
_audit_creation_date               1986/10/02
_audit_update_record               2006/04/01
_chemical_name_systematic
;
Disodium Tetrafluoroberyllate - Gamma
;
_chemical_formula_structural       'Na2 (Be F4)'
_chemical_formula_sum              'Be1 F4 Na2'
_publ_section_title
;
The crystal structure of Na-orthofluoroberyllate Na2 Be F4 gamma
;
loop_
_citation_id
_citation_journal_abbrev
_citation_year
_citation_journal_volume
_citation_page_first
_citation_page_last
_citation_journal_id_ASTM
primary 'Doklady Akademii Nauk SSSR' 1965 163 94 96 DANKAS
_publ_author_name
;
Guseinov, G.G.;Ilyukhin, V.V.;Belov, N.V.
;
_cell_length_a                     10.181
_cell_length_b                     5.61
_cell_length_c                     4.447
_cell_angle_alpha                  90.
_cell_angle_beta                   90.
_cell_angle_gamma                  90.
_cell_volume                       253.99
_cell_formula_units_Z              4
_symmetry_space_group_name_H-M     'P n 21 a'
_symmetry_Int_Tables_number        33
_refine_ls_R_factor_all            .112
loop_
_symmetry_equiv_pos_site_id
_symmetry_equiv_pos_as_xyz
  1	'x+.5, y, -z+.5'
  2	'-x+.5, y+.5, z+.5'
  3	'-x, y+.5, -z'
  4	'x, y, z'
loop_
_atom_type_symbol
_atom_type_oxidation_number
Be2+	2
F1-	-1
Na1+	1
loop_
_atom_site_label
_atom_site_type_symbol
_atom_site_symmetry_multiplicity
_atom_site_Wyckoff_symbol
_atom_site_fract_x
_atom_site_fract_y
_atom_site_fract_z
_atom_site_occupancy
_atom_site_attached_hydrogens
_atom_site_B_iso_or_equiv
Na1 Na1+ 4 a 0 0.002 0.02 1. 0 0.35 
Na2 Na1+ 4 a 0.233 0.748 0.503 1. 0 0.35 
Be1 Be2+ 4 a 0.072 0.238 0.596 1. 0 0.35 
F1 F1- 4 a 0.158 0.033 0.751 1. 0 0.35 
F2 F1- 4 a 0.158 0.473 0.749 1. 0 0.35 
F3 F1- 4 a 0.083 0.259 0.276 1. 0 0.35 
F4 F1- 4 a 0.059 0.732 0.275 1. 0 0.35 

#End of data_20366-ICSD


