data_91276-ICSD
#?2014 by Fachinformationszentrum Karlsruhe, and the U.S. Secretary of 
#Commerce on behalf of the United States.  All rights reserved.
_database_code_ICSD                91276
_audit_creation_date               2002/10/01
_chemical_name_systematic          'Thallium Zinc Tris(phosphate(V))'
_chemical_formula_structural       'Tl Zn (P O3)3'
_chemical_formula_sum              'O9 P3 Tl1 Zn1'
_publ_section_title
;
The structure and luminescent properties of Tl Zn (P O3)3
;
loop_
_citation_id
_citation_journal_abbrev
_citation_year
_citation_journal_volume
_citation_page_first
_citation_page_last
_citation_journal_id_ASTM
primary 'Journal of Solid State Chemistry' 2000 154 584 590 JSSCBI
_publ_author_name
;
El Abiad, A.;Es-Sakhi, B.;Mesnaoui, M.;Maazaz, M.;Belharouak, 
I.;Gravereau, P.;Parent, C.;Wallez, G.;le Flem, G.
;
_cell_length_a                     5.1192(5)
_cell_length_b                     11.8822(9)
_cell_length_c                     12.9827(9)
_cell_angle_alpha                  90.
_cell_angle_beta                   90.
_cell_angle_gamma                  90.
_cell_volume                       789.7
_cell_formula_units_Z              4
_symmetry_space_group_name_H-M     'P b c m'
_symmetry_Int_Tables_number        57
_refine_ls_R_factor_all            .05
loop_
_symmetry_equiv_pos_site_id
_symmetry_equiv_pos_as_xyz
  1	'x, -y+.5, z+.5'
  2	'-x, y+.5, z'
  3	'x, y, -z+.5'
  4	'-x, -y, -z'
  5	'-x, y+.5, -z+.5'
  6	'x, -y+.5, -z'
  7	'-x, -y, z+.5'
  8	'x, y, z'
loop_
_atom_type_symbol
_atom_type_oxidation_number
O2-	-2
P5+	5
Tl1+	1
Zn2+	2
loop_
_atom_site_label
_atom_site_type_symbol
_atom_site_symmetry_multiplicity
_atom_site_Wyckoff_symbol
_atom_site_fract_x
_atom_site_fract_y
_atom_site_fract_z
_atom_site_occupancy
_atom_site_attached_hydrogens
_atom_site_B_iso_or_equiv
Tl1 Tl1+ 4 d 0.076(1) 0.145(1) 0.25 1. 0 1.78(2) 
Zn1 Zn2+ 4 a 0 0 0 1. 0 3.27(1) 
P1 P5+ 4 c 0.751(3) 0.25 0 1. 0 0.87(2) 
P2 P5+ 8 e 0.489(2) 0.415(1) 0.135(1) 1. 0 0.87(2) 
O1 O2- 8 e 0.547(4) 0.299(2) 0.084(1) 1. 0 0.79(3) 
O2 O2- 8 e 0.901(4) 0.158(2) 0.051(1) 1. 0 0.79(3) 
O3 O2- 8 e 0.204(4) 0.437(2) 0.126(6) 1. 0 0.79(3) 
O4 O2- 8 e 0.672(4) 0.498(2) 0.097(1) 1. 0 0.79(3) 
O5 O2- 4 d 0.551(5) 0.382(2) 0.25 1. 0 0.79(3) 

#End of data_91276-ICSD


