data_25593-ICSD
#?2014 by Fachinformationszentrum Karlsruhe, and the U.S. Secretary of 
#Commerce on behalf of the United States.  All rights reserved.
_database_code_ICSD                25593
_audit_creation_date               1980/01/01
_audit_update_record               2007/04/01
_chemical_name_systematic          'Copper(I) Aluminium Oxide'
_chemical_formula_structural       'Cu Al O2'
_chemical_formula_sum              'Al1 Cu1 O2'
_publ_section_title
;
Versuche zur Darstellung ternaerer Oxyde des Aluminiums, Galliums und 
Indiums mit einwertigem Kupfer und Silber
;
loop_
_citation_id
_citation_journal_abbrev
_citation_year
_citation_journal_volume
_citation_page_first
_citation_page_last
_citation_journal_id_ASTM
primary 'Zeitschrift fuer Anorganische und Allgemeine Chemie (1950) (DE)'
 1955 279 281 288 ZAACAB
2 'Acta Crystallographica (1,1948-23,1967)' 1956 9 200 200 ACCRA9
_publ_author_name                  'Hahn, H.;de Lorent, C.'
_cell_length_a                     5.896
_cell_length_b                     5.896
_cell_length_c                     5.896
_cell_angle_alpha                  28.1
_cell_angle_beta                   28.1
_cell_angle_gamma                  28.1
_cell_volume                       40.17
_cell_formula_units_Z              1
_symmetry_space_group_name_H-M     'R -3 m R'
_symmetry_Int_Tables_number        166
loop_
_symmetry_equiv_pos_site_id
_symmetry_equiv_pos_as_xyz
  1	'-z, -y, -x'
  2	'-z, -x, -y'
  3	'-x, -z, -y'
  4	'-y, -z, -x'
  5	'-y, -x, -z'
  6	'-x, -y, -z'
  7	'z, y, x'
  8	'z, x, y'
  9	'x, z, y'
 10	'y, z, x'
 11	'y, x, z'
 12	'x, y, z'
loop_
_atom_type_symbol
_atom_type_oxidation_number
Al3+	3
Cu1+	1
O2-	-2
loop_
_atom_site_label
_atom_site_type_symbol
_atom_site_symmetry_multiplicity
_atom_site_Wyckoff_symbol
_atom_site_fract_x
_atom_site_fract_y
_atom_site_fract_z
_atom_site_occupancy
_atom_site_attached_hydrogens
Cu1 Cu1+ 1 a 0 0 0 1. 0 
Al1 Al3+ 1 b 0.5 0.5 0.5 1. 0 
O1 O2- 2 c 0.12 0.12 0.12 1. 0 

#End of data_25593-ICSD


