data_417658-ICSD
#?2014 by Fachinformationszentrum Karlsruhe, and the U.S. Secretary of 
#Commerce on behalf of the United States.  All rights reserved.
_database_code_ICSD                417658
_audit_creation_date               2008/02/01
_audit_update_record               2011/02/01
_chemical_name_systematic
;
Trisilver Yttrium Bis(orthothiophosphate(V))
;
_chemical_formula_structural       'Ag3 Y (P S4)2'
_chemical_formula_sum              'Ag3 P2 S8 Y1'
_publ_section_title
;
Neue Thiophosphate: Die Verbindungen Li6 Ln3 (P S4)5 (Ln: Y, Gd, Dy, 
Yb, Lu) und Ag3 Y (P S4)2
;
loop_
_citation_id
_citation_journal_abbrev
_citation_year
_citation_journal_volume
_citation_journal_issue
_citation_page_first
_citation_page_last
_citation_journal_id_ASTM
primary 'Zeitschrift fuer Anorganische und Allgemeine Chemie (1950) (DE)'
 2007 633 10 1633 1638 ZAACAB
_publ_author_name                  'Mueller, C.;Joergens, S.;Mewis, A.'
_cell_length_a                     16.874(3)
_cell_length_b                     9.190(2)
_cell_length_c                     9.312(2)
_cell_angle_alpha                  90.00
_cell_angle_beta                   123.17(3)
_cell_angle_gamma                  90.00
_cell_volume                       1208.73
_cell_formula_units_Z              4
_symmetry_space_group_name_H-M     'C 1 2/c 1'
_symmetry_Int_Tables_number        15
_refine_ls_R_factor_all            .027
loop_
_symmetry_equiv_pos_site_id
_symmetry_equiv_pos_as_xyz
  1	'x, -y, z+.5'
  2	'-x, -y, -z'
  3	'-x, y, -z+.5'
  4	'x, y, z'
  5	'x+.5, -y+.5, z+.5'
  6	'-x+.5, -y+.5, -z'
  7	'-x+.5, y+.5, -z+.5'
  8	'x+.5, y+.5, z'
loop_
_atom_type_symbol
_atom_type_oxidation_number
Ag1+	1
P5+	5
S2-	-2
Y3+	3
loop_
_atom_site_label
_atom_site_type_symbol
_atom_site_symmetry_multiplicity
_atom_site_Wyckoff_symbol
_atom_site_fract_x
_atom_site_fract_y
_atom_site_fract_z
_atom_site_occupancy
_atom_site_attached_hydrogens
_atom_site_U_iso_or_equiv
Y1 Y3+ 4 e 0.5000 0.46602(9) 0.2500 1 0 0.0162(2) 
Ag1 Ag1+ 8 f 0.15371(4) 0.38165(7) 0.27504(7) 1 0 0.0324(2) 
Ag2 Ag1+ 4 e 0.5000 0.06964(9) 0.2500 1 0 0.0341(3) 
P1 P5+ 8 f 0.09854(11) 0.24226(16) 0.5694(2) 1 0 0.0161(3) 
S1 S2- 8 f 0.04133(11) 0.17624(16) 0.0775(2) 1 0 0.0183(3) 
S2 S2- 8 f 0.13641(12) 0.23495(17) 0.81532(19) 1 0 0.0209(4) 
S3 S2- 8 f 0.16763(11) 0.09295(18) 0.5181(2) 1 0 0.0229(4) 
S4 S2- 8 f 0.37502(12) 0.05386(17) 0.4774(2) 1 0 0.0227(4) 

loop_
_atom_site_aniso_label
_atom_site_aniso_type_symbol
_atom_site_aniso_U_11
_atom_site_aniso_U_22
_atom_site_aniso_U_33
_atom_site_aniso_U_12
_atom_site_aniso_U_13
_atom_site_aniso_U_23
Y1 Y3+ 0.0183(4) 0.0155(4) 0.0150(4) 0.000 0.0093(3) 0.000
Ag1 Ag1+ 0.0255(3) 0.0396(4) 0.0290(3) -0.0052(2) 0.0129(3) -0.0042(2)
Ag2 Ag1+ 0.0346(5) 0.0364(5) 0.0295(5) 0.000 0.0164(4) 0.000
P1 P5+ 0.0185(8) 0.0156(7) 0.0156(7) 0.0001(6) 0.0102(6) 0.0004(6)
S1 S2- 0.0158(7) 0.0205(7) 0.0176(8) 0.0000(6) 0.0085(6) 0.0012(6)
S2 S2- 0.0233(8) 0.0236(8) 0.0147(8) -0.0039(6) 0.0096(6) -0.0003(6)
S3 S2- 0.0178(7) 0.0243(8) 0.0240(8) -0.0005(6) 0.0098(6) -0.0078(6)
S4 S2- 0.0306(9) 0.0173(7) 0.0227(8) -0.0035(6) 0.0162(7) 0.0008(6)
#End of data_417658-ICSD


