data_26491-ICSD
#?2014 by Fachinformationszentrum Karlsruhe, and the U.S. Secretary of 
#Commerce on behalf of the United States.  All rights reserved.
_database_code_ICSD                26491
_audit_creation_date               1980/01/01
_audit_update_record               2000/12/16
_chemical_name_systematic          'Calcium Tecto-diborodisilicate'
_chemical_formula_structural       'Ca (B2 Si2 O8)'
_chemical_formula_sum              'B2 Ca1 O8 Si2'
_chemical_name_mineral             Danburite
_publ_section_title
;
A refinement of the crystal structure of danburite
;
loop_
_citation_id
_citation_journal_abbrev
_citation_year
_citation_journal_volume
_citation_page_first
_citation_page_last
_citation_journal_id_ASTM
primary 'Acta Crystallographica (1,1948-23,1967)' 1959 12 522 525 ACCRA9
_publ_author_name                  'Johansson, G.'
_cell_length_a                     8.04
_cell_length_b                     7.74
_cell_length_c                     8.77
_cell_angle_alpha                  90.
_cell_angle_beta                   90.
_cell_angle_gamma                  90.
_cell_volume                       545.75
_cell_formula_units_Z              4
_symmetry_space_group_name_H-M     'P n m a'
_symmetry_Int_Tables_number        62
_refine_ls_R_factor_all            .095
loop_
_symmetry_equiv_pos_site_id
_symmetry_equiv_pos_as_xyz
  1	'x+.5, y, -z+.5'
  2	'x, -y+.5, z'
  3	'-x+.5, y+.5, z+.5'
  4	'-x, -y, -z'
  5	'-x+.5, -y, z+.5'
  6	'-x, y+.5, -z'
  7	'x+.5, -y+.5, -z+.5'
  8	'x, y, z'
loop_
_atom_type_symbol
_atom_type_oxidation_number
B3+	3
Ca2+	2
O2-	-2
Si4+	4
loop_
_atom_site_label
_atom_site_type_symbol
_atom_site_symmetry_multiplicity
_atom_site_Wyckoff_symbol
_atom_site_fract_x
_atom_site_fract_y
_atom_site_fract_z
_atom_site_occupancy
_atom_site_attached_hydrogens
_atom_site_B_iso_or_equiv
Ca1 Ca2+ 4 c 0.3858(3) 0.25 0.0765(3) 1. 0 0.52 
Si1 Si4+ 8 d 0.0535(3) 0.9447(3) 0.1926(3) 1. 0 0.49 
B1 B3+ 8 d 0.2597(13) 0.0787(13) 0.4196(13) 1. 0 0.57 
O1 O2- 8 d 0.1931(9) 0.9964(9) 0.0680(9) 1. 0 0.39 
O2 O2- 8 d 0.1250(9) 0.9590(9) 0.3655(9) 1. 0 0.51 
O3 O2- 8 d 0.3996(9) 0.0781(9) 0.3124(9) 1. 0 0.45 
O4 O2- 4 c 0.4863(9) 0.75 0.3365(9) 1. 0 0.29 
O5 O2- 4 c 0.1848(9) 0.25 0.4272(9) 1. 0 0.34 

#End of data_26491-ICSD


