data_24267-ICSD
#?2014 by Fachinformationszentrum Karlsruhe, and the U.S. Secretary of 
#Commerce on behalf of the United States.  All rights reserved.
_database_code_ICSD                24267
_audit_creation_date               1980/01/01
_audit_update_record               2013/02/01
_chemical_name_systematic          'Disilver Telluride - Iii'
_chemical_formula_structural       'Ag2 Te'
_chemical_formula_sum              'Ag2 Te1'
_chemical_name_mineral             Hessite
_publ_section_title
;
The structure of hessite, Ag2 Te-III
;
loop_
_citation_id
_citation_journal_abbrev
_citation_year
_citation_journal_volume
_citation_page_first
_citation_page_last
_citation_journal_id_ASTM
primary
;
Zeitschrift fuer Kristallographie, Kristallgeometrie, Kristallphysik, 
Kristallchemie (-144,1977)
;
 1959 112 44 52 ZEKGAX
2 'Journal of Solid State Chemistry' 1987 66 1 6 JSSCBI
_publ_author_name                  'Frueh, A.J.jr.'
_cell_length_a                     8.09
_cell_length_b                     4.48
_cell_length_c                     8.96
_cell_angle_alpha                  90.
_cell_angle_beta                   123.33
_cell_angle_gamma                  90.
_cell_volume                       271.33
_cell_formula_units_Z              4
_symmetry_space_group_name_H-M     'P 1 21/c 1'
_symmetry_Int_Tables_number        14
_refine_ls_R_factor_all            .157
loop_
_symmetry_equiv_pos_site_id
_symmetry_equiv_pos_as_xyz
  1	'x, -y+.5, z+.5'
  2	'-x, -y, -z'
  3	'-x, y+.5, -z+.5'
  4	'x, y, z'
loop_
_atom_type_symbol
_atom_type_oxidation_number
Ag1+	1
Te2-	-2
loop_
_atom_site_label
_atom_site_type_symbol
_atom_site_symmetry_multiplicity
_atom_site_Wyckoff_symbol
_atom_site_fract_x
_atom_site_fract_y
_atom_site_fract_z
_atom_site_occupancy
_atom_site_attached_hydrogens
_atom_site_B_iso_or_equiv
Ag1 Ag1+ 4 e 0.018 0.152 0.371 1. 0 2.02 
Ag2 Ag1+ 4 e 0.332 0.837 0.995 1. 0 2.75 
Te1 Te2- 4 e 0.272 0.159 0.243 1. 0 1.07 

#End of data_24267-ICSD


