data_93021-ICSD
#?2014 by Fachinformationszentrum Karlsruhe, and the U.S. Secretary of 
#Commerce on behalf of the United States.  All rights reserved.
_database_code_ICSD                93021
_audit_creation_date               2003/04/01
_chemical_name_systematic
;
Lithium Vanadium(III) Diphosphate(V)
;
_chemical_formula_structural       'Li V (P2 O7)'
_chemical_formula_sum              'Li1 O7 P2 V1'
_publ_section_title
;
Crystal structure of a new vanadium(IV) diphosphate: V P2 O7, 
prepared by lithium extraction from Li V P2 O7
;
loop_
_citation_id
_citation_journal_abbrev
_citation_year
_citation_journal_volume
_citation_page_first
_citation_page_last
_citation_journal_id_ASTM
primary 'International Journal of Inorganic Materials' 2001 3 881 887 IJIMCR
_publ_author_name
;
Rousse, G.;Wurm, C.;Morcrette, M.;Rodriguez Carvajal, J.;Gaubicher, 
J.;Masquelier, C.
;
_cell_length_a                     4.8085(1)
_cell_length_b                     8.1151(1)
_cell_length_c                     6.9379(1)
_cell_angle_alpha                  90
_cell_angle_beta                   108.9705(9)
_cell_angle_gamma                  90
_cell_volume                       256.02
_cell_formula_units_Z              2
_symmetry_space_group_name_H-M     'P 1 21 1'
_symmetry_Int_Tables_number        4
_refine_ls_R_factor_all            .041
loop_
_symmetry_equiv_pos_site_id
_symmetry_equiv_pos_as_xyz
  1	'-x, y+.5, -z'
  2	'x, y, z'
loop_
_atom_type_symbol
_atom_type_oxidation_number
Li1+	1
O2-	-2
P5+	5
V3+	3
loop_
_atom_site_label
_atom_site_type_symbol
_atom_site_symmetry_multiplicity
_atom_site_Wyckoff_symbol
_atom_site_fract_x
_atom_site_fract_y
_atom_site_fract_z
_atom_site_occupancy
_atom_site_attached_hydrogens
_atom_site_B_iso_or_equiv
V1 V3+ 2 a 0.2163(4) 0.5 0.7285(3) 1. 0 1.29(4) 
P1 P5+ 2 a 0.2115(7) 0.7846(4) 0.0850(5) 1. 0 1.09(6) 
P2 P5+ 2 a 0.3996(5) 0.1812(5) 0.5220(4) 1. 0 1.23(6) 
O1 O2- 2 a 0.816(1) 0.5345(9) 0.5190(9) 1. 0 0.87(5) 
O2 O2- 2 a 0.398(1) 0.678(1) 0.6076(8) 1. 0 0.87(5) 
O3 O2- 2 a 0.056(1) 0.3219(8) 0.8546(9) 1. 0 0.87(5) 
O4 O2- 2 a 0.246(1) 0.3467(8) 0.5050(8) 1. 0 0.87(5) 
O5 O2- 2 a 0.125(1) 0.6944(9) 0.8871(9) 1. 0 0.87(5) 
O6 O2- 2 a 0.599(1) 0.4350(8) 0.9191(9) 1. 0 0.87(5) 
O7 O2- 2 a 0.407(1) 0.6506(8) 0.2443(8) 1. 0 0.87(5) 
Li1 Li1+ 2 a 0.172(5) 0.865(2) 0.680(3) 1. 0 1.64(45) 

#End of data_93021-ICSD


