data_202573-ICSD
#?2014 by Fachinformationszentrum Karlsruhe, and the U.S. Secretary of 
#Commerce on behalf of the United States.  All rights reserved.
_database_code_ICSD                202573
_audit_creation_date               1988/12/19
_audit_update_record               2005/10/01
_chemical_name_systematic
;
Potassium Dimanganese(III) Oxide Phosphate(V) Hydrogenphosphate(V)
;
_chemical_formula_structural       'K Mn2 O (P O4) (H P O4)'
_chemical_formula_sum              'H1 K1 Mn2 O9 P2'
_publ_section_title
;
Synthesis and crystal structure of K Mn2 O (P O4) (H P O4)
;
loop_
_citation_id
_citation_journal_abbrev
_citation_year
_citation_journal_volume
_citation_page_first
_citation_page_last
_citation_journal_id_ASTM
primary 'Journal of Solid State Chemistry' 1988 73 325 329 JSSCBI
_publ_author_name
;
Lightfoot, P.;Cheetham, A.K.;Sleight, A.W.
;
_cell_length_a                     6.226(1)
_cell_length_b                     6.890(2)
_cell_length_c                     8.809(1)
_cell_angle_alpha                  90.
_cell_angle_beta                   107.67(1)
_cell_angle_gamma                  90.
_cell_volume                       360.05
_cell_formula_units_Z              2
_symmetry_space_group_name_H-M     'P 1 21/m 1'
_symmetry_Int_Tables_number        11
_refine_ls_R_factor_all            .024
loop_
_symmetry_equiv_pos_site_id
_symmetry_equiv_pos_as_xyz
  1	'x, -y+.5, z'
  2	'-x, -y, -z'
  3	'-x, y+.5, -z'
  4	'x, y, z'
loop_
_atom_type_symbol
_atom_type_oxidation_number
H1+	1
K1+	1
Mn3+	3
O2-	-2
P5+	5
loop_
_atom_site_label
_atom_site_type_symbol
_atom_site_symmetry_multiplicity
_atom_site_Wyckoff_symbol
_atom_site_fract_x
_atom_site_fract_y
_atom_site_fract_z
_atom_site_occupancy
_atom_site_attached_hydrogens
_atom_site_U_iso_or_equiv
Mn1 Mn3+ 2 b 0.5 0 0 1. 0 0 
Mn2 Mn3+ 2 e 0.46427(3) 0.25 0.28702(2) 1. 0 0 
K1 K1+ 2 e 0.94812(5) 0.25 0.82656(4) 1. 0 0 
P1 P5+ 2 e 0.89085(5) 0.25 0.18995(3) 1. 0 0 
P2 P5+ 2 e 0.43163(5) 0.25 0.65307(3) 1. 0 0 
O1 O2- 2 e 0.7895(2) 0.25 0.3291(1) 1. 0 0 
O2 O2- 2 e 0.4192(1) 0.25 0.0623(1) 1. 0 0 
O3 O2- 2 e 0.5208(2) 0.25 0.5109(1) 1. 0 0 
O4 O2- 2 e 0.1457(2) 0.25 0.2613(1) 1. 0 0 
O5 O2- 2 e 0.1665(2) 0.25 0.6030(1) 1. 0 0 
O6 O2- 4 f 0.8153(1) 0.06801(9) 0.08467(8) 1. 0 0 
O7 O2- 4 f 0.5153(1) 0.07046(9) 0.75590(8) 1. 0 0 
H1 H1+ 2 e 0.090(8) 0.25 0.514(6) 1. 0 0.08(2) 

loop_
_atom_site_aniso_label
_atom_site_aniso_type_symbol
_atom_site_aniso_U_11
_atom_site_aniso_U_22
_atom_site_aniso_U_33
_atom_site_aniso_U_12
_atom_site_aniso_U_13
_atom_site_aniso_U_23
Mn1 Mn3+ 0.00729(8) 0.00226(8) 0.00632(8) -.00020(4) 0.00172(5) -.00112(4)
Mn2 Mn3+ 0.00611(8) 0.00486(8) 0.00450(8) 0 0.00175(5) 0
K1 K1+ 0.0128(1) 0.0110(1) 0.0207(1) 0 0.00658(9) 0
P1 P5+ 0.0060(1) 0.0045(1) 0.0058(1) 0 0.00149(8) 0
P2 P5+ 0.0095(1) 0.0046(1) 0.0047(1) 0 0.00235(9) 0
O1 O2- 0.0086(3) 0.0108(3) 0.0072(3) 0 0.0034(2) 0
O2 O2- 0.0101(3) 0.0027(3) 0.0061(3) 0 0.0022(2) 0
O3 O2- 0.0132(3) 0.0159(4) 0.0058(3) 0 0.0040(3) 0
O4 O2- 0.0060(3) 0.0187(4) 0.0129(4) 0 0.0016(3) 0
O5 O2- 0.0097(4) 0.0342(6) 0.0098(4) 0 0.0014(3) 0
O6 O2- 0.0093(2) 0.0060(2) 0.0109(2) -.0002(2) 0.0023(2) -.0028(2)
O7 O2- 0.0168(3) 0.0046(2) 0.0082(2) 0.0002(2) 0.0034(2) 0.0018(2)
#End of data_202573-ICSD


