data_62333-ICSD
#?2014 by Fachinformationszentrum Karlsruhe, and the U.S. Secretary of 
#Commerce on behalf of the United States.  All rights reserved.
_database_code_ICSD                62333
_audit_creation_date               1988/07/15
_audit_update_record               2010/08/01
_chemical_name_systematic
;
Trilithium Diindium Tris(phosphate(V)) - Ht
;
_chemical_formula_structural       'Li3 In2 (P O4)3'
_chemical_formula_sum              'In2 Li3 O12 P3'
_publ_section_title
;
Crystal structure of Li3 In2 (P O4)3
;
loop_
_citation_id
_citation_journal_abbrev
_citation_year
_citation_journal_volume
_citation_page_first
_citation_page_last
_citation_journal_id_ASTM
primary Kristallografiya 1987 32 74 78 KRISAJ
2 'Soviet Physics, Crystallography (= Kristallografiya)'
 1987 32 40 42 SPHCA6
3 'Golden Book of Phase Transitions, Wroclaw' 2002 1 1 123 GBOPT5
_publ_author_name
;
Genkina, E.A.;Muradyan, L.A.;Maksimov, B.A.;Merinov, B.A.;Sigarev, 
S.E.
;
_cell_length_a                     8.432(2)
_cell_length_b                     8.432(2)
_cell_length_c                     23.268(6)
_cell_angle_alpha                  90.
_cell_angle_beta                   90.
_cell_angle_gamma                  120.
_cell_volume                       1432.69
_cell_formula_units_Z              6
_symmetry_space_group_name_H-M     'R -3 H'
_symmetry_Int_Tables_number        148
_refine_ls_R_factor_all            .035
loop_
_symmetry_equiv_pos_site_id
_symmetry_equiv_pos_as_xyz
  1	'x-y, x, -z'
  2	'y, -x+y, -z'
  3	'-x, -y, -z'
  4	'-x+y, -x, z'
  5	'-y, x-y, z'
  6	'x, y, z'
  7	'x-y+.6666, x+.3333, -z+.3333'
  8	'x-y+.3333, x+.6666, -z+.6666'
  9	'y+.6666, -x+y+.3333, -z+.3333'
 10	'y+.3333, -x+y+.6666, -z+.6666'
 11	'-x+.6666, -y+.3333, -z+.3333'
 12	'-x+.3333, -y+.6666, -z+.6666'
 13	'-x+y+.6666, -x+.3333, z+.3333'
 14	'-x+y+.3333, -x+.6666, z+.6666'
 15	'-y+.6666, x-y+.3333, z+.3333'
 16	'-y+.3333, x-y+.6666, z+.6666'
 17	'x+.6666, y+.3333, z+.3333'
 18	'x+.3333, y+.6666, z+.6666'
loop_
_atom_type_symbol
_atom_type_oxidation_number
In3+	3
Li1+	1
O2-	-2
P5+	5
loop_
_atom_site_label
_atom_site_type_symbol
_atom_site_symmetry_multiplicity
_atom_site_Wyckoff_symbol
_atom_site_fract_x
_atom_site_fract_y
_atom_site_fract_z
_atom_site_occupancy
_atom_site_attached_hydrogens
_atom_site_B_iso_or_equiv
In1 In3+ 6 c 0 0 0.1460(1) 1. 0 1.41 
In2 In3+ 6 c 0 0 0.6551(1) 1. 0 2.06 
P1 P5+ 18 f 0.2947(3) -.0023(3) 0.2507(1) 1. 0 1.26 
O1 O2- 18 f 0.205(1) -.0101(10) 0.1941(3) 1. 0 3.24 
O2 O2- 18 f 0.7596(10) 0.9073(10) 0.7031 1. 0 2.6 
O3 O2- 18 f 0.2360(8) -.1981(8) 0.2691(3) 1. 0 1.64 
O4 O2- 18 f 0.4960(8) 0.8907(8) 0.7562(3) 1. 0 1.59 
Li1 Li1+ 18 f 0.355(3) 0.044(3) 0.380(1) 1. 0 5.0(5) 

#End of data_62333-ICSD


