data_1531-ICSD
#?2014 by Fachinformationszentrum Karlsruhe, and the U.S. Secretary of 
#Commerce on behalf of the United States.  All rights reserved.
_database_code_ICSD                1531
_audit_creation_date               1980/01/01
_audit_update_record               2014/08/01
_chemical_name_systematic
;
Calcium Chloride Tetrahydrate - Beta
;
_chemical_formula_structural       'Ca Cl2 (H2 O)4'
_chemical_formula_sum              'H8 Ca1 Cl2 O4'
_publ_section_title
;
La forme beta du dichlorure de calcium tetrahydrate
;
loop_
_citation_id
_citation_journal_abbrev
_citation_year
_citation_journal_volume
_citation_page_first
_citation_page_last
_citation_journal_id_ASTM
primary 'Acta Crystallographica B (24,1968-38,1982)' 1978 34 900 902 ACBCAR
_publ_author_name                  'Leclaire, A.;Borel, M.M.'
_cell_length_a                     8.923(5)
_cell_length_b                     10.221(4)
_cell_length_c                     12.787(6)
_cell_angle_alpha                  90.
_cell_angle_beta                   114.68(4)
_cell_angle_gamma                  90.
_cell_volume                       1059.67
_cell_formula_units_Z              6
_symmetry_space_group_name_H-M     'P 1 21/c 1'
_symmetry_Int_Tables_number        14
_refine_ls_R_factor_all            .068
loop_
_symmetry_equiv_pos_site_id
_symmetry_equiv_pos_as_xyz
  1	'x, -y+.5, z+.5'
  2	'-x, -y, -z'
  3	'-x, y+.5, -z+.5'
  4	'x, y, z'
loop_
_atom_type_symbol
_atom_type_oxidation_number
Ca2+	2
Cl1-	-1
H1+	1
O2-	-2
loop_
_atom_site_label
_atom_site_type_symbol
_atom_site_symmetry_multiplicity
_atom_site_Wyckoff_symbol
_atom_site_fract_x
_atom_site_fract_y
_atom_site_fract_z
_atom_site_occupancy
_atom_site_attached_hydrogens
Ca1 Ca2+ 2 a 0 0 0 1. 0 
Ca2 Ca2+ 4 e -.25823(8) 0.04678(6) 0.36331(5) 1. 0 
Cl1 Cl1- 4 e 0.17335(10) 0.00358(9) 0.23318(7) 1. 0 
Cl2 Cl1- 4 e 0.24353(10) 0.14100(8) -.02716(7) 1. 0 
Cl3 Cl1- 4 e -.1577(1) 0.22657(7) 0.00901(6) 1. 0 
O1 O2- 4 e -.15451(30) -.13888(27) 0.30165(21) 1. 0 
O2 O2- 4 e -.45683(35) -.02929(31) 0.16590(27) 1. 0 
O3 O2- 4 e -.44719(36) -.08630(35) 0.40912(32) 1. 0 
O4 O2- 4 e -.20150(43) 0.19396(31) 0.24069(24) 1. 0 
O5 O2- 4 e -.50183(37) 0.18094(29) 0.31412(34) 1. 0 
O6 O2- 4 e -.08970(31) -.06608(23) 0.55297(21) 1. 0 
H1 H1+ 4 e -.1648 -.1593 0.2241 1. 0 
H2 H1+ 4 e -.0566 -.182 0.3585 1. 0 
H3 H1+ 4 e -.5499 0.0225 0.1131 1. 0 
H4 H1+ 4 e -.384 -.0507 0.1285 1. 0 
H5 H1+ 4 e -.5622 -.0625 0.388 1. 0 
H6 H1+ 4 e -.4275 -.1753 0.4405 1. 0 
H7 H1+ 4 e -.1924 0.171 0.1692 1. 0 
H8 H1+ 4 e -.1908 0.2889 0.2519 1. 0 
H9 H1+ 4 e -.6134 0.1469 0.2912 1. 0 
H10 H1+ 4 e -.5049 0.2768 0.3129 1. 0 
H11 H1+ 4 e -.1128 -.0389 0.6182 1. 0 
H12 H1+ 4 e -.1127 -.1597 0.5388 1. 0 

#End of data_1531-ICSD


