data_168048-ICSD
#?2014 by Fachinformationszentrum Karlsruhe, and the U.S. Secretary of 
#Commerce on behalf of the United States.  All rights reserved.
_database_code_ICSD                168048
_audit_creation_date               2011/02/01
_chemical_name_systematic          'Calcium Zinc Hexaoxodisilicate'
_chemical_formula_structural       'Ca Zn (Si2 O6)'
_chemical_formula_sum              'Ca1 O6 Si2 Zn1'
_chemical_name_mineral             'Clinopyroxene - (Ca,Zn)'
_publ_section_title
;
High-pressure behavior of Ca/Na clinopyroxenes: the effect of 
divalent and trivalent 3d-transition elements
;
loop_
_citation_id
_citation_journal_abbrev
_citation_year
_citation_journal_volume
_citation_page_first
_citation_page_last
_citation_journal_id_ASTM
primary 'American Mineralogist' 2010 95 832 838 AMMIAY
_publ_author_name
;
Nestola, F.;Boffa Ballaran, T.;Angel, R.J.;Zhao Jing;Ohashi, H.
;
_cell_length_a                     9.7164(3)
_cell_length_b                     8.8653(2)
_cell_length_c                     5.2011(7)
_cell_angle_alpha                  90.00
_cell_angle_beta                   105.266(3)
_cell_angle_gamma                  90.00
_cell_volume                       432.21
_cell_formula_units_Z              4
_symmetry_space_group_name_H-M     'C 1 2/c 1'
_symmetry_Int_Tables_number        15
_refine_ls_R_factor_all            .0319
loop_
_symmetry_equiv_pos_site_id
_symmetry_equiv_pos_as_xyz
  1	'x, -y, z+.5'
  2	'-x, -y, -z'
  3	'-x, y, -z+.5'
  4	'x, y, z'
  5	'x+.5, -y+.5, z+.5'
  6	'-x+.5, -y+.5, -z'
  7	'-x+.5, y+.5, -z+.5'
  8	'x+.5, y+.5, z'
loop_
_atom_type_symbol
_atom_type_oxidation_number
Ca2+	2
O2-	-2
Si4+	4
Zn2+	2
loop_
_atom_site_label
_atom_site_type_symbol
_atom_site_symmetry_multiplicity
_atom_site_Wyckoff_symbol
_atom_site_fract_x
_atom_site_fract_y
_atom_site_fract_z
_atom_site_occupancy
_atom_site_attached_hydrogens
_atom_site_U_iso_or_equiv
Ca1 Ca2+ 4 e 0.0000 0.30216(16) 0.2500 1 0 0.0079(4) 
Zn1 Zn2+ 4 e 0.0000 0.90695(9) 0.2500 1 0 0.0072(3) 
Si1 Si4+ 8 f 0.28656(15) 0.09343(14) 0.2266(6) 1 0 0.0055(4) 
O1 O2- 8 f 0.1162(4) 0.0900(4) 0.1421(15) 1 0 0.0057(8) 
O2 O2- 8 f 0.3593(4) 0.2505(4) 0.3267(16) 1 0 0.0071(8) 
O3 O2- 8 f 0.3518(4) 0.0221(4) -0.0100(17) 1 0 0.0071(9) 

#End of data_168048-ICSD


