data_171459-ICSD
#?2014 by Fachinformationszentrum Karlsruhe, and the U.S. Secretary of 
#Commerce on behalf of the United States.  All rights reserved.
_database_code_ICSD                171459
_audit_creation_date               2006/10/01
_chemical_name_systematic          'Disodium Oxalate'
_chemical_formula_structural       'Na2 C2 O4'
_chemical_formula_sum              'C2 Na2 O4'
_publ_section_title
;
Effect of hydrostatic pressure on the crystal structure of sodium 
oxalate: x-ray diffraction study and ab initio simulations
;
loop_
_citation_id
_citation_journal_abbrev
_citation_year
_citation_journal_volume
_citation_page_first
_citation_page_last
_citation_journal_id_ASTM
primary 'Zeitschrift fuer Kristallographie (1979-2010)' 2006 221 186 197 ZEKRDZ
_publ_author_name
;
Boldyreva, E.V.;Ahsbahs, H.;Chernyshev, V.V.;Ivashevskaya, 
S.N.;Oganov, A.R.
;
_cell_length_a                     3.556
_cell_length_b                     5.286
_cell_length_c                     10.591
_cell_angle_alpha                  90
_cell_angle_beta                   93.84
_cell_angle_gamma                  90
_cell_volume                       198.63
_cell_formula_units_Z              2
_symmetry_space_group_name_H-M     'P 1 21/c 1'
_symmetry_Int_Tables_number        14
loop_
_symmetry_equiv_pos_site_id
_symmetry_equiv_pos_as_xyz
  1	'x, -y+.5, z+.5'
  2	'-x, -y, -z'
  3	'-x, y+.5, -z+.5'
  4	'x, y, z'
loop_
_atom_type_symbol
_atom_type_oxidation_number
C3+	3
Na1+	1
O2-	-2
loop_
_atom_site_label
_atom_site_type_symbol
_atom_site_symmetry_multiplicity
_atom_site_Wyckoff_symbol
_atom_site_fract_x
_atom_site_fract_y
_atom_site_fract_z
_atom_site_occupancy
_atom_site_attached_hydrogens
Na1 Na1+ 4 e 0.29845 0.05652 0.35584 1. 0 
O1 O2- 4 e 0.16121 -0.11676 0.15060 1. 0 
O2 O2- 4 e 0.22946 0.26902 0.06707 1. 0 
C1 C3+ 4 e 0.11343 0.04402 0.06311 1. 0 

#End of data_171459-ICSD


