data_1410-ICSD
#?2014 by Fachinformationszentrum Karlsruhe, and the U.S. Secretary of 
#Commerce on behalf of the United States.  All rights reserved.
_database_code_ICSD                1410
_audit_creation_date               1980/01/01
_audit_update_record               2010/02/01
_chemical_name_systematic          'Tetrasodium Ferrate(II)'
_chemical_formula_structural       'Na4 (Fe O3)'
_chemical_formula_sum              'Fe1 Na4 O3'
_publ_section_title                'Zur Kenntnis von Na4 (Fe O3)'
loop_
_citation_id
_citation_journal_abbrev
_citation_year
_citation_journal_volume
_citation_page_first
_citation_page_last
_citation_journal_id_ASTM
primary 'Zeitschrift fuer Anorganische und Allgemeine Chemie (1950) (DE)'
 1977 437 95 104 ZAACAB
_publ_author_name                  'Hoppe, R.;Rieck, H.'
_cell_length_a                     10.967
_cell_length_b                     5.82
_cell_length_c                     8.224
_cell_angle_alpha                  90.
_cell_angle_beta                   114.
_cell_angle_gamma                  90.
_cell_volume                       479.54
_cell_formula_units_Z              4
_symmetry_space_group_name_H-M     'C 1 c 1'
_symmetry_Int_Tables_number        9
_refine_ls_R_factor_all            .0446
loop_
_symmetry_equiv_pos_site_id
_symmetry_equiv_pos_as_xyz
  1	'x, -y, z+.5'
  2	'x, y, z'
  3	'x+.5, -y+.5, z+.5'
  4	'x+.5, y+.5, z'
loop_
_atom_type_symbol
_atom_type_oxidation_number
Fe2+	2
Na1+	1
O2-	-2
loop_
_atom_site_label
_atom_site_type_symbol
_atom_site_symmetry_multiplicity
_atom_site_Wyckoff_symbol
_atom_site_fract_x
_atom_site_fract_y
_atom_site_fract_z
_atom_site_occupancy
_atom_site_attached_hydrogens
_atom_site_B_iso_or_equiv
Na1 Na1+ 4 a 0.7072(7) 0.1608(8) 0.631(1) 1. 0 0.99 
Na2 Na1+ 4 a 0.3062(8) 0.7879(8) 0.351(2) 1. 0 1.45 
Na3 Na1+ 4 a 0.1127(7) 0.1620(8) 0.445(1) 1. 0 1.1 
Na4 Na1+ 4 a 0.8856(8) 0.841(1) 0.532(2) 1. 0 1.6 
Fe1 Fe2+ 4 a 0.9785(2) 0.6464(2) 0.2441(7) 1. 0 0.56 
O1 O2- 4 a 0.3159(8) 0.905(2) 0.109(2) 1. 0 1. 
O2 O2- 4 a 0.6468(8) 0.989(2) 0.843(2) 1. 0 0.9 
O3 O2- 4 a 0.4391(8) 0.444(1) 0.296(2) 1. 0 1. 

#End of data_1410-ICSD


