data_261305-ICSD
#?2014 by Fachinformationszentrum Karlsruhe, and the U.S. Secretary of 
#Commerce on behalf of the United States.  All rights reserved.
_database_code_ICSD                261305
_audit_creation_date               2011/08/01
_chemical_name_systematic          'Aluminium Phosphate'
_chemical_formula_structural       'Al P O4'
_chemical_formula_sum              'Al1 O4 P1'
_publ_section_title
;
Structures of two new high-pressure forms of Al P O4 by X-ray powder 
diffraction and NMR spectroscopy
;
loop_
_citation_id
_citation_journal_abbrev
_citation_year
_citation_journal_volume
_citation_journal_issue
_citation_page_first
_citation_page_last
_citation_journal_id_ASTM
primary 'Acta Crystallographica B (24,1968-38,1982)' 2011 67 1 30 40 ACBCAR
_publ_author_name
;
Kanzaki, M.;Xue Xianyu;Reibstein, S.;Berryman, E.;Namgung, S.
;
_cell_length_a                     6.13280(10)
_cell_length_b                     7.51510(10)
_cell_length_c                     8.58010(10)
_cell_angle_alpha                  98.2630(7)
_cell_angle_beta                   104.6220(8)
_cell_angle_gamma                  102.1398(8)
_cell_volume                       365.9
_cell_formula_units_Z              6
_symmetry_space_group_name_H-M     'P -1'
_symmetry_Int_Tables_number        2
_refine_ls_R_factor_all            .033
loop_
_symmetry_equiv_pos_site_id
_symmetry_equiv_pos_as_xyz
  1	'-x, -y, -z'
  2	'x, y, z'
loop_
_atom_type_symbol
_atom_type_oxidation_number
Al3+	3
O2-	-2
P5+	5
loop_
_atom_site_label
_atom_site_type_symbol
_atom_site_symmetry_multiplicity
_atom_site_Wyckoff_symbol
_atom_site_fract_x
_atom_site_fract_y
_atom_site_fract_z
_atom_site_occupancy
_atom_site_attached_hydrogens
Al1 Al3+ 2 i 0.7618(4) 0.6879(4) 0.4185(3) 1.0 0 
Al2 Al3+ 2 i 0.4695(4) 0.8960(4) 0.2105(3) 1.0 0 
Al3 Al3+ 2 i 0.9820(5) 0.3015(4) 0.0226(3) 1.0 0 
P1 P5+ 2 i 0.0083(4) 0.0074(3) 0.2594(2) 1.0 0 
P2 P5+ 2 i 0.1993(3) 0.5970(3) 0.3444(3) 1.0 0 
P3 P5+ 2 i 0.5223(4) 0.3020(3) 0.1316(3) 1.0 0 
O1 O2- 2 i 0.9463(7) 0.1423(6) 0.1537(5) 1.0 0 
O2 O2- 2 i 0.7696(8) 0.8770(6) 0.2642(3) 1.0 0 
O3 O2- 2 i 0.1342(7) 0.8740(6) 0.1690(5) 1.0 0 
O4 O2- 2 i 0.1768(7) 0.0967(6) 0.4309(5) 1.0 0 
O5 O2- 2 i 0.0558(7) 0.5307(6) 0.1543(4) 1.0 0 
O6 O2- 2 i 0.2652(7) 0.4339(6) 0.4180(5) 1.0 0 
O7 O2- 2 i 0.0650(7) 0.7026(6) 0.4317(5) 1.0 0 
O8 O2- 2 i 0.4380(8) 0.7370(5) 0.3525(5) 1.0 0 
O9 O2- 2 i 0.3516(7) 0.7298(5) 0.0127(5) 1.0 0 
O10 O2- 2 i 0.5181(7) 0.1299(5) 0.2119(5) 1.0 0 
O11 O2- 2 i 0.2772(7) 0.3054(6) 0.0374(5) 1.0 0 
O12 O2- 2 i 0.6533(6) 0.4772(6) 0.2497(5) 1.0 0 

#End of data_261305-ICSD


