data_16270-ICSD
#?2014 by Fachinformationszentrum Karlsruhe, and the U.S. Secretary of 
#Commerce on behalf of the United States.  All rights reserved.
_database_code_ICSD                16270
_audit_creation_date               1980/01/01
_audit_update_record               1987/10/13
_chemical_name_systematic          'Sodium Manganate(III) - Alpha'
_chemical_formula_structural       'Na Mn O2'
_chemical_formula_sum              'Mn1 Na1 O2'
_publ_section_title
;
Sur Quelques Nouvelles Phases de Formule Nax Mn O2 (X<1)
;
loop_
_citation_id
_citation_journal_abbrev
_citation_year
_citation_journal_volume
_citation_page_first
_citation_page_last
_citation_journal_id_ASTM
primary 'Journal of Solid State Chemistry' 1971 3 1 11 JSSCBI
_publ_author_name
;
Parant, J.P.;Olazcuaga, R.;Devalette, M.;Fouassier, C.;Hagenmuller, 
P.
;
_cell_length_a                     5.63(1)
_cell_length_b                     2.860(4)
_cell_length_c                     5.77(1)
_cell_angle_alpha                  90.
_cell_angle_beta                   112.9
_cell_angle_gamma                  90.
_cell_volume                       85.58
_cell_formula_units_Z              2
_symmetry_space_group_name_H-M     'C 1 2/m 1'
_symmetry_Int_Tables_number        12
_refine_ls_R_factor_all            .07
loop_
_symmetry_equiv_pos_site_id
_symmetry_equiv_pos_as_xyz
  1	'-x, y, -z'
  2	'-x, -y, -z'
  3	'x, -y, z'
  4	'x, y, z'
  5	'-x+.5, y+.5, -z'
  6	'-x+.5, -y+.5, -z'
  7	'x+.5, -y+.5, z'
  8	'x+.5, y+.5, z'
loop_
_atom_type_symbol
_atom_type_oxidation_number
Mn3+	3
Na1+	1
O2-	-2
loop_
_atom_site_label
_atom_site_type_symbol
_atom_site_symmetry_multiplicity
_atom_site_Wyckoff_symbol
_atom_site_fract_x
_atom_site_fract_y
_atom_site_fract_z
_atom_site_occupancy
_atom_site_attached_hydrogens
Mn1 Mn3+ 2 a 0 0 0 1. 0 
Na1 Na1+ 2 d 0 0.5 0.5 1. 0 
O1 O2- 4 i 0.278 0 0.795 1. 0 

#End of data_16270-ICSD


