data_84364-ICSD
#?2014 by Fachinformationszentrum Karlsruhe, and the U.S. Secretary of 
#Commerce on behalf of the United States.  All rights reserved.
_database_code_ICSD                84364
_audit_creation_date               1999/01/19
_chemical_name_systematic
;
Potassium Nonafluoroditellurate(IV)
;
_chemical_formula_structural       'K (Te2 F9)'
_chemical_formula_sum              'F9 K1 Te2'
_publ_section_title
;
Synthesis and crystal structure of a new potassium 
fluorotellurate(IV): K Te2 F9
;
loop_
_citation_id
_citation_journal_abbrev
_citation_year
_citation_journal_volume
_citation_page_first
_citation_page_last
_citation_journal_id_ASTM
primary 'Journal of Fluorine Chemistry' 1997 85 177 181 JFLCAR
_publ_author_name                  'Guillet, L.;Laval, J.P.;Frit, B.'
_cell_length_a                     4.757(2)
_cell_length_b                     9.333(5)
_cell_length_c                     9.467(4)
_cell_angle_alpha                  108.82(3)
_cell_angle_beta                   95.79(3)
_cell_angle_gamma                  96.11(2)
_cell_volume                       391.47
_cell_formula_units_Z              2
_symmetry_space_group_name_H-M     'P -1'
_symmetry_Int_Tables_number        2
_refine_ls_R_factor_all            .054
loop_
_symmetry_equiv_pos_site_id
_symmetry_equiv_pos_as_xyz
  1	'-x, -y, -z'
  2	'x, y, z'
loop_
_atom_type_symbol
_atom_type_oxidation_number
F1-	-1
K1+	1
Te4+	4
loop_
_atom_site_label
_atom_site_type_symbol
_atom_site_symmetry_multiplicity
_atom_site_Wyckoff_symbol
_atom_site_fract_x
_atom_site_fract_y
_atom_site_fract_z
_atom_site_occupancy
_atom_site_attached_hydrogens
Te1 Te4+ 2 i 0.1163(1) 0.5381(1) 0.8056(1) 1. 0 
Te2 Te4+ 2 i 0.3602(1) 0.0917(1) 0.8221(1) 1. 0 
K1 K1+ 2 i 0.3785(4) 0.2370(2) 0.4583(2) 1. 0 
F1 F1- 2 i 0.1363(12) 0.5989(7) 0.3557(7) 1. 0 
F2 F1- 2 i 0.0121(12) 0.2975(6) 0.2362(7) 1. 0 
F3 F1- 2 i 0.6201(13) 0.0927(7) 0.6871(7) 1. 0 
F4 F1- 2 i 0.3398(12) 0.5398(7) 0.6439(6) 1. 0 
F5 F1- 2 i 0.1533(13) 0.9417(6) 0.6381(6) 1. 0 
F6 F1- 2 i 0.2561(12) 0.2602(6) 0.7484(6) 1. 0 
F7 F1- 2 i 0.2179(12) 0.4520(8) 0.0882(7) 1. 0 
F8 F1- 2 i 0.4337(14) 0.0709(7) 0.1566(7) 1. 0 
F9 F1- 2 i 0.6890(15) 0.2363(7) 0.9603(8) 1. 0 

loop_
_atom_site_aniso_label
_atom_site_aniso_type_symbol
_atom_site_aniso_U_11
_atom_site_aniso_U_22
_atom_site_aniso_U_33
_atom_site_aniso_U_12
_atom_site_aniso_U_13
_atom_site_aniso_U_23
Te1 Te4+ 0.021(1) 0.024(1) 0.021(1) 0.007(1) -.001(1) 0.009(1)
Te2 Te4+ 0.029(1) 0.023(1) 0.024(1) 0.009(1) 0.001(1) 0.007(1)
K1 K1+ 0.034(1) 0.032(1) 0.029(1) 0.005(1) 0.000(1) 0.005(1)
F1 F1- 0.037(3) 0.038(3) 0.046(3) 0.000(2) -.018(2) 0.010(2)
F2 F1- 0.040(3) 0.035(3) 0.047(3) 0.013(2) -.002(2) 0.021(2)
F3 F1- 0.038(3) 0.044(3) 0.041(3) 0.009(2) 0.015(2) 0.011(2)
F4 F1- 0.037(3) 0.054(3) 0.034(3) 0.012(2) 0.010(2) 0.020(2)
F5 F1- 0.039(3) 0.035(3) 0.038(3) 0.001(2) -.004(2) 0.008(2)
F6 F1- 0.045(3) 0.033(2) 0.045(3) 0.015(2) 0.003(2) 0.020(2)
F7 F1- 0.033(3) 0.061(4) 0.044(3) 0.009(2) 0.009(2) 0.026(3)
F8 F1- 0.061(4) 0.036(3) 0.044(3) 0.024(3) 0.001(3) 0.015(2)
F9 F1- 0.056(4) 0.035(3) 0.053(4) 0.002(3) -.014(3) 0.000(3)
#End of data_84364-ICSD


