data_236881-ICSD
#?2014 by Fachinformationszentrum Karlsruhe, and the U.S. Secretary of 
#Commerce on behalf of the United States.  All rights reserved.
_database_code_ICSD                236881
_audit_creation_date               2014/08/01
_chemical_name_systematic
;
Dilithium Amidoborane Borotetrahydride
;
_chemical_formula_structural       'Li2 (N H2 B H3) (B H4)'
_chemical_formula_sum              'H9 B2 Li2 N1'
_publ_section_title
;
Li2(NH2BH3)(BH4)/LiNH2BH3: The first metal amidoborane borohydride 
complex with inseparable amidoborane precursor for hydrogen storage
;
loop_
_citation_id
_citation_journal_abbrev
_citation_year
_citation_journal_volume
_citation_journal_issue
_citation_page_first
_citation_page_last
_citation_journal_id_ASTM
primary 'International Journal of Hydrogen Energy' 2013 38 1 197 204 IJHEDX
_publ_author_name
;
Luo, Junhong;Wu, Hui;Zhou, Wei;Kang, Xiangdong;Wang, Ping
;
_cell_length_a                     9.2677(13)
_cell_length_b                     14.2669(20)
_cell_length_c                     7.5876(10)
_cell_angle_alpha                  90.0
_cell_angle_beta                   90.0
_cell_angle_gamma                  90.0
_cell_volume                       1003.24
_cell_formula_units_Z              8
_symmetry_space_group_name_H-M     'P b c a'
_symmetry_Int_Tables_number        61
_refine_ls_R_factor_all            .0403
loop_
_symmetry_equiv_pos_site_id
_symmetry_equiv_pos_as_xyz
  1	'x+.5, y, -z+.5'
  2	'x, -y+.5, z+.5'
  3	'-x+.5, y+.5, z'
  4	'-x, -y, -z'
  5	'-x+.5, -y, z+.5'
  6	'-x, y+.5, -z+.5'
  7	'x+.5, -y+.5, -z'
  8	'x, y, z'
loop_
_atom_type_symbol
_atom_type_oxidation_number
B3+	3
H1-	-1
H1+	1
Li1+	1
N3-	-3
loop_
_atom_site_label
_atom_site_type_symbol
_atom_site_symmetry_multiplicity
_atom_site_Wyckoff_symbol
_atom_site_fract_x
_atom_site_fract_y
_atom_site_fract_z
_atom_site_occupancy
_atom_site_attached_hydrogens
_atom_site_U_iso_or_equiv
B1 B3+ 8 c 0.3763(6) 0.7300(5) 0.3898(12) 1.0 0 0.01966 
H1 H1- 8 c 0.2616(6) 0.7760(10) 0.3879(21) 1.0 0 0.01966 
H2 H1- 8 c 0.3688(13) 0.6789(8) 0.5234(17) 1.0 0 0.01966 
H3 H1- 8 c 0.3691(13) 0.6761(9) 0.2602(17) 1.0 0 0.01966 
N1 N3- 8 c 0.5059(6) 0.78956(28) 0.3878(6) 1.0 0 0.01966 
H4 H1+ 8 c 0.5099(11) 0.8323(6) 0.2794(12) 1.0 0 0.01966 
H5 H1+ 8 c 0.5096(11) 0.8346(5) 0.4930(12) 1.0 0 0.01966 
Li1 Li1+ 8 c 0.6988(7) 0.7151(10) 0.3910(21) 1.0 0 0.04314 
B2 B3+ 8 c 0.1692(7) 0.5206(5) 0.1887(9) 1.0 0 -0.00029 
H6 H1- 8 c 0.0613(7) 0.4727(5) 0.1652(9) 1.0 0 -0.00029 
H7 H1- 8 c 0.2741(7) 0.4694(5) 0.2090(9) 1.0 0 -0.00029 
H8 H1- 8 c 0.1888(7) 0.5710(5) 0.0602(9) 1.0 0 -0.00029 
H9 H1- 8 c 0.1529(7) 0.5692(5) 0.3202(9) 1.0 0 -0.00029 
Li2 Li1+ 8 c 0.3597(17) 0.5399(11) 0.3898(23) 1.0 0 0.04314 

#End of data_236881-ICSD


