data_100261-ICSD
#?2014 by Fachinformationszentrum Karlsruhe, and the U.S. Secretary of 
#Commerce on behalf of the United States.  All rights reserved.
_database_code_ICSD                100261
_audit_creation_date               1980/01/01
_audit_update_record               2000/07/15
_chemical_name_systematic
;
Dicalcium Nonaoxopentaborate Chloride Hydrate
;
_chemical_formula_structural       'Ca2 (B5 O9) Cl (H2 O)'
_chemical_formula_sum              'H2 B5 Ca2 Cl1 O10'
_chemical_name_mineral             'Hilgardite 4M'
_publ_section_title
;
Hilgardite, Ca2 (B5 O9) Cl (H2 O): a piezoelectric Zeolite-type 
pentaborate
;
loop_
_citation_id
_citation_journal_abbrev
_citation_year
_citation_journal_volume
_citation_page_first
_citation_page_last
_citation_journal_id_ASTM
primary 'American Mineralogist' 1979 64 187 195 AMMIAY
2 'Nature (London)' 1977 270 594 595 NATUAS
_publ_author_name                  'Ghose, S.;Wan, C.'
_cell_length_a                     11.438(2)
_cell_length_b                     11.318(2)
_cell_length_c                     6.318(1)
_cell_angle_alpha                  90.
_cell_angle_beta                   90.06(1)
_cell_angle_gamma                  90.
_cell_volume                       817.9
_cell_formula_units_Z              4
_symmetry_space_group_name_H-M     'A 1 a 1'
_symmetry_Int_Tables_number        9
_refine_ls_R_factor_all            .017
loop_
_symmetry_equiv_pos_site_id
_symmetry_equiv_pos_as_xyz
  1	'x+.5, -y, z'
  2	'x, y, z'
  3	'x+.5, -y+.5, z+.5'
  4	'x, y+.5, z+.5'
loop_
_atom_type_symbol
_atom_type_oxidation_number
B3+	3
Ca2+	2
Cl1-	-1
H1+	1
O2-	-2
loop_
_atom_site_label
_atom_site_type_symbol
_atom_site_symmetry_multiplicity
_atom_site_Wyckoff_symbol
_atom_site_fract_x
_atom_site_fract_y
_atom_site_fract_z
_atom_site_occupancy
_atom_site_attached_hydrogens
_atom_site_B_iso_or_equiv
Ca1 Ca2+ 4 a 0 0.25023(3) 0 1. 0 0 
Ca2 Ca2+ 4 a 0.27346(5) 0.47081(3) 0.84144(9) 1. 0 0 
Cl1 Cl1- 4 a 0.02385(6) 0.49169(4) 0.90054(11) 1. 0 0 
B1 B3+ 4 a 0.2604(2) 0.1951(2) 0.6460(3) 1. 0 0 
B2 B3+ 4 a 0.2710(2) 0.0280(2) 0.8833(3) 1. 0 0 
B3 B3+ 4 a 0.2252(2) 0.3065(2) 0.3208(3) 1. 0 0 
B4 B3+ 4 a 0.3361(2) 0.2296(2) 0.0083(3) 1. 0 0 
B5 B3+ 4 a 0.0602(2) 0.2573(2) 0.5415(3) 1. 0 0 
O1 O2- 4 a 0.2668(1) 0.0652(1) 0.6779(2) 1. 0 0 
O2 O2- 4 a 0.3458(1) 0.2565(1) 0.7813(2) 1. 0 0 
O3 O2- 4 a 0.1411(1) 0.2367(1) 0.6981(2) 1. 0 0 
O4 O2- 4 a 0.2894(1) 0.2121(1) 0.4268(2) 1. 0 0 
O5 O2- 4 a 0.2953(1) 0.1055(1) 0.0429(2) 1. 0 0 
O6 O2- 4 a 0.4494(1) 0.2436(1) 0.1134(2) 1. 0 0 
O7 O2- 4 a 0.2528(1) 0.3138(1) 0.0991(2) 1. 0 0 
O8 O2- 4 a 0.2479(1) 0.4161(1) 0.4462(2) 1. 0 0 
O9 O2- 4 a 0.0949(1) 0.2834(1) 0.3389(2) 1. 0 0 
O10 O2- 4 a 0.0101(2) 0.0492(2) 0.9092(3) 1. 0 0 
H1 H1+ 4 a 0.034(4) 0.026(3) 0.789(6) 1. 0 4.2 
H2 H1+ 4 a 0.041(6) 0.495(6) 0.521(8) 1. 0 10.3 

loop_
_atom_site_aniso_label
_atom_site_aniso_type_symbol
_atom_site_aniso_U_11
_atom_site_aniso_U_22
_atom_site_aniso_U_33
_atom_site_aniso_U_12
_atom_site_aniso_U_13
_atom_site_aniso_U_23
Ca1 Ca2+ 0.0107(1) 0.0116(1) 0.0073(1) 0.0005(1) 0.0002(1) -.0007(1)
Ca2 Ca2+ 0.0101(1) 0.0092(1) 0.0061(1) 0.0011(1) 0.0002(1) 0.0012(1)
Cl1 Cl1- 0.0122(2) 0.0123(2) 0.0202(2) 0.0000(1) -.0017(2) -.0013(2)
B1 B3+ 0.066(7) 0.0059(7) 0.0052(7) -.0001(5) 0.0002(6) 0.0008(5)
B2 B3+ 0.0091(8) 0.0060(7) 0.0067(8) -.0004(6) -.0003(7) 0.0000(6)
B3 B3+ 0.0056(7) 0.0056(7) 0.0051(6) 0.0008(6) -.0002(5) 0.0006(6)
B4 B3+ 0.0061(8) 0.0060(7) 0.0047(7) -.0001(6) -.0001(6) 0.0004(6)
B5 B3+ 0.0051(8) 0.0084(7) 0.0071(7) 0.0007(6) -.0002(6) -.0005(6)
O1 O2- 0.0160(6) 0.0055(5) 0.0061(5) -.0007(4) -.00016(5) 0.0009(4)
O2 O2- 0.0069(6) 0.0076(5) 0.0047(5) -.0015(4) -.0012(4) 0.0002(4)
O3 O2- 0.0052(6) 0.0139(6) 0.0069(5) 0.0022(4) -.0004(4) 0.0007(4)
O4 O2- 0.0086(5) 0.0070(5) 0.0042(5) 0.0024(4) 0.0002(4) 0.0009(4)
O5 O2- 0.0167(6) 0.0057(5) 0.0062(5) -.0025(5) -.0007(4) -.0001(4)
O6 O2- 0.0048(6) 0.0164(6) 0.0069(6) -.0021(4) -.0003(4) -.0001(4)
O7 O2- 0.0089(6) 0.0084(5) 0.0047(5) 0.0028(4) 0.0012(4) 0.0005(4)
O8 O2- 0.0168(6) 0.0054(5) 0.0071(5) -.0027(4) -.0003(4) -.0001(4)
O9 O2- 0.0058(5) 0.0132(6) 0.0067(5) -.0005(4) -.0004(4) 0.0026(4)
O10 O2- 0.0283(9) 0.0132(7) 0.0238(8) 0.0025(7) 0.0044(7) 0.0036(6)
#End of data_100261-ICSD


