data_409661-ICSD
#?2014 by Fachinformationszentrum Karlsruhe, and the U.S. Secretary of 
#Commerce on behalf of the United States.  All rights reserved.
_database_code_ICSD                409661
_audit_creation_date               2003/10/01
_chemical_name_systematic
;
Tetrazinc Cyclo-octaphosphate(V) Octadecahydrate
;
_chemical_formula_structural       'Zn4 (P8 O24) (H2 O)18'
_chemical_formula_sum              'H36 O42 P8 Zn4'
_publ_section_title
;
Crystal structuure of hydrated tetrazinc cyclo-octaphosphate Zn4 (P8 
O24) * 18(H2 O)
;
loop_
_citation_id
_citation_journal_abbrev
_citation_year
_citation_journal_volume
_citation_page_first
_citation_page_last
_citation_journal_id_ASTM
primary 'Zeitschrift fuer Kristallographie - New Crystal Structures'
 2002 217 481 482 ZKNSFT
_publ_author_name
;
Mrad, M.L.;Ben Slimane, A.;Rzaigui, M.
;
_cell_length_a                     14.566(4)
_cell_length_b                     14.844(10)
_cell_length_c                     16.311(2)
_cell_angle_alpha                  90.
_cell_angle_beta                   90.
_cell_angle_gamma                  90.
_cell_volume                       3526.73
_cell_formula_units_Z              4
_symmetry_space_group_name_H-M     'P b c n'
_symmetry_Int_Tables_number        60
_refine_ls_R_factor_all            .046
loop_
_symmetry_equiv_pos_site_id
_symmetry_equiv_pos_as_xyz
  1	'x, -y, z+.5'
  2	'-x+.5, y+.5, z'
  3	'x+.5, y+.5, -z+.5'
  4	'-x, -y, -z'
  5	'-x, y, -z+.5'
  6	'x+.5, -y+.5, -z'
  7	'-x+.5, -y+.5, z+.5'
  8	'x, y, z'
loop_
_atom_type_symbol
_atom_type_oxidation_number
H1+	1
O2-	-2
P5+	5
Zn2+	2
loop_
_atom_site_label
_atom_site_type_symbol
_atom_site_symmetry_multiplicity
_atom_site_Wyckoff_symbol
_atom_site_fract_x
_atom_site_fract_y
_atom_site_fract_z
_atom_site_occupancy
_atom_site_attached_hydrogens
_atom_site_U_iso_or_equiv
Zn1 Zn2+ 8 d 0.25416(4) 0.49568(4) 0.23725(4) 1. 0 0.01669(13) 
Zn2 Zn2+ 8 d 0.48930(5) 0.24003(4) 0.08160(4) 1. 0 0.0277(2) 
P1 P5+ 8 d 0.05932(9) 0.43944(9) 0.32085(9) 1. 0 0.0145(3) 
P2 P5+ 8 d 0.19730(9) 0.29878(9) 0.31114(9) 1. 0 0.0145(3) 
P3 P5+ 8 d 0.18565(9) 0.19402(9) 0.15991(9) 1. 0 0.0142(3) 
P4 P5+ 8 d 0.04455(9) 0.05627(9) 0.17189(9) 1. 0 0.0162(3) 
O1 O2- 8 d 0.1212(2) 0.5083(2) 0.2845(2) 1. 0 0.0179(9) 
O2 O2- 8 d 0.0037(3) 0.4663(2) 0.3908(3) 1. 0 0.0265(11) 
O3 O2- 4 c 0 0.3941(3) 0.25 1. 0 0.023(2) 
O4 O2- 8 d 0.1135(2) 0.3505(2) 0.3504(2) 1. 0 0.0166(9) 
O5 O2- 8 d 0.2642(2) 0.3647(2) 0.2801(2) 1. 0 0.0209(10) 
O6 O2- 8 d 0.2278(2) 0.2302(2) 0.3710(2) 1. 0 0.0197(9) 
O7 O2- 8 d 0.1479(2) 0.2488(2) 0.2367(2) 1. 0 0.0213(9) 
O8 O2- 8 d 0.2551(2) 0.1276(2) 0.1884(2) 1. 0 0.0168(9) 
O9 O2- 8 d 0.2078(3) 0.2581(2) 0.0931(2) 1. 0 0.0242(10) 
O10 O2- 8 d 0.0959(2) 0.1420(2) 0.1337(2) 1. 0 0.0162(9) 
O11 O2- 8 d 0.1101(2) -.0142(2) 0.1987(2) 1. 0 0.0206(9) 
O12 O2- 4 c 0 0.1041(3) 0.25 1. 0 0.020(1) 
O13 O2- 8 d -.0261(3) 0.0299(3) 0.1133(3) 1. 0 0.0256(11) 
O14 O2- 8 d 0.4261(3) 0.2990(3) 0.1804(3) 1. 0 0.0300(11) 
O15 O2- 8 d 0.4143(3) 0.1248(3) 0.0970(3) 1. 0 0.0325(12) 
O16 O2- 8 d 0.3862(5) 0.2987(4) 0.0118(4) 1. 0 0.079(2) 
O17 O2- 8 d 0.5909(3) 0.1942(3) 0.1687(3) 1. 0 0.0269(11) 
O18 O2- 8 d 0.5678(3) 0.3547(3) 0.0610(3) 1. 0 0.049(2) 
O19 O2- 8 d 0.5571(3) 0.1740(3) -.0094(3) 1. 0 0.042(1) 
O20 O2- 8 d 0.2979(3) 0.5480(2) 0.3510(2) 1. 0 0.0204(1) 
O21 O2- 8 d 0.2138(3) 0.4466(3) 0.1255(2) 1. 0 0.0298(11) 
O22 O2- 8 d 0.2492(4) 0.4438(4) 0.4912(3) 1. 0 0.059(2) 
H1 H1+ 8 d 0.4293 0.362 0.1892 1. 0 0.046 
H2 H1+ 8 d 0.3947 0.2645 0.2169 1. 0 0.043 
H3 H1+ 8 d 0.3631 0.1153 0.0655 1. 0 0.059 
H4 H1+ 8 d 0.4299 0.0818 0.1363 1. 0 0.053 
H5 H1+ 8 d 0.3295 0.2636 -.0006 1. 0 0.111 
H6 H1+ 8 d 0.3805 0.361 0.0009 1. 0 0.118 
H7 H1+ 8 d 0.6315 0.2114 0.1384 1. 0 0.029 
H8 H1+ 8 d 0.6195 0.1338 0.1642 1. 0 0.036 
H9 H1+ 8 d 0.6121 0.365 0.0538 1. 0 0.031 
H10 H1+ 8 d 0.5541 0.3795 0.097 1. 0 0.029 
H11 H1+ 8 d 0.5436 0.1098 -.0009 1. 0 0.061 
H12 H1+ 8 d 0.6055 0.19 -.0438 1. 0 0.034 
H13 H1+ 8 d 0.3529 0.5336 0.3747 1. 0 0.028 
H14 H1+ 8 d 0.2767 0.6224 0.3567 1. 0 0.027 
H15 H1+ 8 d 0.2165 0.3862 0.1148 1. 0 0.030 
H16 H1+ 8 d 0.2007 0.4641 0.0779 1. 0 0.029 
H17 H1+ 8 d 0.204 0.4457 0.5406 1. 0 0.037 
H18 H1+ 8 d 0.255 0.4563 0.439 1. 0 0.023 

loop_
_atom_site_aniso_label
_atom_site_aniso_type_symbol
_atom_site_aniso_U_11
_atom_site_aniso_U_22
_atom_site_aniso_U_33
_atom_site_aniso_U_12
_atom_site_aniso_U_13
_atom_site_aniso_U_23
Zn1 Zn2+ 0.0127(2) 0.0114(2) 0.0259(3) -0.0017(3) 0.0003(3) 0.0009(3)
Zn2 Zn2+ 0.0272(4) 0.0218(3) 0.0341(4) -0.0004(3) 0.0044(3) -0.0015(3)
P1 P5+ 0.0094(6) 0.0106(6) 0.0234(7) 0.0013(5) 0.0004(5) -0.0001(5)
P2 P5+ 0.0113(6) 0.0091(6) 0.0231(7) 0.0012(5) -0.0008(5) 0.0007(6)
P3 P5+ 0.0112(6) 0.0097(6) 0.0216(7) 0.0011(5) -0.0012(5) -0.0002(5)
P4 P5+ 0.0117(6) 0.0130(6) 0.0240(7) -0.0002(5) -0.0006(6) -0.0022(6)
O1 O2- 0.011(2) 0.012(2) 0.031(2) 0.000(2) 0.001(2) -0.002(2)
O2 O2- 0.024(2) 0.023(2) 0.032(2) 0.008(2) 0.012(2) 0.001(2)
O3 O2- 0.019(3) 0.016(3) 0.035(4) 0 -0.013(3) 0
O4 O2- 0.014(2) 0.015(2) 0.021(2) 0.004(2) 0.001(2) 0.003(2)
O5 O2- 0.014(2) 0.009(2) 0.040(2) -0.001(1) 0.001(2) 0.003(2)
O6 O2- 0.020(2) 0.014(2) 0.025(2) 0.006(1) -0.004(2) 0.006(2)
O7 O2- 0.014(2) 0.023(2) 0.027(2) 0.005(2) -0.003(2) -0.013(2)
O8 O2- 0.010(2) 0.012(2) 0.028(2) 0.001(1) 0.005(2) 0.004(2)
O9 O2- 0.019(2) 0.018(2) 0.035(2) -0.003(2) -0.002(2) 0.008(2)
O10 O2- 0.008(2) 0.016(2) 0.024(2) 0.000(1) -0.001(2) 0.004(2)
O11 O2- 0.013(2) 0.008(2) 0.041(2) 0.000(1) -0.004(2) 0.004(2)
O12 O2- 0.018(3) 0.014(2) 0.029(3) 0 0.003(2) 0
O13 O2- 0.014(2) 0.031(2) 0.032(3) 0.001(2) -0.004(2) -0.009(2)
O14 O2- 0.037(2) 0.021(2) 0.032(2) 0.007(2) 0.007(2) 0.003(2)
O15 O2- 0.014(2) 0.018(2) 0.066(3) 0.001(2) 0.006(2) 0.000(2)
O16 O2- 0.101(5) 0.074(4) 0.063(4) 0.052(4) -0.042(4) -0.013(3)
O17 O2- 0.018(2) 0.023(2) 0.040(3) -0.001(2) 0.000(2) 0.001(2)
O18 O2- 0.048(3) 0.027(2) 0.072(4) -0.011(2) 0.036(3) -0.014(2)
O19 O2- 0.046(3) 0.035(3) 0.045(3) -0.020(2) 0.032(2) -0.017(2)
O20 O2- 0.016(2) 0.016(2) 0.030(2) 0.001(2) -0.004(2) 0.000(2)
O21 O2- 0.040(3) 0.020(2) 0.030(2) -0.006(2) -0.011(2) 0.004(2)
O22 O2- 0.085(4) 0.062(4) 0.029(2) -0.020(3) 0.018(3) -0.001(3)
#End of data_409661-ICSD


