data_180733-ICSD
#?2014 by Fachinformationszentrum Karlsruhe, and the U.S. Secretary of 
#Commerce on behalf of the United States.  All rights reserved.
_database_code_ICSD                180733
_audit_creation_date               2011/08/01
_chemical_name_systematic          'Disilver Tetraniobate - Lt'
_chemical_formula_structural       'Ag2 (Nb4 O11)'
_chemical_formula_sum              'Ag2 Nb4 O11'
_publ_section_title
;
Structural characterisation of ferroelectric Ag2 Nb4 O11 and 
dielectric Ag2 Ta4 O11
;
loop_
_citation_id
_citation_journal_abbrev
_citation_year
_citation_journal_volume
_citation_page_first
_citation_page_last
_citation_journal_id_ASTM
primary 'Journal of Materials Chemistry' 2011 21 2715 2722 JMACEP
_publ_author_name
;
Maso, N.;Woodward, D.I.;Thomas, P.A.;Varez, A.;West, A.R.
;
_cell_length_a                     6.20524(9)
_cell_length_b                     6.20524(9)
_cell_length_c                     37.0175(6)
_cell_angle_alpha                  90.
_cell_angle_beta                   90.
_cell_angle_gamma                  120.
_cell_volume                       1234.4
_cell_formula_units_Z              6
_symmetry_space_group_name_H-M     'R 3 H'
_symmetry_Int_Tables_number        146
_refine_ls_R_factor_all            .0377
loop_
_symmetry_equiv_pos_site_id
_symmetry_equiv_pos_as_xyz
  1	'-x+y, -x, z'
  2	'-y, x-y, z'
  3	'x, y, z'
  4	'-x+y+.6666, -x+.3333, z+.3333'
  5	'-x+y+.3333, -x+.6666, z+.6666'
  6	'-y+.6666, x-y+.3333, z+.3333'
  7	'-y+.3333, x-y+.6666, z+.6666'
  8	'x+.6666, y+.3333, z+.3333'
  9	'x+.3333, y+.6666, z+.6666'
loop_
_atom_type_symbol
_atom_type_oxidation_number
Ag1+	1
Nb5+	5
O2-	-2
loop_
_atom_site_label
_atom_site_type_symbol
_atom_site_symmetry_multiplicity
_atom_site_Wyckoff_symbol
_atom_site_fract_x
_atom_site_fract_y
_atom_site_fract_z
_atom_site_occupancy
_atom_site_attached_hydrogens
_atom_site_U_iso_or_equiv
Ag1 Ag1+ 3 a 0 0 0.3255(5) 1. 0 0.009(1) 
Ag2 Ag1+ 3 a 0 0 0.8279(5) 1. 0 0.009(1) 
Ag3 Ag1+ 3 a 0 0 0.1678(4) 1. 0 0.004(1) 
Ag4 Ag1+ 3 a 0 0 0.6701(4) 1. 0 0.004(1) 
Nb1 Nb5+ 9 b 0.3613(13) -0.004(1) 0.2469(3) 1. 0 0.0087(4) 
Nb2 Nb5+ 9 b 0.999(1) 0.634(1) 0.7476(3) 1. 0 0.0087(4) 
Nb3 Nb5+ 3 a 0 0 0.9953(4) 1. 0 0.0089(8) 
Nb4 Nb5+ 3 a 0 0 0.4941(4) 1. 0 0.0089(8) 
O1 O2- 9 b 0.058(2) 0.428(2) 0.1972(3) 1. 0 0.0067(9) 
O2 O2- 9 b 0.582(2) 0.9412(18) 0.6970(3) 1. 0 0.0067(9) 
O3 O2- 9 b 0.408(2) 0.056(2) 0.3019(2) 1. 0 0.009(1) 
O4 O2- 9 b 0.950(2) 0.5819(19) 0.8032(2) 1. 0 0.009(1) 
O5 O2- 9 b 0.736(1) 0.003(2) 0.2500(3) 1. 0 0.0118(6) 
O6 O2- 9 b 0.999(3) 0.232(1) 0.7479(3) 1. 0 0.0118(6) 
O7 O2- 3 a 0 0 0.4084(4) 1. 0 0.009(1) 
O8 O2- 3 a 0 0 0.9102(4) 1. 0 0.009(1) 
O9 O2- 3 a 0 0 0.0938(4) 1. 0 0.003(1) 
O10 O2- 3 a 0 0 0.5953(4) 1. 0 0.003(1) 

#End of data_180733-ICSD


