data_28408-ICSD
#?2014 by Fachinformationszentrum Karlsruhe, and the U.S. Secretary of 
#Commerce on behalf of the United States.  All rights reserved.
_database_code_ICSD                28408
_audit_creation_date               1980/01/01
_audit_update_record               1988/04/08
_chemical_name_systematic          'Tripotassium Pentaantimony Oxide'
_chemical_formula_structural       'K3 Sb5 O14'
_chemical_formula_sum              'K3 O14 Sb5'
_publ_section_title
;
On the crystal structure of K3 Sb5 O14
;
loop_
_citation_id
_citation_journal_abbrev
_citation_year
_citation_journal_volume
_citation_page_first
_citation_page_last
_citation_journal_id_ASTM
primary 'Arkiv foer Kemi' 1966 25 505 514 ARKEAD
_publ_author_name                  'Aurivillius, B.'
_cell_length_a                     24.211(5)
_cell_length_b                     7.153(2)
_cell_length_c                     7.322(2)
_cell_angle_alpha                  90.
_cell_angle_beta                   90.
_cell_angle_gamma                  90.
_cell_volume                       1268.03
_cell_formula_units_Z              4
_symmetry_space_group_name_H-M     'P b a 2'
_symmetry_Int_Tables_number        32
_refine_ls_R_factor_all            .13
loop_
_symmetry_equiv_pos_site_id
_symmetry_equiv_pos_as_xyz
  1	'x+.5, -y+.5, z'
  2	'-x+.5, y+.5, z'
  3	'-x, -y, z'
  4	'x, y, z'
loop_
_atom_type_symbol
_atom_type_oxidation_number
K1+	1
O2-	-2
Sb5+	5
loop_
_atom_site_label
_atom_site_type_symbol
_atom_site_symmetry_multiplicity
_atom_site_Wyckoff_symbol
_atom_site_fract_x
_atom_site_fract_y
_atom_site_fract_z
_atom_site_occupancy
_atom_site_attached_hydrogens
_atom_site_B_iso_or_equiv
K1 K1+ 4 c 0.01442(54) 0.2189(21) 0.0302(30) 1. 0 2.675 
K2 K1+ 4 c 0.38373(51) 0.1001(20) 0.9868(29) 1. 0 2.336 
K3 K1+ 4 c 0.29396(59) 0.1091(23) 0.5064(60) 1. 0 3.193 
Sb1 Sb5+ 4 c 0.93808(9) 0.09612(35) 0.5 1. 0 0.714 
Sb2 Sb5+ 4 c 0.55711(9) 0.08369(33) 0.5085(9) 1. 0 0.734 
Sb3 Sb5+ 4 c 0.25618(9) 0.32464(34) 0.01211(98) 1. 0 0.775 
Sb4 Sb5+ 4 c 0.14563(11) 0.11008(43) 0.24581(50) 1. 0 0.614 
Sb5 Sb5+ 4 c 0.14495(12) 0.10725(50) 0.77257(53) 1. 0 0.948 
O1 O2- 2 b 0 0.5 0.3463(80) 1. 0 0.684 
O2 O2- 2 b 0 0.5 0.7049(61) 1. 0 -.249 
O3 O2- 4 c 0.1216(13) 0.1752(50) 0.006(13) 1. 0 1.463 
O4 O2- 4 c 0.1434(10) 0.0350(41) 0.515(12) 1. 0 0.773 
O5 O2- 4 c 0.01716(92) 0.1630(35) 0.5226(69) 1. 0 0.343 
O6 O2- 4 c 0.0911(14) 0.6624(49) 0.5344(67) 1. 0 1.324 
O7 O2- 4 c 0.21761(93) 0.5665(35) 0.010(11) 1. 0 0.495 
O8 O2- 4 c 0.0990(17) 0.3222(67) 0.3116(73) 1. 0 1.572 
O9 O2- 4 c 0.1066(12) 0.3452(48) 0.7002(54) 1. 0 0.449 
O10 O2- 4 c 0.0745(13) 0.9540(51) 0.2481(56) 1. 0 0.733 
O11 O2- 4 c 0.0729(13) 0.9460(51) 0.7601(56) 1. 0 0.737 
O12 O2- 4 c 0.2107(16) 0.2682(60) 0.2458(69) 1. 0 1.393 
O13 O2- 4 c 0.2108(14) 0.2563(53) 0.7905(56) 1. 0 0.892 
O14 O2- 4 c 0.3138(13) 0.3764(49) 0.2025(56) 1. 0 0.604 
O15 O2- 4 c 0.3152(14) 0.3852(52) 0.8319(58) 1. 0 0.831 

#End of data_28408-ICSD


