data_280326-ICSD
#?2014 by Fachinformationszentrum Karlsruhe, and the U.S. Secretary of 
#Commerce on behalf of the United States.  All rights reserved.
_database_code_ICSD                280326
_audit_creation_date               2002/04/01
_chemical_name_systematic
;
Dicesium Potassium Hexacyanomanganate(III)
;
_chemical_formula_structural       'Cs2 K (Mn (C N)6)'
_chemical_formula_sum              'C6 Cs2 K1 Mn1 N6'
_publ_section_title
;
Cs2 K (Mn (C N)6) at 293, 85 and 10 K
;
loop_
_citation_id
_citation_journal_abbrev
_citation_year
_citation_journal_volume
_citation_page_first
_citation_page_last
_citation_journal_id_ASTM
primary 'Acta Crystallographica, Section C: Crystal Structure Communications'
 2000 56 735 737 ACSCEE
_publ_author_name
;
Figgis, B.N.;Sobolev, A.N.;Kucharski, E.S.;Broughton, V.
;
_cell_length_a                     11.074(7)
_cell_length_b                     8.227(2)
_cell_length_c                     7.6135(5)
_cell_angle_alpha                  90.
_cell_angle_beta                   90.95(4)
_cell_angle_gamma                  90.
_cell_volume                       693.54
_cell_formula_units_Z              2
_symmetry_space_group_name_H-M     'P 1 21/n 1'
_symmetry_Int_Tables_number        14
_refine_ls_R_factor_all            .032
loop_
_symmetry_equiv_pos_site_id
_symmetry_equiv_pos_as_xyz
  1	'-x+.5, y+.5, -z+.5'
  2	'-x, -y, -z'
  3	'x+.5, -y+.5, z+.5'
  4	'x, y, z'
loop_
_atom_type_symbol
_atom_type_oxidation_number
C2+	2
Cs1+	1
K1+	1
Mn3+	3
N3-	-3
loop_
_atom_site_label
_atom_site_type_symbol
_atom_site_symmetry_multiplicity
_atom_site_Wyckoff_symbol
_atom_site_fract_x
_atom_site_fract_y
_atom_site_fract_z
_atom_site_occupancy
_atom_site_attached_hydrogens
Cs1 Cs1+ 4 e 0.252710(6) 0.421940(8) -.026970(9) 1. 0 
K1 K1+ 2 d 0 0.5 0.5 1. 0 
Mn1 Mn3+ 2 a 0 0 0 1. 0 
C1 C2+ 4 e 0.03499(12) 0.12958(15) -.21408(16) 1. 0 
N1 N3- 4 e 0.05787(13) 0.20445(16) -.33885(17) 1. 0 
C2 C2+ 4 e 0.04456(12) -.20376(15) -.12616(16) 1. 0 
N2 N3- 4 e 0.07206(13) -.32080(15) -.20091(17) 1. 0 
C3 C2+ 4 e 0.17055(11) 0.02607(15) 0.08083(17) 1. 0 
N3 N3- 4 e 0.26977(11) 0.04553(17) 0.12979(18) 1. 0 

loop_
_atom_site_aniso_label
_atom_site_aniso_type_symbol
_atom_site_aniso_U_11
_atom_site_aniso_U_22
_atom_site_aniso_U_33
_atom_site_aniso_U_12
_atom_site_aniso_U_13
_atom_site_aniso_U_23
Cs1 Cs1+ 0.00929(4) 0.00759(3) 0.00964(3) -.00016(1) 0.00060(2) 0.00016(1)
K1 K1+ 0.00900(11) 0.00869(10) 0.00918(10) -.00023(8) 0.00009(8) 0.00019(8)
Mn1 Mn3+ 0.00633(7) 0.00632(7) 0.00685(7) 0.00007(5) 0.00042(5) 0.00014(5)
C1 C2+ 0.0114(4) 0.0097(3) 0.0100(3) 0.0002(3) 0.0013(3) 0.0012(3)
N1 N3- 0.0183(5) 0.0128(4) 0.0131(4) 0.0014(3) 0.0033(3) 0.0043(3)
C2 C2+ 0.0119(4) 0.0092(3) 0.0103(3) 0.0005(3) 0.0008(3) -.0007(3)
N2 N3- 0.0182(5) 0.0110(3) 0.0133(4) 0.0028(3) -.0003(3) -.0027(3)
C3 C2+ 0.0089(3) 0.0110(4) 0.0122(4) -.0004(3) -.0007(3) 0.0012(3)
N3 N3- 0.0096(4) 0.0167(4) 0.0162(4) -.0012(3) -.0011(3) 0.0012(3)
#End of data_280326-ICSD


