data_65282-ICSD
#?2014 by Fachinformationszentrum Karlsruhe, and the U.S. Secretary of 
#Commerce on behalf of the United States.  All rights reserved.
_database_code_ICSD                65282
_audit_creation_date               1989/12/04
_chemical_name_systematic          'Disodium Nickel Chromium Fluoride'
_chemical_formula_structural       'Na2 Ni Cr F7'
_chemical_formula_sum              'Cr1 F7 Na2 Ni1'
_publ_section_title
;
Refinement of the crystal and frustrated magnetic structures of the 
direct weberite Na2 Ni Cr F7 by neutron powder diffraction
;
loop_
_citation_id
_citation_journal_abbrev
_citation_year
_citation_journal_volume
_citation_page_first
_citation_page_last
_citation_journal_id_ASTM
primary 'Zeitschrift fuer Anorganische und Allgemeine Chemie (1950) (DE)'
 1987 553 163 171 ZAACAB
_publ_author_name
;
Laligant, Y.;Ferey, G.;Heger, G.;Pannetier, J.
;
_cell_length_a                     7.183(1)
_cell_length_b                     10.224(1)
_cell_length_c                     7.414(1)
_cell_angle_alpha                  90.
_cell_angle_beta                   90.
_cell_angle_gamma                  90.
_cell_volume                       544.48
_cell_formula_units_Z              4
_symmetry_space_group_name_H-M     'I m m a'
_symmetry_Int_Tables_number        74
_refine_ls_R_factor_all            .047
loop_
_symmetry_equiv_pos_site_id
_symmetry_equiv_pos_as_xyz
  1	'-x, y+.5, -z'
  2	'-x, -y+.5, z'
  3	'-x, y, z'
  4	'-x, -y, -z'
  5	'x, -y+.5, z'
  6	'x, y+.5, -z'
  7	'x, -y, -z'
  8	'x, y, z'
  9	'-x+.5, y, -z+.5'
 10	'-x+.5, -y, z+.5'
 11	'-x+.5, y+.5, z+.5'
 12	'-x+.5, -y+.5, -z+.5'
 13	'x+.5, -y, z+.5'
 14	'x+.5, y, -z+.5'
 15	'x+.5, -y+.5, -z+.5'
 16	'x+.5, y+.5, z+.5'
loop_
_atom_type_symbol
_atom_type_oxidation_number
Cr3+	3
F1-	-1
Na1+	1
Ni2+	2
loop_
_atom_site_label
_atom_site_type_symbol
_atom_site_symmetry_multiplicity
_atom_site_Wyckoff_symbol
_atom_site_fract_x
_atom_site_fract_y
_atom_site_fract_z
_atom_site_occupancy
_atom_site_attached_hydrogens
_atom_site_B_iso_or_equiv
Na1 Na1+ 4 a 0 0 0 1. 0 1. 
Na2 Na1+ 4 d 0.25 0.25 0.75 1. 0 1. 
F1 F1- 4 e 0 0.25 0.144(1) 1. 0 0.56 
F2 F1- 8 h 0 0.4120(6) 0.7265(9) 1. 0 0.56 
F3 F1- 16 j 0.1957(6) 0.3850(4) 0.4361(7) 1. 0 0.56 
Ni1 Ni2+ 4 c 0.25 0.25 0.25 1. 0 0.2 
Cr1 Cr3+ 4 b 0 0 0.5 1. 0 0.2 

#End of data_65282-ICSD


