data_26829-ICSD
#?2014 by Fachinformationszentrum Karlsruhe, and the U.S. Secretary of 
#Commerce on behalf of the United States.  All rights reserved.
_database_code_ICSD                26829
_audit_creation_date               1980/01/01
_audit_update_record               2012/02/01
_chemical_name_systematic
;
Dipotassium Calcium Bis(sulfate(VI)) Hydrate
;
_chemical_formula_structural       'K2 Ca (S O4)2 (H2 O)'
_chemical_formula_sum              'H2 Ca1 K2 O9 S2'
_chemical_name_mineral             Syngenite
_publ_section_title
;
The crystal structure of syngenite, K2 Ca (S O4)2 (H2 O)
;
loop_
_citation_id
_citation_journal_abbrev
_citation_year
_citation_journal_volume
_citation_page_first
_citation_page_last
_citation_journal_id_ASTM
primary
;
Zeitschrift fuer Kristallographie, Kristallgeometrie, Kristallphysik, 
Kristallchemie (-144,1977)
;
 1967 124 398 408 ZEKGAX
_publ_author_name                  'Corazza, E.;Sabelli, C.'
_cell_length_a                     9.77
_cell_length_b                     7.15
_cell_length_c                     6.25
_cell_angle_alpha                  90.
_cell_angle_beta                   104.
_cell_angle_gamma                  90.
_cell_volume                       423.63
_cell_formula_units_Z              2
_symmetry_space_group_name_H-M     'P 1 21/m 1'
_symmetry_Int_Tables_number        11
_refine_ls_R_factor_all            .075
loop_
_symmetry_equiv_pos_site_id
_symmetry_equiv_pos_as_xyz
  1	'x, -y+.5, z'
  2	'-x, -y, -z'
  3	'-x, y+.5, -z'
  4	'x, y, z'
loop_
_atom_type_symbol
_atom_type_oxidation_number
Ca2+	2
H1+	1
K1+	1
O2-	-2
S6+	6
loop_
_atom_site_label
_atom_site_type_symbol
_atom_site_symmetry_multiplicity
_atom_site_Wyckoff_symbol
_atom_site_fract_x
_atom_site_fract_y
_atom_site_fract_z
_atom_site_occupancy
_atom_site_attached_hydrogens
_atom_site_B_iso_or_equiv
K1 K1+ 4 f 0.3357(2) 0.0068(2) 0.1947(2) 1. 0 1.35(2) 
Ca1 Ca2+ 2 e 0.9679(2) 0.25 0.3327(2) 1. 0 0.47(2) 
S1 S6+ 2 e 0.9897(2) 0.25 0.8396(3) 1. 0 0.38(2) 
S2 S6+ 2 e 0.6373(2) 0.25 0.2697(3) 1. 0 0.66(3) 
O1 O2- 2 e 0.1191(8) 0.25 0.0167(11) 1. 0 1.26(10) 
O2 O2- 2 e 0.2244(7) 0.25 0.5015(11) 1. 0 1.05(9) 
O3 O2- 2 e 0.5322(7) 0.25 0.0586(11) 1. 0 1.12(9) 
O4 O2- 2 e 0.5650(8) 0.25 0.4493(12) 1. 0 1.49(11) 
O5 O2- 4 f 0.7296(5) 0.0842(7) 0.2837(8) 1. 0 1.47(7) 
O6 O2- 2 e 0.8687(8) 0.25 0.9421(11) 1. 0 1.2(1) 
O7 O2- 4 f 0.9813(5) 0.0840(6) 0.6959(7) 1. 0 0.89(6) 
H1 H1+ 4 f 0.243 0.354 0.597 1. 0 1.05(6) 

#End of data_26829-ICSD


