data_158274-ICSD
#?2014 by Fachinformationszentrum Karlsruhe, and the U.S. Secretary of 
#Commerce on behalf of the United States.  All rights reserved.
_database_code_ICSD                158274
_audit_creation_date               2008/02/01
_chemical_name_systematic
;
Lithium Aluminium Decamagnesium Hydride
;
_chemical_formula_structural       'Li Al Mg10 H24'
_chemical_formula_sum              'H24 Al1 Li1 Mg10'
_publ_section_title
;
Li Al-substitution into the Mg H2 structure may improve the hydrogen 
storage processes
;
loop_
_citation_id
_citation_journal_abbrev
_citation_year
_citation_journal_volume
_citation_page_first
_citation_page_last
_citation_journal_id_ASTM
primary 'Journal of Alloys and Compounds' 2007 446 72 79 JALCEU
_publ_author_name                  'Liang Jianjie'
_cell_length_a                     8.9885
_cell_length_b                     8.9848
_cell_length_c                     4.4846
_cell_angle_alpha                  90.
_cell_angle_beta                   89.655
_cell_angle_gamma                  90.
_cell_volume                       362.17
_cell_formula_units_Z              1
_symmetry_space_group_name_H-M     'P 1 2 1'
_symmetry_Int_Tables_number        3
loop_
_symmetry_equiv_pos_site_id
_symmetry_equiv_pos_as_xyz
  1	'-x, y, -z'
  2	'x, y, z'
loop_
_atom_type_symbol
_atom_type_oxidation_number
Al3+	3
H1-	-1
Li1+	1
Mg2+	2
loop_
_atom_site_label
_atom_site_type_symbol
_atom_site_symmetry_multiplicity
_atom_site_Wyckoff_symbol
_atom_site_fract_x
_atom_site_fract_y
_atom_site_fract_z
_atom_site_occupancy
_atom_site_attached_hydrogens
Mg1 Mg2+ 2 e 0.251 0 0.003 1. 0 
Mg2 Mg2+ 2 e 0.243 0.337 0 1. 0 
Mg3 Mg2+ 2 e 0.246 0.666 0.006 1. 0 
Mg4 Mg2+ 1 d 0.5 0.168 0.5 1. 0 
Mg5 Mg2+ 1 d 0.5 0.501 0.5 1. 0 
Mg6 Mg2+ 1 d 0.5 0.834 0.5 1. 0 
Mg7 Mg2+ 1 b 0 0.172 0.5 1. 0 
Li1 Li1+ 1 b 0 0.497 0.5 1. 0 
Al1 Al3+ 1 b 0 0.832 0.5 1. 0 
H1 H1- 2 e 0.402 0.999 0.307 1. 0 
H2 H1- 2 e 0.401 0.333 0.302 1. 0 
H3 H1- 2 e 0.401 0.671 0.305 1. 0 
H4 H1- 2 e 0.909 0.980 0.316 1. 0 
H5 H1- 2 e 0.901 0.329 0.303 1. 0 
H6 H1- 2 e 0.908 0.697 0.312 1. 0 
H7 H1- 2 e 0.654 0.165 0.195 1. 0 
H8 H1- 2 e 0.653 0.504 0.198 1. 0 
H9 H1- 2 e 0.656 0.834 0.186 1. 0 
H10 H1- 2 e 0.149 0.159 0.195 1. 0 
H11 H1- 2 e 0.149 0.506 0.195 1. 0 
H12 H1- 2 e 0.141 0.838 0.223 1. 0 

#End of data_158274-ICSD


