data_659203-ICSD
#?2014 by Fachinformationszentrum Karlsruhe, and the U.S. Secretary of 
#Commerce on behalf of the United States.  All rights reserved.
_database_code_ICSD                659203
_audit_creation_date               2008/07/07
_audit_update_record               2013/02/01
_chemical_name_systematic
;
Dicopper(I) Potassium Tetraselenidotantalate
;
_chemical_formula_structural       'Cu2 K (Ta Se4)'
_chemical_formula_sum              'Cu2 K1 Se4 Ta1'
_publ_section_title
;
Synthesis and characterization of Cu3 Nb Se4 and K Cu2 Ta Se4. Errata
;
loop_
_citation_id
_citation_journal_abbrev
_citation_year
_citation_journal_volume
_citation_page_first
_citation_page_last
_citation_journal_id_ASTM
primary 'Journal of Solid State Chemistry' 1994 111 447 448 JSSCBI
_publ_author_name                  'Lu Yingjie;Ibers, J.A.'
_cell_length_a                     7.662(2)
_cell_length_b                     18.829(4)
_cell_length_c                     5.660(1)
_cell_angle_alpha                  90.0
_cell_angle_beta                   90.0
_cell_angle_gamma                  90.0
_cell_volume                       816.56
_cell_formula_units_Z              4
_symmetry_space_group_name_H-M     'A m a 2'
_symmetry_Int_Tables_number        40
_refine_ls_R_factor_all            .03
loop_
_symmetry_equiv_pos_site_id
_symmetry_equiv_pos_as_xyz
  1	'x+.5, -y, z'
  2	'-x+.5, y, z'
  3	'-x, -y, z'
  4	'x, y, z'
  5	'x+.5, -y+.5, z+.5'
  6	'-x+.5, y+.5, z+.5'
  7	'-x, -y+.5, z+.5'
  8	'x, y+.5, z+.5'
loop_
_atom_type_symbol
_atom_type_oxidation_number
Cu1+	1
K1+	1
Se2-	-2
Ta5+	5
loop_
_atom_site_label
_atom_site_type_symbol
_atom_site_symmetry_multiplicity
_atom_site_Wyckoff_symbol
_atom_site_fract_x
_atom_site_fract_y
_atom_site_fract_z
_atom_site_occupancy
_atom_site_attached_hydrogens
_atom_site_U_iso_or_equiv
Cu1 Cu1+ 4 a 0 0 0.5208 1 0 .010 
Cu2 Cu1+ 4 b 0.25 0.1081 0.0011 1 0 .010 
K1 K1+ 4 b 0.25 0.3175 0.7574 1 0 .021 
Se1 Se2- 4 b 0.25 0.0037 0.2536 1 0 .007 
Se2 Se2- 4 b 0.25 0.2133 0.2527 1 0 .015 
Se3 Se2- 8 c 0.0072 0.8905 0.7467 1 0 .010 
Ta1 Ta5+ 4 b 0.25 0.1105 0.5006 1 0 .006 

#End of data_659203-ICSD


