data_71456-ICSD
#?2014 by Fachinformationszentrum Karlsruhe, and the U.S. Secretary of 
#Commerce on behalf of the United States.  All rights reserved.
_database_code_ICSD                71456
_audit_creation_date               1993/01/06
_chemical_name_systematic          'Sodium Tetrafluoromanganate(III)'
_chemical_formula_structural       'Na (Mn F4)'
_chemical_formula_sum              'F4 Mn1 Na1'
_publ_section_title
;
Crystal and magnetic structures of NaMnF4
;
loop_
_citation_id
_citation_journal_abbrev
_citation_year
_citation_journal_volume
_citation_journal_issue
_citation_page_first
_citation_page_last
_citation_journal_id_ASTM
primary 'Zeitschrift fuer Naturforschung, B: Chemical Sciences'
 1991 46 12 1669 1673 ZNBSEN
_publ_author_name
;
Molinier, M.;Massa, W.;Khairoun, S.;Tressaud, A.;Soubeyroux, J.L.
;
_cell_length_a                     5.755(2)
_cell_length_b                     4.892(1)
_cell_length_c                     5.760(2)
_cell_angle_alpha                  90.
_cell_angle_beta                   108.62(1)
_cell_angle_gamma                  90.
_cell_volume                       153.68
_cell_formula_units_Z              2
_symmetry_space_group_name_H-M     'P 1 21/c 1'
_symmetry_Int_Tables_number        14
loop_
_symmetry_equiv_pos_site_id
_symmetry_equiv_pos_as_xyz
  1	'x, -y+.5, z+.5'
  2	'-x, -y, -z'
  3	'-x, y+.5, -z+.5'
  4	'x, y, z'
loop_
_atom_type_symbol
_atom_type_oxidation_number
F1-	-1
Mn3+	3
Na1+	1
loop_
_atom_site_label
_atom_site_type_symbol
_atom_site_symmetry_multiplicity
_atom_site_Wyckoff_symbol
_atom_site_fract_x
_atom_site_fract_y
_atom_site_fract_z
_atom_site_occupancy
_atom_site_attached_hydrogens
Na1 Na1+ 2 d 0.5 0.5 0 1. 0 
Mn1 Mn3+ 2 a 0 0.5 0.5 1. 0 
F1 F1- 4 e 0.878(1) 0.767(1) 0.660(1) 1. 0 
F2 F1- 4 e 0.304(1) 0.651(1) 0.615(1) 1. 0 

#End of data_71456-ICSD


