data_409992-ICSD
#?2014 by Fachinformationszentrum Karlsruhe, and the U.S. Secretary of 
#Commerce on behalf of the United States.  All rights reserved.
_database_code_ICSD                409992
_audit_creation_date               2009/08/01
_chemical_name_systematic          'Pentasilver Chloride Silicate'
_chemical_formula_structural       'Ag5 Cl (Si O4)'
_chemical_formula_sum              'Ag5 Cl1 O4 Si1'
_publ_section_title
;
Crystal structure of pentasilver chloride silicate, Ag5 [Si O4] Cl
;
loop_
_citation_id
_citation_journal_abbrev
_citation_year
_citation_journal_volume
_citation_journal_issue
_citation_page_first
_citation_page_last
_citation_journal_id_ASTM
primary 'Zeitschrift fuer Kristallographie - New Crystal Structures'
 2009 224 2 165 166 ZKNSFT
_publ_author_name                  'Klein, W.;Jansen, M.'
_cell_length_a                     12.8931(8)
_cell_length_b                     19.0916(11)
_cell_length_c                     12.7599(7)
_cell_angle_alpha                  90
_cell_angle_beta                   118.3560(10)
_cell_angle_gamma                  90
_cell_volume                       2763.99
_cell_formula_units_Z              16
_symmetry_space_group_name_H-M     'P 1 21/c 1'
_symmetry_Int_Tables_number        14
_refine_ls_R_factor_all            .0377
loop_
_symmetry_equiv_pos_site_id
_symmetry_equiv_pos_as_xyz
  1	'x, -y+.5, z+.5'
  2	'-x, -y, -z'
  3	'-x, y+.5, -z+.5'
  4	'x, y, z'
loop_
_atom_type_symbol
_atom_type_oxidation_number
Ag1+	1
Cl1-	-1
O2-	-2
Si4+	4
loop_
_atom_site_label
_atom_site_type_symbol
_atom_site_symmetry_multiplicity
_atom_site_Wyckoff_symbol
_atom_site_fract_x
_atom_site_fract_y
_atom_site_fract_z
_atom_site_occupancy
_atom_site_attached_hydrogens
_atom_site_U_iso_or_equiv
Ag1 Ag1+ 4 e 0.07520(5) 0.24815(2) 0.41686(5) 1 0 0.0284(2) 
Ag2 Ag1+ 4 e 0.70229(5) 0.10752(3) 0.04801(5) 1 0 0.02865(19) 
Ag3 Ag1+ 4 e 0.69287(5) 0.03756(3) 0.80237(5) 1 0 0.0274(2) 
Ag4 Ag1+ 4 e 0.56725(5) 0.24826(3) 0.42946(5) 1 0 0.0313(2) 
Ag5 Ag1+ 4 e 0.19344(4) 0.10033(3) 0.55641(4) 1 0 0.02778(19) 
Ag6 Ag1+ 4 e 0.44021(4) 0.10729(3) 0.29353(5) 1 0 0.02667(18) 
Ag7 Ag1+ 4 e 0.94141(4) 0.10012(3) 0.79519(5) 1 0 0.02803(19) 
Ag8 Ag1+ 4 e 0.94021(5) 0.03908(3) 0.05765(5) 1 0 0.0269(2) 
Ag9 Ag1+ 4 e 0.94393(5) 0.04021(3) 0.55823(4) 1 0 0.0260(2) 
Ag10 Ag1+ 4 e 0.19112(5) 0.04614(3) 0.81431(5) 1 0 0.0283(2) 
Ag11 Ag1+ 4 e 0.43317(7) 0.03980(4) 0.06113(7) 1 0 0.0547(4) 
Ag12 Ag1+ 4 e 0.19664(5) 0.05639(3) 0.32915(5) 1 0 0.0334(2) 
Ag13 Ag1+ 4 e 0.54006(7) 0.19796(3) 0.68326(7) 1 0 0.0456(3) 
Ag14 Ag1+ 4 e 0.79953(6) 0.24740(3) 0.72487(6) 1 0 0.0370(2) 
Ag15 Ag1+ 4 e 0.33231(7) 0.20334(3) 0.99470(7) 1 0 0.0414(3) 
Ag16 Ag1+ 4 e 0.26037(6) 0.24600(3) 0.70911(6) 1 0 0.0422(3) 
Ag17 Ag1+ 4 e 0.82841(8) 0.19326(3) 0.46273(8) 1 0 0.0496(4) 
Ag18 Ag1+ 4 e 0.99868(7) 0.19730(3) 0.14585(7) 1 0 0.0443(3) 
Ag19 Ag1+ 4 e 0.67068(6) 0.05271(3) 0.28340(6) 1 0 0.0357(3) 
Ag20 Ag1+ 4 e 0.43063(8) 0.04573(4) 0.55860(7) 1 0 0.0588(4) 
Si1 Si4+ 4 e 0.67891(13) 0.10260(8) 0.56539(13) 1 0 0.0141(5) 
O1 O2- 4 e 0.6000(4) 0.0676(2) 0.4342(4) 1 0 0.0222(16) 
O2 O2- 4 e 0.6070(4) 0.1000(2) 0.6412(4) 1 0 0.0206(16) 
O3 O2- 4 e 0.8015(4) 0.0587(2) 0.6360(4) 1 0 0.0213(16) 
O4 O2- 4 e 0.7082(4) 0.1843(2) 0.5519(4) 1 0 0.0220(17) 
Si2 Si4+ 4 e 0.42500(13) 0.10725(8) 0.82294(14) 1 0 0.0149(6) 
O5 O2- 4 e 0.5525(4) 0.0698(2) 0.8934(4) 1 0 0.0276(18) 
O6 O2- 4 e 0.3496(4) 0.0624(2) 0.6997(4) 1 0 0.0213(16) 
O7 O2- 4 e 0.3543(4) 0.1062(2) 0.9005(4) 1 0 0.0220(17) 
O8 O2- 4 e 0.4393(4) 0.1882(2) 0.7917(4) 1 0 0.0217(17) 
Si3 Si4+ 4 e 0.93318(13) 0.10047(8) 0.31383(13) 1 0 0.0136(5) 
O9 O2- 4 e 1.0606(4) 0.1385(2) 0.3915(4) 1 0 0.0211(15) 
O10 O2- 4 e 0.8620(4) 0.0957(2) 0.3898(4) 1 0 0.0209(16) 
O11 O2- 4 e 0.8604(4) 0.1466(2) 0.1937(4) 1 0 0.0199(15) 
O12 O2- 4 e 0.9582(4) 0.0220(2) 0.2791(4) 1 0 0.0192(16) 
Si4 Si4+ 4 e 0.17392(14) 0.10460(8) 0.06564(13) 1 0 0.0153(6) 
O13 O2- 4 e 0.2934(3) 0.1509(2) 0.1403(4) 1 0 0.0205(15) 
O14 O2- 4 e 0.0971(4) 0.1429(2) -0.0630(4) 1 0 0.0209(15) 
O15 O2- 4 e 0.0990(4) 0.0998(2) 0.1395(4) 1 0 0.0225(17) 
O16 O2- 4 e 0.2100(4) 0.0262(2) 0.0418(4) 1 0 0.0230(18) 
Cl1 Cl1- 4 e 0.33584(15) 0.17290(8) 0.43377(15) 1 0 0.0281(6) 
Cl2 Cl1- 4 e 0.07346(15) 0.18130(9) 0.67079(15) 1 0 0.0300(6) 
Cl3 Cl1- 4 e 0.57877(14) 0.17058(9) 0.17273(16) 1 0 0.0298(6) 
Cl4 Cl1- 4 e 0.80771(17) 0.17905(9) 0.90257(16) 1 0 0.0321(7) 

loop_
_atom_site_aniso_label
_atom_site_aniso_type_symbol
_atom_site_aniso_U_11
_atom_site_aniso_U_22
_atom_site_aniso_U_33
_atom_site_aniso_U_12
_atom_site_aniso_U_13
_atom_site_aniso_U_23
Ag1 Ag1+ 0.0294(3) 0.0182(2) 0.0292(3) -0.00335(19) 0.0070(2) -0.00338(18)
Ag2 Ag1+ 0.0200(2) 0.0351(3) 0.0231(2) -0.00123(19) 0.0039(2) -0.0055(2)
Ag3 Ag1+ 0.0339(3) 0.0261(2) 0.0235(2) 0.0047(2) 0.0147(2) 0.00669(19)
Ag4 Ag1+ 0.0318(3) 0.0230(3) 0.0323(3) 0.0066(2) 0.0098(2) 0.0066(2)
Ag5 Ag1+ 0.0218(3) 0.0306(3) 0.0204(2) 0.00410(19) 0.0015(2) 0.00010(19)
Ag6 Ag1+ 0.0184(2) 0.0320(3) 0.0215(2) 0.00341(18) 0.00286(19) -0.00008(19)
Ag7 Ag1+ 0.0219(3) 0.0303(3) 0.0233(2) 0.00064(19) 0.0037(2) -0.00495(19)
Ag8 Ag1+ 0.0256(3) 0.0253(2) 0.0315(3) -0.00512(19) 0.0150(2) -0.00526(19)
Ag9 Ag1+ 0.0326(3) 0.0256(2) 0.0236(2) 0.00615(19) 0.0163(2) 0.00628(18)
Ag10 Ag1+ 0.0240(3) 0.0310(3) 0.0305(3) -0.0100(2) 0.0133(2) -0.0049(2)
Ag11 Ag1+ 0.0497(4) 0.0526(4) 0.0754(5) 0.0247(3) 0.0408(4) 0.0435(4)
Ag12 Ag1+ 0.0416(3) 0.0273(3) 0.0365(3) 0.0076(2) 0.0227(3) 0.0100(2)
Ag13 Ag1+ 0.0650(5) 0.0288(3) 0.0673(5) -0.0029(3) 0.0512(4) -0.0081(3)
Ag14 Ag1+ 0.0462(4) 0.0264(3) 0.0353(3) -0.0084(2) 0.0168(3) -0.0026(2)
Ag15 Ag1+ 0.0580(4) 0.0236(3) 0.0600(4) 0.0038(2) 0.0424(4) 0.0065(2)
Ag16 Ag1+ 0.0347(3) 0.0278(3) 0.0567(4) 0.0030(2) 0.0155(3) 0.0103(3)
Ag17 Ag1+ 0.0745(5) 0.0273(3) 0.0747(5) 0.0064(3) 0.0580(4) 0.0014(3)
Ag18 Ag1+ 0.0520(4) 0.0265(3) 0.0687(5) -0.0024(2) 0.0404(4) 0.0029(3)
Ag19 Ag1+ 0.0399(3) 0.0266(3) 0.0505(4) -0.0098(2) 0.0296(3) -0.0068(2)
Ag20 Ag1+ 0.0751(5) 0.0543(4) 0.0725(5) -0.0448(4) 0.0560(5) -0.0338(4)
Si1 Si4+ 0.0124(7) 0.0166(7) 0.0121(7) 0.0012(5) 0.0048(6) 0.0007(5)
O1 O2- 0.022(2) 0.026(2) 0.0145(19) 0.0041(17) 0.0056(17) -0.0014(16)
O2 O2- 0.025(2) 0.022(2) 0.021(2) 0.0017(17) 0.0160(18) 0.0024(16)
O3 O2- 0.023(2) 0.0171(19) 0.023(2) 0.0061(16) 0.0104(18) 0.0019(16)
O4 O2- 0.027(2) 0.0153(18) 0.022(2) -0.0005(16) 0.0100(18) 0.0015(16)
Si2 Si4+ 0.0131(7) 0.0139(7) 0.0161(7) 0.0001(5) 0.0057(6) 0.0012(5)
O5 O2- 0.021(2) 0.026(2) 0.031(2) 0.0042(18) 0.0087(19) -0.0039(19)
O6 O2- 0.022(2) 0.0161(19) 0.017(2) 0.0033(16) 0.0020(17) -0.0009(15)
O7 O2- 0.022(2) 0.024(2) 0.024(2) 0.0003(17) 0.0141(18) 0.0012(17)
O8 O2- 0.022(2) 0.0157(19) 0.025(2) -0.0011(15) 0.0091(18) 0.0013(16)
Si3 Si4+ 0.0125(7) 0.0125(7) 0.0130(7) -0.0011(5) 0.0037(6) -0.0004(5)
O9 O2- 0.0139(19) 0.020(2) 0.021(2) -0.0029(15) 0.0019(16) -0.0002(16)
O10 O2- 0.020(2) 0.022(2) 0.025(2) 0.0010(16) 0.0142(18) 0.0017(17)
O11 O2- 0.0144(19) 0.022(2) 0.019(2) -0.0006(16) 0.0040(16) -0.0006(16)
O12 O2- 0.018(2) 0.020(2) 0.018(2) 0.0020(16) 0.0076(17) -0.0022(16)
Si4 Si4+ 0.0165(8) 0.0133(7) 0.0150(7) 0.0005(5) 0.0066(6) 0.0011(5)
O13 O2- 0.0124(19) 0.027(2) 0.0138(19) -0.0075(16) -0.0009(15) -0.0035(16)
O14 O2- 0.019(2) 0.0175(19) 0.018(2) -0.0031(16) 0.0024(16) -0.0027(16)
O15 O2- 0.020(2) 0.027(2) 0.025(2) -0.0034(17) 0.0139(18) -0.0061(18)
O16 O2- 0.029(2) 0.019(2) 0.025(2) 0.0013(17) 0.015(2) -0.0029(17)
Cl1 Cl1- 0.0281(8) 0.0230(7) 0.0335(8) -0.0032(6) 0.0149(7) -0.0042(6)
Cl2 Cl1- 0.0309(9) 0.0263(7) 0.0324(8) 0.0015(6) 0.0147(7) 0.0005(6)
Cl3 Cl1- 0.0243(8) 0.0222(7) 0.0420(9) -0.0003(6) 0.0148(7) 0.0009(6)
Cl4 Cl1- 0.0418(10) 0.0254(7) 0.0290(8) -0.0028(7) 0.0168(7) -0.0007(6)
#End of data_409992-ICSD


