data_51679-ICSD
#?2014 by Fachinformationszentrum Karlsruhe, and the U.S. Secretary of 
#Commerce on behalf of the United States.  All rights reserved.
_database_code_ICSD                51679
_audit_creation_date               2003/10/01
_chemical_name_systematic          'Lithium Amide'
_chemical_formula_structural       'Li (N H2)'
_chemical_formula_sum              'H2 Li1 N1'
_publ_section_title
;
Prediction of hydrogen positions in complex structures
;
loop_
_citation_id
_citation_journal_abbrev
_citation_year
_citation_journal_volume
_citation_page_first
_citation_page_last
_citation_journal_id_ASTM
primary 'Zeitschrift fuer Kristallographie (1979-2010)' 2001 216 99 104 ZEKRDZ
_publ_author_name                  'Milman, V.;Winkler, B.'
_cell_length_a                     5.037
_cell_length_b                     5.037
_cell_length_c                     10.278
_cell_angle_alpha                  90
_cell_angle_beta                   90
_cell_angle_gamma                  90
_cell_volume                       260.77
_cell_formula_units_Z              8
_symmetry_space_group_name_H-M     'I -4'
_symmetry_Int_Tables_number        82
loop_
_symmetry_equiv_pos_site_id
_symmetry_equiv_pos_as_xyz
  1	'-y, x, -z'
  2	'y, -x, -z'
  3	'-x, -y, z'
  4	'x, y, z'
  5	'-y+.5, x+.5, -z+.5'
  6	'y+.5, -x+.5, -z+.5'
  7	'-x+.5, -y+.5, z+.5'
  8	'x+.5, y+.5, z+.5'
loop_
_atom_type_symbol
_atom_type_oxidation_number
H1+	1
Li1+	1
N3-	-3
loop_
_atom_site_label
_atom_site_type_symbol
_atom_site_symmetry_multiplicity
_atom_site_Wyckoff_symbol
_atom_site_fract_x
_atom_site_fract_y
_atom_site_fract_z
_atom_site_occupancy
_atom_site_attached_hydrogens
Li1 Li1+ 2 a 0.0 0.0 0.0 1. 0 
Li2 Li1+ 2 c 0.0 0.5 0.25 1. 0 
Li3 Li1+ 4 f 0.0 0.5 0.0083 1. 0 
N1 N3- 8 g 0.2263 0.2493 0.1140 1. 0 
H1 H1+ 8 g 0.2331 0.1237 0.1931 1. 0 
H2 H1+ 8 g 0.4073 0.3440 0.1177 1. 0 

#End of data_51679-ICSD


