data_34078-ICSD
#?2014 by Fachinformationszentrum Karlsruhe, and the U.S. Secretary of 
#Commerce on behalf of the United States.  All rights reserved.
_database_code_ICSD                34078
_audit_creation_date               1980/01/01
_audit_update_record               1984/11/02
_chemical_name_systematic          'Calcium Bis(tetrahydroxoborate)'
_chemical_formula_structural       'Ca (B (O H)4)2'
_chemical_formula_sum              'H8 B2 Ca1 O8'
_publ_section_title
;
Utochnennaya kristallicheskaya struktura frolovita Ca (B (O H)4)2
;
loop_
_citation_id
_citation_journal_abbrev
_citation_year
_citation_journal_volume
_citation_page_first
_citation_page_last
_citation_journal_id_ASTM
primary 'Doklady Akademii Nauk SSSR' 1976 230 91 94 DANKAS
_publ_author_name                  'Simonov, M.A.'
_cell_length_a                     7.745(2)
_cell_length_b                     5.667(1)
_cell_length_c                     8.102(2)
_cell_angle_alpha                  113.24(2)
_cell_angle_beta                   101.54(2)
_cell_angle_gamma                  107.92(2)
_cell_volume                       289.12
_cell_formula_units_Z              2
_symmetry_space_group_name_H-M     'P -1'
_symmetry_Int_Tables_number        2
_refine_ls_R_factor_all            .032
loop_
_symmetry_equiv_pos_site_id
_symmetry_equiv_pos_as_xyz
  1	'-x, -y, -z'
  2	'x, y, z'
loop_
_atom_type_symbol
_atom_type_oxidation_number
B3+	3
Ca2+	2
H1+	1
O2-	-2
loop_
_atom_site_label
_atom_site_type_symbol
_atom_site_symmetry_multiplicity
_atom_site_Wyckoff_symbol
_atom_site_fract_x
_atom_site_fract_y
_atom_site_fract_z
_atom_site_occupancy
_atom_site_attached_hydrogens
_atom_site_B_iso_or_equiv
Ca1 Ca2+ 2 i 0.23651(5) 0.01813(7) 0.18818(5) 1. 0 0 
B1 B3+ 2 i 0.0287(3) 0.4076(4) 0.2353(3) 1. 0 0 
B2 B3+ 2 i 0.4383(3) 0.3149(4) 0.7119(3) 1. 0 0 
O1 O2- 2 i 0.0660(2) 0.7080(3) 0.3016(2) 1. 0 0 
O2 O2- 2 i 0.0830(2) 0.2948(3) 0.0654(2) 1. 0 0 
O3 O2- 2 i 0.1433(2) 0.3739(3) 0.3859(2) 1. 0 0 
O4 O2- 2 i 0.1820(2) 0.7724(3) 0.8306(2) 1. 0 0 
O5 O2- 2 i 0.2384(3) 0.1414(3) 0.6825(2) 1. 0 0 
O6 O2- 2 i 0.4243(2) 0.7353(3) 0.1606(2) 1. 0 0 
O7 O2- 2 i 0.4675(2) 0.2288(3) 0.5267(2) 1. 0 0 
O8 O2- 2 i 0.4858(2) 0.6236(3) 0.8092(2) 1. 0 0 
H1 H1+ 2 i 0.020(4) 0.292(5) 0.688(4) 1. 0 10.1 
H2 H1+ 2 i 0.191(4) 0.416(5) 0.078(4) 1. 0 2.9 
H3 H1+ 2 i 0.232(4) 0.485(5) 0.415(4) 1. 0 12. 
H4 H1+ 2 i 0.793(4) 0.107(5) 0.202(4) 1. 0 3.5 
H5 H1+ 2 i 0.183(4) 0.027(6) 0.581(4) 1. 0 3. 
H6 H1+ 2 i 0.541(4) 0.277(5) 0.929(4) 1. 0 3. 
H7 H1+ 2 i 0.498(4) 0.150(5) 0.520(4) 1. 0 13. 
H8 H1+ 2 i 0.609(4) 0.346(4) 0.204(4) 1. 0 2.7 

loop_
_atom_site_aniso_label
_atom_site_aniso_type_symbol
_atom_site_aniso_B_11
_atom_site_aniso_B_22
_atom_site_aniso_B_33
_atom_site_aniso_B_12
_atom_site_aniso_B_13
_atom_site_aniso_B_23
Ca1 Ca2+ 0.35(1) 0.35(1) 0.40(1) 0.15(1) 0.11(1) 0.20(1)
B1 B3+ 0.57(5) 0.48(5) 0.56(5) 0.23(4) 0.24(4) 0.28(4)
B2 B3+ 0.49(5) 0.42(5) 0.50(5) 0.17(4) 0.17(4) 0.21(4)
O1 O2- 0.70(4) 0.44(4) 0.64(4) 0.26(3) 0.29(3) 0.26(3)
O2 O2- 0.53(4) 0.50(4) 0.51(4) 0.17(3) 0.21(3) 0.19(3)
O3 O2- 0.61(4) 0.70(4) 0.55(4) 0.32(3) 0.13(3) 0.35(3)
O4 O2- 0.51(4) 0.49(4) 0.77(4) 0.22(3) 0.27(3) 0.35(3)
O5 O2- 0.48(4) 0.59(4) 0.67(4) 0.13(3) 0.21(3) 0.28(3)
O6 O2- 0.53(4) 0.59(4) 0.47(4) 0.28(3) 0.14(3) 0.31(3)
O7 O2- 0.59(4) 0.55(4) 0.40(4) 0.26(3) 0.18(3) 0.23(3)
O8 O2- 0.52(4) 0.38(4) 0.62(4) 0.19(3) 0.17(3) 0.18(3)
#End of data_34078-ICSD


