data_422785-ICSD
#?2014 by Fachinformationszentrum Karlsruhe, and the U.S. Secretary of 
#Commerce on behalf of the United States.  All rights reserved.
_database_code_ICSD                422785
_audit_creation_date               2012/02/01
_audit_update_record               2012/08/01
_chemical_name_systematic
;
Lithium Nonaneodymium Hexadecamolybdate
;
_chemical_formula_structural       'Li Nd9 Mo16 O35'
_chemical_formula_sum              'Li1 Mo16 Nd9 O35'
_publ_section_title
;
Synthesis, crystal and electronic structures, and magnetic properties 
of Li Ln9 Mo16 O35 (Ln = La, Ce, Pr, and Nd) compounds containing the 
original cluster Mo16 O36
;
loop_
_citation_id
_citation_journal_abbrev
_citation_year
_citation_journal_volume
_citation_journal_issue
_citation_page_first
_citation_page_last
_citation_journal_id_ASTM
primary 'Chemistry - A European Journal' 2011 17 49 13806 13813 CEUJED
_publ_author_name
;
Gougeon, P.;Gall, P.;Cuny, J.;Gautier, R.;le Polles, L.;Delevoye, 
L.;Trebosc, J.
;
_cell_length_a                     18.1335(3)
_cell_length_b                     8.6036(2)
_cell_length_c                     9.75260(10)
_cell_angle_alpha                  90.00
_cell_angle_beta                   101.8986(11)
_cell_angle_gamma                  90.00
_cell_volume                       1488.84
_cell_formula_units_Z              2
_symmetry_space_group_name_H-M     'C 1 2/m 1'
_symmetry_Int_Tables_number        12
_refine_ls_R_factor_all            .0218
loop_
_symmetry_equiv_pos_site_id
_symmetry_equiv_pos_as_xyz
  1	'-x, y, -z'
  2	'-x, -y, -z'
  3	'x, -y, z'
  4	'x, y, z'
  5	'-x+.5, y+.5, -z'
  6	'-x+.5, -y+.5, -z'
  7	'x+.5, -y+.5, z'
  8	'x+.5, y+.5, z'
loop_
_atom_type_symbol
_atom_type_oxidation_number
Li1+	1
Mo2.63+	2.63
Nd3+	3
O2-	-2
loop_
_atom_site_label
_atom_site_type_symbol
_atom_site_symmetry_multiplicity
_atom_site_Wyckoff_symbol
_atom_site_fract_x
_atom_site_fract_y
_atom_site_fract_z
_atom_site_occupancy
_atom_site_attached_hydrogens
_atom_site_U_iso_or_equiv
Li1 Li1+ 2 a -0.5000 -0.5000 1.0000 1 0 0.030(2) 
Nd1 Nd3+ 8 j -0.345178(6) -0.273230(12 0.201195(10) 1 0 0.00535(2) 
Nd2 Nd3+ 4 i -0.191298(9) -0.5000 0.070062(14) 1 0 0.00611(2) 
Nd3 Nd3+ 4 i -0.298126(9) 0.0000 0.535168(13) 1 0 0.00569(2) 
Nd4 Nd3+ 2 b 0.0000 -0.5000 0.0000 1 0 0.00621(3) 
Mo1 Mo2.63+ 4 i -0.289675(13 -0.5000 0.74613(2) 1 0 0.00358(3) 
Mo2 Mo2.63+ 8 j -0.400703(9) -0.338246(17 0.830199(14) 1 0 0.00320(2) 
Mo3 Mo2.63+ 8 j -0.388196(9) -0.341271(17 0.551609(14) 1 0 0.00304(2) 
Mo4 Mo2.63+ 8 j -0.000546(9) -0.316534(17 0.356479(14) 1 0 0.00294(2) 
Mo5 Mo2.63+ 4 i -0.490352(13 -0.5000 0.35587(2) 1 0 0.00298(3) 
O1 O2- 4 i -0.17604(12) -0.5000 0.8119(2) 1 0 0.0065(3) 
O2 O2- 8 j -0.28383(9) -0.33405(16) 0.88808(13) 1 0 0.0066(2) 
O3 O2- 8 j -0.10030(9) -0.67533(16) 0.01947(13) 1 0 0.0063(2) 
O4 O2- 8 j -0.27117(8) -0.33508(16) 0.60814(13) 1 0 0.0058(2) 
O5 O2- 8 j -0.38305(8) -0.16037(15) 0.69293(13) 1 0 0.0047(2) 
O6 O2- 4 i 0.00706(12) -0.5000 0.23263(18) 1 0 0.0058(3) 
O7 O2- 4 i -0.39926(12) -0.5000 0.98788(19) 1 0 0.0062(3) 
O8 O2- 8 j -0.38377(8) -0.17581(16) 0.40492(13) 1 0 0.0047(2) 
O9 O2- 2 d 0.0000 -0.5000 0.5000 1 0 0.0052(4) 
O10 O2- 8 j -0.51899(8) -0.33579(16) 0.79794(13) 1 0 0.0054(2) 
O11 O2- 4 i -0.37328(12) -0.5000 0.39866(19) 1 0 0.0050(3) 
O12 O2- 4 i -0.26850(12) -0.5000 0.23179(19) 1 0 0.0059(3) 

loop_
_atom_site_aniso_label
_atom_site_aniso_type_symbol
_atom_site_aniso_U_11
_atom_site_aniso_U_22
_atom_site_aniso_U_33
_atom_site_aniso_U_12
_atom_site_aniso_U_13
_atom_site_aniso_U_23
Li1 Li1+ 0.007(5) 0.044(7) 0.039(6) 0.000 0.006(4) 0.000
Nd1 Nd3+ 0.00558(4) 0.00487(3) 0.00572(3) 0.00096(3) 0.00145(3) 0.00078(3)
Nd2 Nd3+ 0.00609(6) 0.00711(5) 0.00585(5) 0.000 0.00289(4) 0.000
Nd3 Nd3+ 0.00594(6) 0.00571(5) 0.00503(4) 0.000 0.00024(4) 0.000
Nd4 Nd3+ 0.00602(8) 0.00850(8) 0.00465(6) 0.000 0.00233(6) 0.000
Mo1 Mo2.63+ 0.00274(8) 0.00395(7) 0.00390(7) 0.000 0.00032(6) 0.000
Mo2 Mo2.63+ 0.00350(6) 0.00282(5) 0.00326(5) -0.00003(4) 0.00065(4) 
-0.00032(4)
Mo3 Mo2.63+ 0.00306(6) 0.00275(5) 0.00337(5) -0.00010(4) 0.00081(4) 
0.00018(4)
Mo4 Mo2.63+ 0.00321(6) 0.00233(5) 0.00328(5) -0.00005(4) 0.00068(4) 
-0.00013(4)
Mo5 Mo2.63+ 0.00315(8) 0.00266(7) 0.00322(6) 0.000 0.00087(6) 0.000
O1 O2- 0.0032(8) 0.0068(7) 0.0085(7) 0.000 -0.0011(6) 0.000
O2 O2- 0.0065(6) 0.0066(5) 0.0063(5) 0.0002(5) 0.0005(4) -0.0014(4)
O3 O2- 0.0084(6) 0.0051(5) 0.0055(4) 0.0002(5) 0.0012(4) 0.0018(4)
O4 O2- 0.0044(6) 0.0065(5) 0.0066(4) 0.0002(4) 0.0011(4) 0.0006(4)
O5 O2- 0.0045(6) 0.0038(5) 0.0058(4) -0.0007(4) 0.0009(4) -0.0006(4)
O6 O2- 0.0098(9) 0.0038(7) 0.0040(6) 0.000 0.0018(6) 0.000
O7 O2- 0.0076(9) 0.0049(7) 0.0067(6) 0.000 0.0030(6) 0.000
O8 O2- 0.0037(5) 0.0053(5) 0.0051(4) -0.0009(4) 0.0004(4) 0.0010(4)
O9 O2- 0.0095(12) 0.0036(9) 0.0029(8) 0.000 0.0019(8) 0.000
O10 O2- 0.0055(6) 0.0052(5) 0.0054(4) -0.0004(4) 0.0012(4) -0.0003(4)
O11 O2- 0.0043(8) 0.0053(7) 0.0056(6) 0.000 0.0016(6) 0.000
O12 O2- 0.0063(8) 0.0051(7) 0.0066(6) 0.000 0.0023(6) 0.000
#End of data_422785-ICSD


