data_73509-ICSD
#?2014 by Fachinformationszentrum Karlsruhe, and the U.S. Secretary of 
#Commerce on behalf of the United States.  All rights reserved.
_database_code_ICSD                73509
_audit_creation_date               1994/06/30
_chemical_name_systematic
;
Potassium Molybdenum Oxide (0.3/1/3)
;
_chemical_formula_structural       'K0.3 Mo O3'
_chemical_formula_sum              'K0.3 Mo1 O3'
_publ_section_title
;
The incommensurately modulated structures of the blue bronzes 
K0.3MoO3 and Rb0.3MoO3
;
loop_
_citation_id
_citation_journal_abbrev
_citation_year
_citation_journal_volume
_citation_page_first
_citation_page_last
_citation_journal_id_ASTM
primary 'Acta Crystallographica, Section B: Structural Science'
 1993 49 579 591 ASBSDK
_publ_author_name                  'Schutte, W.J.;de Boer, J.L.'
_cell_length_a                     18.211(2)
_cell_length_b                     7.555(1)
_cell_length_c                     9.834(1)
_cell_angle_alpha                  90.
_cell_angle_beta                   117.51(1)
_cell_angle_gamma                  90.
_cell_volume                       1200.02
_cell_formula_units_Z              20
_symmetry_space_group_name_H-M     'C 1 2/m 1'
_symmetry_Int_Tables_number        12
_refine_ls_R_factor_all            .03
loop_
_symmetry_equiv_pos_site_id
_symmetry_equiv_pos_as_xyz
  1	'-x, y, -z'
  2	'-x, -y, -z'
  3	'x, -y, z'
  4	'x, y, z'
  5	'-x+.5, y+.5, -z'
  6	'-x+.5, -y+.5, -z'
  7	'x+.5, -y+.5, z'
  8	'x+.5, y+.5, z'
loop_
_atom_type_symbol
_atom_type_oxidation_number
K1+	1
Mo5.7+	5.7
O2-	-2
loop_
_atom_site_label
_atom_site_type_symbol
_atom_site_symmetry_multiplicity
_atom_site_Wyckoff_symbol
_atom_site_fract_x
_atom_site_fract_y
_atom_site_fract_z
_atom_site_occupancy
_atom_site_attached_hydrogens
K1 K1+ 2 d 0.5 0 0.5 1. 0 
K2 K1+ 4 i 0.31174(7) 0.5 0.28116(12) 1. 0 
Mo1 Mo5.7+ 4 i 0.22619(2) 0 0.17416(4) 1. 0 
Mo2 Mo5.7+ 8 j 0.07989(1) 0.25503(2) 0.95754(2) 1. 0 
Mo3 Mo5.7+ 8 j 0.86165(1) 0.24987(3) 0.65362(2) 1. 0 
O1 O2- 4 f 0.75 0.25 0.5 1. 0 
O2 O2- 4 i 0.2507(2) 0 0.0260(4) 1. 0 
O3 O2- 4 i 0.3191(2) 0 0.3356(4) 1. 0 
O4 O2- 4 i 0.0806(2) 0.5 -.0106(4) 1. 0 
O5 O2- 4 i 0.0893(2) 0 -.0066(4) 1. 0 
O6 O2- 4 i 0.8444(2) 0 0.6880(4) 1. 0 
O7 O2- 4 i 0.8592(2) 0.5 0.6698(4) 1. 0 
O8 O2- 8 j 0.1022(2) 0.2544(4) 0.8086(2) 1. 0 
O9 O2- 8 j 0.1858(1) 0.2436(3) 0.1610(2) 1. 0 
O10 O2- 8 j -.0877(2) 0.2192(3) 0.5482(2) 1. 0 
O11 O2- 8 j -.0375(1) 0.2462(3) 0.8536(2) 1. 0 

#End of data_73509-ICSD


