data_27720-ICSD
#?2014 by Fachinformationszentrum Karlsruhe, and the U.S. Secretary of 
#Commerce on behalf of the United States.  All rights reserved.
_database_code_ICSD                27720
_audit_creation_date               1980/01/01
_audit_update_record               2009/02/01
_chemical_name_systematic          'Barium Tecto-dialumodisilicate'
_chemical_formula_structural       'Ba (Al2 Si2 O8)'
_chemical_formula_sum              'Al2 Ba1 O8 Si2'
_chemical_name_mineral             Paracelsian
_publ_section_title                'Crystal structure of paracelsian'
loop_
_citation_id
_citation_journal_abbrev
_citation_year
_citation_journal_volume
_citation_page_first
_citation_page_last
_citation_journal_id_ASTM
primary Kristallografiya 1960 5 864 868 KRISAJ
2 'Soviet Physics, Crystallography (= Kristallografiya)'
 1960 5 826 829 SPHCA6
_publ_author_name                  'Bakakin, V.V.;Belov, N.V.'
_cell_length_a                     9.08
_cell_length_b                     9.58
_cell_length_c                     8.58
_cell_angle_alpha                  90.
_cell_angle_beta                   90.00(17)
_cell_angle_gamma                  90.
_cell_volume                       746.34
_cell_formula_units_Z              4
_symmetry_space_group_name_H-M     'P 1 21/a 1'
_symmetry_Int_Tables_number        14
_refine_ls_R_factor_all            .03
loop_
_symmetry_equiv_pos_site_id
_symmetry_equiv_pos_as_xyz
  1	'x+.5, -y+.5, z'
  2	'-x, -y, -z'
  3	'-x+.5, y+.5, -z'
  4	'x, y, z'
loop_
_atom_type_symbol
_atom_type_oxidation_number
Al3+	3
Ba2+	2
O2-	-2
Si4+	4
loop_
_atom_site_label
_atom_site_type_symbol
_atom_site_symmetry_multiplicity
_atom_site_Wyckoff_symbol
_atom_site_fract_x
_atom_site_fract_y
_atom_site_fract_z
_atom_site_occupancy
_atom_site_attached_hydrogens
Ba1 Ba2+ 4 e 0.397 0.088 0.751 1. 0 
Si1 Si4+ 4 e 0.067 0.196 0.435 1. 0 
Si2 Si4+ 4 e 0.27 0.417 0.938 1. 0 
Al1 Al3+ 4 e 0.274 0.419 0.571 1. 0 
Al2 Al3+ 4 e 0.064 0.196 0.067 1. 0 
O1 O2- 4 e 0.194 0.088 0.501 1. 0 
O2 O2- 4 e 0.195 0.083 0.003 1. 0 
O3 O2- 4 e 0.13 0.36 0.454 1. 0 
O4 O2- 4 e 0.128 0.365 0.046 1. 0 
O5 O2- 4 e 0.428 0.313 0.555 1. 0 
O6 O2- 4 e 0.417 0.316 0.94 1. 0 
O7 O2- 4 e 0.007 0.173 0.255 1. 0 
O8 O2- 4 e 0.209 0.412 0.758 1. 0 

#End of data_27720-ICSD


