data_280074-ICSD
#?2014 by Fachinformationszentrum Karlsruhe, and the U.S. Secretary of 
#Commerce on behalf of the United States.  All rights reserved.
_database_code_ICSD                280074
_audit_creation_date               2000/07/15
_chemical_name_systematic
;
Dicalcium Dihydroxonium Decavanadate 16-hydrate
;
_chemical_formula_structural       '(Ca)2 (H3 O)2 (V10 O28) (H2 O)16'
_chemical_formula_sum              'H38 Ca2 O46 V10'
_publ_section_title                'Ca2 (H3 O)2 (V10 O28).16 H2O'
loop_
_citation_id
_citation_journal_abbrev
_citation_year
_citation_journal_volume
_citation_page_first
_citation_page_last
_citation_journal_id_ASTM
primary 'Acta Crystallographica, Section C: Crystal Structure Communications'
 1999 55 291 293 ACSCEE
_publ_author_name
;
Strukan, N.;Cindric, M.;Kamenar, B.
;
_cell_length_a                     9.7172(6)
_cell_length_b                     10.2638(5)
_cell_length_c                     10.5991(4)
_cell_angle_alpha                  89.996(4)
_cell_angle_beta                   102.938(4)
_cell_angle_gamma                  110.121(4)
_cell_volume                       963.96
_cell_formula_units_Z              1
_symmetry_space_group_name_H-M     'P -1'
_symmetry_Int_Tables_number        2
_refine_ls_R_factor_all            .048
loop_
_symmetry_equiv_pos_site_id
_symmetry_equiv_pos_as_xyz
  1	'-x, -y, -z'
  2	'x, y, z'
loop_
_atom_type_symbol
_atom_type_oxidation_number
Ca2+	2
H1+	1
O2-	-2
V5+	5
loop_
_atom_site_label
_atom_site_type_symbol
_atom_site_symmetry_multiplicity
_atom_site_Wyckoff_symbol
_atom_site_fract_x
_atom_site_fract_y
_atom_site_fract_z
_atom_site_occupancy
_atom_site_attached_hydrogens
_atom_site_U_iso_or_equiv
V1 V5+ 2 i 0.84763(4) -.27091(4) 0.40686(3) 1. 0 0 
V2 V5+ 2 i 1.01784(4) -.04025(4) 0.25285(3) 1. 0 0 
V3 V5+ 2 i 1.02336(4) 0.26092(4) 0.29384(4) 1. 0 0 
V4 V5+ 2 i 0.68579(4) -.19824(4) 0.60353(4) 1. 0 0 
V5 V5+ 2 i 0.84545(4) 0.03551(3) 0.44780(3) 1. 0 0 
O1 O2- 2 i 1.07376(15) 0.09918(14) 0.43186(13) 1. 0 0 
O2 O2- 2 i 0.94047(16) 0.15858(15) 0.60257(14) 1. 0 0 
O3 O2- 2 i 0.82781(15) -.10452(15) 0.31784(13) 1. 0 0 
O4 O2- 2 i 1.22401(17) 0.30403(16) 0.29391(15) 1. 0 0 
O5 O2- 2 i 0.92378(18) -.35687(15) 0.54144(15) 1. 0 0 
O6 O2- 2 i 0.66899(17) -.29985(16) 0.45206(15) 1. 0 0 
O7 O2- 2 i 0.96603(17) 0.10238(16) 0.18072(14) 1. 0 0 
O8 O2- 2 i 1.21929(16) 0.04428(16) 0.26740(14) 1. 0 0 
O9 O2- 2 i 0.82444(16) 0.15750(15) 0.34517(14) 1. 0 0 
O10 O2- 2 i 0.67591(16) -.04396(16) 0.48191(15) 1. 0 0 
O11 O2- 2 i 0.9717(2) 0.36607(19) 0.19932(18) 1. 0 0 
O12 O2- 2 i 0.51587(18) -.25208(19) 0.62120(17) 1. 0 0 
O13 O2- 2 i 0.7995(2) -.38356(18) 0.28505(17) 1. 0 0 
O14 O2- 2 i 0.96441(18) -.15449(17) 0.13019(15) 1. 0 0 
Ca1 Ca2+ 2 i 0.66038(5) 0.26588(5) -.08695(4) 1. 0 0 
O15 O2- 2 i 0.7869(2) -.6424(2) 0.5522(2) 1. 0 0 
H1 H1+ 2 i 0.8449 -.5444 0.5569 1. 0 0.068 
H2 H1+ 2 i 0.6972 -.6668 0.4815 1. 0 0.068 
H3 H1+ 2 i 0.8485 -.7042 0.5651 1. 0 0.068 
O16 O2- 2 i 0.6122(2) 0.13482(19) -.29802(17) 1. 0 0 
H4 H1+ 2 i 0.5254 0.0999 -.3534 1. 0 0.051 
H5 H1+ 2 i 0.6311 0.0651 -.3059 1. 0 0.051 
O17 O2- 2 i 0.74576(18) 0.07273(17) -.03426(15) 1. 0 0 
H7 H1+ 2 i 0.8269 0.081 0.0288 1. 0 0.041 
H8 H1+ 2 i 0.7613 0.0219 -.1001 1. 0 0.041 
O18 O2- 2 i 0.5977(2) 0.41033(19) -.26022(19) 1. 0 0 
H9 H1+ 2 i 0.6443 0.4999 -.272 1. 0 0.058 
H10 H1+ 2 i 0.515 0.3752 -.3108 1. 0 0.058 
O19 O2- 2 i 0.9048(2) 0.36157(19) -.1280(2) 1. 0 0 
H11 H1+ 2 i 0.957 0.4475 -.1423 1. 0 0.061 
H12 H1+ 2 i 0.9617 0.3027 -.1237 1. 0 0.061 
O20 O2- 2 i 0.4032(2) 0.1410(2) -.11776(19) 1. 0 0 
H13 H1+ 2 i 0.3664 0.0582 -.0741 1. 0 0.067 
H14 H1+ 2 i 0.3411 0.1316 -.1867 1. 0 0.067 
O21 O2- 2 i 0.6098(2) 0.2082(3) 0.12881(19) 1. 0 0 
H15 H1+ 2 i 0.6672 0.1782 0.2041 1. 0 0.07 
H16 H1+ 2 i 0.6268 0.2961 0.1143 1. 0 0.07 
O22 O2- 2 i 0.7158(3) 0.4828(2) 0.0254(2) 1. 0 0 
H17 H1+ 2 i 0.72 0.5578 -.0077 1. 0 0.09 
H18 H1+ 2 i 0.7323 0.5079 0.1121 1. 0 0.09 
O23 O2- 2 i 1.3361(3) 0.2903(3) 0.0749(2) 1. 0 0 
H19 H1+ 2 i 1.2655 0.2614 0.1235 1. 0 0.098 
H20 H1+ 2 i 1.3404 0.244 -.0018 1. 0 0.098 

loop_
_atom_site_aniso_label
_atom_site_aniso_type_symbol
_atom_site_aniso_U_11
_atom_site_aniso_U_22
_atom_site_aniso_U_33
_atom_site_aniso_U_12
_atom_site_aniso_U_13
_atom_site_aniso_U_23
V1 V5+ 0.02098(17) 0.01641(16) 0.01853(16) 0.00422(13) 0.00149(13) 
-.00164(12)
V2 V5+ 0.01767(16) 0.02201(17) 0.01384(15) 0.00679(13) 0.00185(12) 
-.00056(12)
V3 V5+ 0.02192(17) 0.02123(17) 0.02221(17) 0.00819(14) 0.00307(14) 
0.00702(13)
V4 V5+ 0.01582(16) 0.02401(18) 0.02180(17) 0.00429(13) 0.00336(13) 
0.00302(13)
V5 V5+ 0.01408(15) 0.01760(16) 0.01480(15) 0.00663(12) 0.00013(12) 
0.00083(12)
O1 O2- 0.0172(6) 0.0186(7) 0.0148(6) 0.0068(5) 0.0020(5) 0.0018(5)
O2 O2- 0.0189(7) 0.0186(7) 0.0177(7) 0.0081(5) 0.0018(5) 0.0000(5)
O3 O2- 0.0149(6) 0.0215(7) 0.0148(6) 0.0054(5) -.0003(5) -.0009(5)
O4 O2- 0.0222(7) 0.0239(8) 0.0234(7) 0.0060(6) 0.0050(6) 0.0068(6)
O5 O2- 0.0271(8) 0.0174(7) 0.0253(8) 0.0083(6) 0.0047(6) 0.0031(6)
O6 O2- 0.0189(7) 0.0230(7) 0.0218(7) 0.0021(6) 0.0014(6) -.0001(6)
O7 O2- 0.0221(7) 0.0267(8) 0.0162(7) 0.0093(6) 0.0015(6) 0.0033(6)
O8 O2- 0.0178(7) 0.0272(8) 0.0183(7) 0.0077(6) 0.0027(5) 0.0008(6)
O9 O2- 0.0215(7) 0.0237(7) 0.0203(7) 0.0110(6) 0.0020(6) 0.0054(6)
O10 O2- 0.0152(6) 0.0270(8) 0.0214(7) 0.0073(6) 0.0021(5) 0.0018(6)
O11 O2- 0.0378(10) 0.0341(9) 0.0378(10) 0.0181(8) 0.0083(8) 0.0173(8)
O12 O2- 0.0190(7) 0.0413(10) 0.0319(9) 0.0052(7) 0.0057(7) 0.0027(7)
O13 O2- 0.0356(9) 0.0259(8) 0.0285(9) 0.0055(7) 0.0022(7) -.0086(7)
O14 O2- 0.0279(8) 0.0319(9) 0.0205(7) 0.0095(7) 0.0028(6) -.0050(6)
Ca1 Ca2+ 0.0213(2) 0.0271(2) 0.0229(2) 0.00828(17) 0.00202(16) 0.00073(16)
O15 O2- 0.0385(11) 0.0352(10) 0.0600(13) 0.0127(8) 0.0067(10) -.0001(9)
O16 O2- 0.0347(9) 0.0363(9) 0.0295(9) 0.0198(8) -.0068(7) -.0086(7)
O17 O2- 0.0254(8) 0.0344(9) 0.0223(8) 0.0134(7) 0.0030(6) 0.0028(6)
O18 O2- 0.0368(10) 0.0293(9) 0.0385(10) 0.0091(8) -.0085(8) 0.0028(8)
O19 O2- 0.0273(9) 0.0270(9) 0.0680(14) 0.0070(7) 0.0161(9) 0.0101(9)
O20 O2- 0.0241(9) 0.0608(13) 0.0305(9) 0.0005(9) -.0060(7) 0.0132(9)
O21 O2- 0.0430(11) 0.0781(16) 0.0273(9) 0.0315(11) 0.0089(8) 0.0121(10)
O22 O2- 0.103(2) 0.0447(12) 0.0334(11) 0.0348(13) 0.0029(12) -.0073(9)
O23 O2- 0.090(2) 0.0884(19) 0.0415(13) 0.0551(17) 0.0273(13) 0.0154(12)
#End of data_280074-ICSD


