data_404016-ICSD
#?2014 by Fachinformationszentrum Karlsruhe, and the U.S. Secretary of 
#Commerce on behalf of the United States.  All rights reserved.
_database_code_ICSD                404016
_audit_creation_date               1996/04/22
_audit_update_record               2000/07/15
_chemical_name_systematic
;
Copper Digadolinium Potassium Tetrakis(molybdate)
;
_chemical_formula_structural       'Cu Gd2 K (Mo O4)4'
_chemical_formula_sum              'Cu1 Gd2 K1 Mo4 O16'
_publ_section_title
;
Synthese und Roentgenstrukturanalyse von K Cu Gd2 Mo4 O16 und K Cu 
Tb2 Mo4 O16
;
loop_
_citation_id
_citation_journal_abbrev
_citation_year
_citation_journal_volume
_citation_page_first
_citation_page_last
_citation_journal_id_ASTM
primary 'Zeitschrift fuer Naturforschung, B: Chemical Sciences'
 1995 50 1794 1798 ZNBSEN
_publ_author_name                  'Mueller Buschbaum, H.;Gallinat, S.'
_cell_length_a                     5.278(2)
_cell_length_b                     12.66
_cell_length_c                     19.600(10)
_cell_angle_alpha                  90.
_cell_angle_beta                   92.76(6)
_cell_angle_gamma                  90.
_cell_volume                       1308.14
_cell_formula_units_Z              4
_symmetry_space_group_name_H-M     'C 1 2/c 1'
_symmetry_Int_Tables_number        15
_refine_ls_R_factor_all            .044
loop_
_symmetry_equiv_pos_site_id
_symmetry_equiv_pos_as_xyz
  1	'x, -y, z+.5'
  2	'-x, -y, -z'
  3	'-x, y, -z+.5'
  4	'x, y, z'
  5	'x+.5, -y+.5, z+.5'
  6	'-x+.5, -y+.5, -z'
  7	'-x+.5, y+.5, -z+.5'
  8	'x+.5, y+.5, z'
loop_
_atom_type_symbol
_atom_type_oxidation_number
Cu1+	1
Gd3+	3
K1+	1
Mo6+	6
O2-	-2
loop_
_atom_site_label
_atom_site_type_symbol
_atom_site_symmetry_multiplicity
_atom_site_Wyckoff_symbol
_atom_site_fract_x
_atom_site_fract_y
_atom_site_fract_z
_atom_site_occupancy
_atom_site_attached_hydrogens
Gd1 Gd3+ 8 f -.00100(2) 0.852490(7) 0.032150(4) 1. 0 
Mo1 Mo6+ 8 f 0.01243(2) 0.56130(1) 0.091180(7) 1. 0 
Mo2 Mo6+ 8 f 0.00881(2) 0.25838(1) 0.148170(7) 1. 0 
Cu1 Cu1+ 4 e 0 0.69202(3) 0.25 1. 0 
K1 K1+ 4 e 0 0.97008(4) 0.25 1. 0 
O1 O2- 8 f 0.8250(2) 0.23783(9) 0.43200(5) 1. 0 
O2 O2- 8 f 0.1568(2) 0.33157(8) 0.54263(5) 1. 0 
O3 O2- 8 f 0.7396(2) 0.47960(9) 0.53842(6) 1. 0 
O4 O2- 8 f 0.1197(2) 0.13956(10) 0.32707(6) 1. 0 
O5 O2- 8 f 0.8926(2) 0.40954(9) 0.66912(7) 1. 0 
O6 O2- 8 f 0.7732(2) 0.29840(9) 0.28790(6) 1. 0 
O7 O2- 8 f 0.7759(2) 0.45390(9) 0.39884(6) 1. 0 
O8 O2- 8 f 0.2490(2) 0.34680(9) 0.36754(5) 1. 0 

loop_
_atom_site_aniso_label
_atom_site_aniso_type_symbol
_atom_site_aniso_U_11
_atom_site_aniso_U_22
_atom_site_aniso_U_33
_atom_site_aniso_U_12
_atom_site_aniso_U_13
_atom_site_aniso_U_23
Gd1 Gd3+ 0.00809(2) 0.00811(2) 0.00969(2) -.00057 0.00049(2) -.00020(3)
Mo1 Mo6+ 0.00928(4) 0.00969(5) 0.00889(5) -.00002(4) 0.00079(4) 0.00069(5)
Mo2 Mo6+ 0.00970(5) 0.01210(5) 0.00801(5) 0.00020(4) 0.00055(4) 0.00067(5)
Cu1 Cu1+ 0.0309(2) 0.02023(14) 0.0237(2) 0 -.01125(14) 0
K1 K1+ 0.0322(3) 0.0148(2) 0.0233(3) 0 -.0068(2) 0
O1 O2- 0.0116(4) 0.0171(5) 0.0047(4) 0.0035(4) -.0006(4) 0.0037(4)
O2 O2- 0.0147(4) 0.0104(4) 0.0085(4) 0.0017(4) 0.0044(4) 0.0036(4)
O3 O2- 0.0065(4) 0.0154(5) 0.0186(5) -.0075(4) 0.0045(4) -.0064(4)
O4 O2- 0.0124(5) 0.0294(6) 0.0155(5) 0.0038(5) -.0046(4) -.0010(6)
O5 O2- 0.0127(5) 0.0209(5) 0.0218(6) 0.0067(4) 0.0039(5) -.0008(5)
O6 O2- 0.0142(5) 0.0108(5) 0.0259(6) -.0036(4) -.0005(5) 0.0003(5)
O7 O2- 0.0084(4) 0.0198(5) 0.0082(5) -.0012(4) -.0012(4) -.0013(5)
O8 O2- 0.0153(5) 0.0147(4) 0.0104(5) -.0044(4) -.0022(4) -.0046(5)
#End of data_404016-ICSD


