data_411078-ICSD
#?2014 by Fachinformationszentrum Karlsruhe, and the U.S. Secretary of 
#Commerce on behalf of the United States.  All rights reserved.
_database_code_ICSD                411078
_audit_creation_date               2002/04/01
_audit_update_record               2008/02/01
_chemical_name_systematic
;
Copper Dialuminium Difluoride Disilicate
;
_chemical_formula_structural       'Cu Al2 F2 (Si2 O7)'
_chemical_formula_sum              'Al2 Cu1 F2 O7 Si2'
_publ_section_title
;
A new Cu, Al fluoride disilicate Cu Al2 F2 (Si2 O7) and its relations 
to topaz
;
loop_
_citation_id
_citation_journal_abbrev
_citation_year
_citation_journal_volume
_citation_page_first
_citation_page_last
_citation_journal_id_ASTM
primary 'Zeitschrift fuer Anorganische und Allgemeine Chemie (1950) (DE)'
 2000 626 1514 1518 ZAACAB
_publ_author_name
;
Yakubovich, O.V.;Dem'yanets, L.N.;Massa, W.
;
_cell_length_a                     8.8697(9)
_cell_length_b                     14.084(2)
_cell_length_c                     4.7553(5)
_cell_angle_alpha                  90.
_cell_angle_beta                   90.
_cell_angle_gamma                  90.
_cell_volume                       594.04
_cell_formula_units_Z              4
_symmetry_space_group_name_H-M     'P n m a'
_symmetry_Int_Tables_number        62
_refine_ls_R_factor_all            .0251
loop_
_symmetry_equiv_pos_site_id
_symmetry_equiv_pos_as_xyz
  1	'x+.5, y, -z+.5'
  2	'x, -y+.5, z'
  3	'-x+.5, y+.5, z+.5'
  4	'-x, -y, -z'
  5	'-x+.5, -y, z+.5'
  6	'-x, y+.5, -z'
  7	'x+.5, -y+.5, -z+.5'
  8	'x, y, z'
loop_
_atom_type_symbol
_atom_type_oxidation_number
Al3+	3
Cu2+	2
F1-	-1
O2-	-2
Si4+	4
loop_
_atom_site_label
_atom_site_type_symbol
_atom_site_symmetry_multiplicity
_atom_site_Wyckoff_symbol
_atom_site_fract_x
_atom_site_fract_y
_atom_site_fract_z
_atom_site_occupancy
_atom_site_attached_hydrogens
Cu1 Cu2+ 4 c 0.14215(4) 0.25 0.13261(8) 1. 0 
Al1 Al3+ 8 d 0.13156(7) 0.45047(4) 0.09623(13) 1. 0 
Si1 Si4+ 8 d 0.43826(7) 0.35374(4) -.09577(12) 1. 0 
O1 O2- 4 c 0.4755(2) 0.25 -.2451(5) 1. 0 
O2 O2- 8 d 0.53415(18) 0.35609(10) 0.1957(3) 1. 0 
O3 O2- 8 d 0.25746(17) 0.35346(10) -.0338(3) 1. 0 
O4 O2- 8 d 0.48691(18) 0.44181(10) -.3004(3) 1. 0 
F1 F1- 8 d 0.25352(14) 0.46837(9) 0.3955(3) 1. 0 

loop_
_atom_site_aniso_label
_atom_site_aniso_type_symbol
_atom_site_aniso_U_11
_atom_site_aniso_U_22
_atom_site_aniso_U_33
_atom_site_aniso_U_12
_atom_site_aniso_U_13
_atom_site_aniso_U_23
Cu1 Cu2+ 0.0047(2) 0.00191(19) 0.00581(19) 0 0.00237(14) 0
Al1 Al3+ 0.0024(3) 0.0018(3) 0.0031(3) 0.0001(2) -.0002(2) -.0001(2)
Si1 Si4+ 0.0031(3) 0.0015(3) 0.0027(3) 0.00009(19) 0.0003(2) 0.00023(19)
O1 O2- 0.0063(10) 0.0021(9) 0.0043(9) 0 -.0005(8) 0
O2 O2- 0.0049(7) 0.0033(7) 0.0041(7) 0.0002(5) -.0011(6) -.0003(6)
O3 O2- 0.0043(7) 0.0031(7) 0.0049(7) -.0002(5) 0.0016(6) 0.0004(5)
O4 O2- 0.0042(7) 0.0035(6) 0.0048(7) 0.0003(5) 0.0008(6) 0.0018(5)
F1 F1- 0.0069(6) 0.0047(6) 0.0054(5) -.0009(5) -.0021(5) -.0016(5)
#End of data_411078-ICSD


