data_409286-ICSD
#?2014 by Fachinformationszentrum Karlsruhe, and the U.S. Secretary of 
#Commerce on behalf of the United States.  All rights reserved.
_database_code_ICSD                409286
_audit_creation_date               1999/06/02
_chemical_name_systematic          'Calcium Tecto-zincotrisilicate'
_chemical_formula_structural       'Ca (Zn Si3 O8)'
_chemical_formula_sum              'Ca1 O8 Si3 Zn1'
_publ_section_title
;
Crystal structure of calcium tetco-zincotrisilicate, Ca Zn Si3 O8
;
loop_
_citation_id
_citation_journal_abbrev
_citation_year
_citation_journal_volume
_citation_page_first
_citation_page_last
_citation_journal_id_ASTM
primary 'Zeitschrift fuer Kristallographie - New Crystal Structures'
 1998 213 691 691 ZKNSFT
_publ_author_name
;
Heuer, M.;Bente, K.;Steins, M.;Rothkopf, A.
;
_cell_length_a                     8.121(1)
_cell_length_b                     12.927(1)
_cell_length_c                     7.206(1)
_cell_angle_alpha                  93.76(5)
_cell_angle_beta                   116.120(7)
_cell_angle_gamma                  84.368(7)
_cell_volume                       675.74
_cell_formula_units_Z              4
_symmetry_space_group_name_H-M     'P -1'
_symmetry_Int_Tables_number        2
_refine_ls_R_factor_all            .0627
loop_
_symmetry_equiv_pos_site_id
_symmetry_equiv_pos_as_xyz
  1	'-x, -y, -z'
  2	'x, y, z'
loop_
_atom_type_symbol
_atom_type_oxidation_number
Ca2+	2
O2-	-2
Si4+	4
Zn2+	2
loop_
_atom_site_label
_atom_site_type_symbol
_atom_site_symmetry_multiplicity
_atom_site_Wyckoff_symbol
_atom_site_fract_x
_atom_site_fract_y
_atom_site_fract_z
_atom_site_occupancy
_atom_site_attached_hydrogens
_atom_site_U_iso_or_equiv
Zn1 Zn2+ 2 i 0.49318(5) 0.81759(3) 0.79445(7) 1. 0 0 
Zn2 Zn2+ 2 i 0.00588(6) 0.68224(4) 0.20497(8) 1. 0 0 
Ca1 Ca2+ 2 i 0.24416(9) 0.02236(6) 0.85356(12) 1. 0 0 
Ca2 Ca2+ 2 i 0.25418(9) 0.47852(6) 0.14725(13) 1. 0 0 
Si1 Si4+ 2 i 0.30673(11) 0.38717(7) 0.69048(15) 1. 0 0 
Si2 Si4+ 2 i 0.19166(15) 0.11277(9) 0.3084(2) 1. 0 0 
Si3 Si4+ 2 i 0.49410(12) 0.83076(7) 0.24888(15) 1. 0 0 
Si4 Si4+ 2 i 0.00093(13) 0.66968(8) 0.7491(2) 1. 0 0 
Si5 Si4+ 2 i 0.16714(11) 0.88980(7) 0.36964(15) 1. 0 0 
Si6 Si4+ 2 i 0.33466(14) 0.60892(8) 0.6298(2) 1. 0 0 
O1 O2- 2 i 0.4760(3) 0.8871(2) 0.0495(4) 1. 0 0 
O2 O2- 2 i 0.0081(3) 0.6146(2) 0.9477(4) 1. 0 0 
O3 O2- 2 i 0.4885(3) 0.3280(2) 0.2700(4) 1. 0 0 
O4 O2- 2 i 0.0185(4) 0.1727(2) 0.7353(5) 1. 0 0 
O5 O2- 2 i 0.0825(3) 0.0097(2) 0.2873(4) 1. 0 0 
O6 O2- 2 i 0.4216(3) 0.4903(2) 0.7194(4) 1. 0 0 
O7 O2- 2 i 0.2010(3) 0.3994(2) 0.8290(4) 1. 0 0 
O8 O2- 2 i 0.3069(3) 0.1018(2) 0.1763(5) 1. 0 0 
O9 O2- 2 i 0.4728(3) 0.2937(2) 0.7672(4) 1. 0 0 
O10 O2- 2 i 0.0379(4) 0.2067(2) 0.2379(5) 1. 0 0 
O11 O2- 2 i 0.2677(3) 0.8960(2) 0.6152(4) 1. 0 0 
O12 O2- 2 i 0.2344(4) 0.6030(2) 0.3834(4) 1. 0 0 
O13 O2- 2 i 0.1781(4) 0.3738(2) 0.4460(4) 1. 0 0 
O14 O2- 2 i 0.3324(4) 0.1230(2) 0.5550(5) 1. 0 0 
O15 O2- 2 i 0.3117(3) 0.8534(2) 0.2756(5) 1. 0 0 
O16 O2- 2 i 0.1913(4) 0.6475(2) 0.7268(5) 1. 0 0.013 

loop_
_atom_site_aniso_label
_atom_site_aniso_type_symbol
_atom_site_aniso_U_11
_atom_site_aniso_U_22
_atom_site_aniso_U_33
_atom_site_aniso_U_12
_atom_site_aniso_U_13
_atom_site_aniso_U_23
Zn1 Zn2+ 0.01104(12) 0.00735(13) 0.00938(13) -.00087(11) 0.00377(11) 
-.00054(11)
Zn2 Zn2+ 0.00954(13) 0.0086(2) 0.0099(2) -.00083(12) 0.00443(13) 
-.00079(13)
Ca1 Ca2+ 0.0113(2) 0.0116(2) 0.0119(2) -.0005(2) 0.0037(2) -.0032(2)
Ca2 Ca2+ 0.0061(2) 0.0111(3) 0.0127(3) -.0001(2) 0.0021(2) -.0022(2)
Si1 Si4+ 0.0041(2) 0.0058(3) 0.0078(3) 0.0008(2) 0.0020(2) -.0002(3)
Si2 Si4+ 0.0120(3) 0.0077(4) 0.0071(4) -.0029(3) 0.0034(3) 0.0000(3)
Si3 Si4+ 0.0091(3) 0.0065(3) 0.0057(3) 0.0020(3) 0.0032(2) 0.0001(3)
Si4 Si4+ 0.0055(3) 0.0079(4) 0.0071(3) -.0012(3) 0.0029(3) 0.0009(3)
Si5 Si4+ 0.0041(2) 0.0079(3) 0.0075(3) 0.0003(2) 0.0023(2) 0.0003(3)
Si6 Si4+ 0.0099(3) 0.0061(4) 0.0080(4) -.0002(3) 0.0037(3) 0.0003(3)
O1 O2- 0.0095(6) 0.0100(8) 0.0072(7) 0.0009(6) 0.0036(5) 0.0019(6)
O2 O2- 0.0095(7) 0.0101(9) 0.0079(8) 0.0001(6) 0.0046(6) 0.0016(7)
O3 O2- 0.0061(6) 0.0047(7) 0.0148(9) 0.0016(6) 0.0044(6) -.0015(7)
O4 O2- 0.0124(9) 0.0112(10) 0.0124(10) -.0048(8) 0.0039(8) -.0013(8)
O5 O2- 0.0095(6) 0.0129(9) 0.0124(9) -.0063(7) 0.0023(7) 0.0009(7)
O6 O2- 0.0079(7) 0.0025(7) 0.0117(9) 0.0035(7) 0.0034(7) 0.0015(7)
O7 O2- 0.0195(8) 0.0205(11) 0.0132(9) -.0091(8) 0.0104(7) -.0021(8)
O8 O2- 0.0071(6) 0.0096(9) 0.0149(10) -.0018(7) 0.0074(7) -.0044(8)
O9 O2- 0.0149(8) 0.0083(8) 0.0141(9) -.0033(7) 0.0030(7) 0.0013(7)
O10 O2- 0.0098(7) 0.0078(9) 0.0188(12) 0.0055(7) 0.0061(8) 0.0006(9)
O11 O2- 0.0154(8) 0.0165(11) 0.0103(9) 0.0082(8) 0.0054(8) 0.0032(8)
O12 O2- 0.0114(8) 0.0123(10) 0.0073(9) -.0036(8) 0.0013(8) -.0027(8)
O13 O2- 0.0145(8) 0.0158(10) 0.0090(9) -.0025(8) 0.0018(7) -.0035(8)
O14 O2- 0.0113(8) 0.0148(11) 0.010(1) -.0028(8) -.0014(8) 0.0001(9)
O15 O2- 0.0155(6) 0.0208(9) 0.0324(10) 0.0040(6) 0.0196(6) 0.0000(8)
#End of data_409286-ICSD


