data_66380-ICSD
#?2014 by Fachinformationszentrum Karlsruhe, and the U.S. Secretary of 
#Commerce on behalf of the United States.  All rights reserved.
_database_code_ICSD                66380
_audit_creation_date               1993/01/06
_audit_update_record               2006/04/01
_chemical_name_systematic          'Potassium Oxotitanium Phosphate(V)'
_chemical_formula_structural       'K (Ti O) (P O4)'
_chemical_formula_sum              'K1 O5 P1 Ti1'
_publ_section_title
;
The crystal structure of potassium titanyl phosphate (KTP) in its 
high-pressure phase
;
loop_
_citation_id
_citation_journal_abbrev
_citation_year
_citation_journal_volume
_citation_page_first
_citation_page_last
_citation_journal_id_ASTM
primary 'Journal of Physics: Condensed Matter' 1992 4 395 398 JCOMEL
_publ_author_name                  'Allan, D.R.;Nelmes, R.J.'
_cell_length_a                     12.477(9)
_cell_length_b                     6.322(3)
_cell_length_c                     10.058(4)
_cell_angle_alpha                  90.
_cell_angle_beta                   90.
_cell_angle_gamma                  90.
_cell_volume                       793.37
_cell_formula_units_Z              8
_symmetry_space_group_name_H-M     'P n a 21'
_symmetry_Int_Tables_number        33
_refine_ls_R_factor_all            .036
loop_
_symmetry_equiv_pos_site_id
_symmetry_equiv_pos_as_xyz
  1	'x+.5, -y+.5, z'
  2	'-x+.5, y+.5, z+.5'
  3	'-x, -y, z+.5'
  4	'x, y, z'
loop_
_atom_type_symbol
_atom_type_oxidation_number
K1+	1
O2-	-2
P5+	5
Ti4+	4
loop_
_atom_site_label
_atom_site_type_symbol
_atom_site_symmetry_multiplicity
_atom_site_Wyckoff_symbol
_atom_site_fract_x
_atom_site_fract_y
_atom_site_fract_z
_atom_site_occupancy
_atom_site_attached_hydrogens
K1 K1+ 4 a 0.3953(7) 0.7780(4) 0.6314(4) 1. 0 
K2 K1+ 4 a 0.1146(6) 0.7001(4) 0.8667(4) 1. 0 
Ti1 Ti4+ 4 a 0.3718(4) 0.4894(3) -.0004 1. 0 
Ti2 Ti4+ 4 a 0.2800(5) 0.2572(3) 0.7240(3) 1. 0 
P1 P5+ 4 a 0.5296(8) 0.3218(4) 0.7623(4) 1. 0 
P2 P5+ 4 a 0.1798(6) 0.4810(4) 0.4784(3) 1. 0 
O1 O2- 4 a 0.5134(15) 0.4177(11) 0.8973(7) 1. 0 
O2 O2- 4 a 0.5452(15) 0.5043(10) 0.6625(7) 1. 0 
O3 O2- 4 a 0.4373(21) 0.1848(11) 0.7130(9) 1. 0 
O4 O2- 4 a 0.6246(19) 0.1795(12) 0.7590(9) 1. 0 
O5 O2- 4 a 0.1913(16) 0.9728(9) 0.3269(6) 1. 0 
O6 O2- 4 a 0.2510(17) 0.0398(9) 0.5783(7) 1. 0 
O7 O2- 4 a 0.0998(15) 0.2982(11) 0.4702(7) 1. 0 
O8 O2- 4 a 0.1218(15) 0.6777(12) 0.5285(8) 1. 0 
O9 O2- 4 a 0.2300(16) 0.5126(9) 0.3390(7) 1. 0 
O10 O2- 4 a 0.2754(15) 0.4380(9) 0.5672(6) 1. 0 

#End of data_66380-ICSD


