data_250160-ICSD
#?2014 by Fachinformationszentrum Karlsruhe, and the U.S. Secretary of 
#Commerce on behalf of the United States.  All rights reserved.
_database_code_ICSD                250160
_audit_creation_date               2005/04/01
_chemical_name_systematic
;
Trilanthanum Antimony(V) Trizinc Digermanium Oxide
;
_chemical_formula_structural       'La3 Sb Zn3 Ge2 O14'
_chemical_formula_sum              'Ge2 La3 O14 Sb1 Zn3'
_chemical_name_mineral             Unnamed
_publ_section_title
;
Crystal structure and microtwinning of monoclinic La3SbZn3Ge2O14 
crystals of the langasite family
;
loop_
_citation_id
_citation_journal_abbrev
_citation_year
_citation_journal_volume
_citation_page_first
_citation_page_last
_citation_journal_id_ASTM
primary Kristallografiya 2004 49 662 667 KRISAJ
2 'Soviet Physics, Crystallography (= Kristallografiya)'
 2004 49 585 590 SPHCA6
_publ_author_name
;
Maksimov, B.A.;Kasantsev, S.S.;Molchanov, V.N.;Verin, I.A.;Mill, B.V.
;
_cell_length_a                     5.202(1)
_cell_length_b                     8.312(1)
_cell_length_c                     14.394(2)
_cell_angle_alpha                  90
_cell_angle_beta                   90.02
_cell_angle_gamma                  90
_cell_volume                       622.38
_cell_formula_units_Z              2
_symmetry_space_group_name_H-M     'A 1 2 1'
_symmetry_Int_Tables_number        5
_refine_ls_R_factor_all            .052
loop_
_symmetry_equiv_pos_site_id
_symmetry_equiv_pos_as_xyz
  1	'-x, y, -z'
  2	'x, y, z'
  3	'-x, y+.5, -z+.5'
  4	'x, y+.5, z+.5'
loop_
_atom_type_symbol
_atom_type_oxidation_number
Ge4+	4
La3+	3
O2-	-2
Sb5+	5
Zn2+	2
loop_
_atom_site_label
_atom_site_type_symbol
_atom_site_symmetry_multiplicity
_atom_site_Wyckoff_symbol
_atom_site_fract_x
_atom_site_fract_y
_atom_site_fract_z
_atom_site_occupancy
_atom_site_attached_hydrogens
_atom_site_B_iso_or_equiv
La1 La3+ 2 a 0 0.4227(3) 0 1. 0 1.23(2) 
La2 La3+ 4 c -0.0015(2) 0.2888(3) 0.28857(5) 1. 0 1.87(1) 
Sb1 Sb5+ 2 a 0 0.0 0 1. 0 1.63(2) 
Zn1 Zn2+ 2 b 0.5 0.7614(4) 0 1. 0 1.66(5) 
Zn2 Zn2+ 4 c 0.5013(3) 0.1218(3) 0.1201(1) 1. 0 1.39(3) 
Ge1 Ge4+ 4 c 0.4618(1) 0.5004(4) 0.1665(1) 1. 0 1.59(2) 
O1 O2- 4 c 0.8030(9) 0.493(2) 0.1697(8) 1. 0 2.4(2) 
O2 O2- 4 c 0.708(2) 0.826(1) 0.3610(6) 1. 0 1.4(1) 
O3 O2- 4 c 0.712(1) 0.118(1) 0.4230(5) 1. 0 2.4(2) 
O4 O2- 4 c 0.625(1) 0.142(1) 0.2500(5) 1. 0 2.6(2) 
O5 O2- 4 c 0.217(2) 0.970(1) 0.1105(6) 1. 0 1.6(2) 
O6 O2- 4 c 0.202(2) 0.334(1) 0.4299(7) 1. 0 2.1(2) 
O7 O2- 4 c 0.225(2) 0.683(2) 0.4536(8) 1. 0 2.4(2) 

#End of data_250160-ICSD


