data_280801-ICSD
#?2014 by Fachinformationszentrum Karlsruhe, and the U.S. Secretary of 
#Commerce on behalf of the United States.  All rights reserved.
_database_code_ICSD                280801
_audit_creation_date               2002/10/01
_chemical_name_systematic          'Strontium Zinc Bis(selenate(IV))'
_chemical_formula_structural       'Sr Zn (Se O3)2'
_chemical_formula_sum              'O6 Se2 Sr1 Zn1'
_publ_section_title
;
Sr Zn (Se O3)2 containing novel Zn O4+2 bicapped tetrahedra
;
loop_
_citation_id
_citation_journal_abbrev
_citation_year
_citation_journal_volume
_citation_page_first
_citation_page_last
_citation_journal_id_ASTM
primary 'Inorganic Chemistry' 2001 40 6518 6520 INOCAJ
_publ_author_name                  'Johnston, M.G.;Harrison, W.T.A.'
_cell_length_a                     4.4836(3)
_cell_length_b                     14.7576(10)
_cell_length_c                     9.4264(7)
_cell_angle_alpha                  90.
_cell_angle_beta                   95.273(2)
_cell_angle_gamma                  90.
_cell_volume                       621.08
_cell_formula_units_Z              4
_symmetry_space_group_name_H-M     'P 1 21/n 1'
_symmetry_Int_Tables_number        14
_refine_ls_R_factor_all            .047
loop_
_symmetry_equiv_pos_site_id
_symmetry_equiv_pos_as_xyz
  1	'-x+.5, y+.5, -z+.5'
  2	'-x, -y, -z'
  3	'x+.5, -y+.5, z+.5'
  4	'x, y, z'
loop_
_atom_type_symbol
_atom_type_oxidation_number
O2-	-2
Se4+	4
Sr2+	2
Zn2+	2
loop_
_atom_site_label
_atom_site_type_symbol
_atom_site_symmetry_multiplicity
_atom_site_Wyckoff_symbol
_atom_site_fract_x
_atom_site_fract_y
_atom_site_fract_z
_atom_site_occupancy
_atom_site_attached_hydrogens
Sr1 Sr2+ 4 e 0.75128(13) 0.61662(4) 0.04059(6) 1. 0 
Zn1 Zn2+ 4 e 0.73267(17) 0.84696(5) 0.22230(8) 1. 0 
Se1 Se4+ 4 e 0.79514(15) 0.69631(4) 0.43436(7) 1. 0 
Se2 Se4+ 4 e 0.25133(14) 0.99543(4) 0.21817(7) 1. 0 
O1 O2- 4 e 1.1295(11) 0.7061(3) 0.5336(5) 1. 0 
O2 O2- 4 e 0.6968(11) 0.8089(3) 0.4305(6) 1. 0 
O3 O2- 4 e 0.8973(14) 0.6910(4) 0.2685(5) 1. 0 
O4 O2- 4 e 0.1683(11) 0.8832(3) 0.2402(5) 1. 0 
O5 O2- 4 e 0.2255(11) 1.0344(3) 0.3855(5) 1. 0 
O6 O2- 4 e 0.6268(11) 0.9817(3) 0.2226(6) 1. 0 

loop_
_atom_site_aniso_label
_atom_site_aniso_type_symbol
_atom_site_aniso_U_11
_atom_site_aniso_U_22
_atom_site_aniso_U_33
_atom_site_aniso_U_12
_atom_site_aniso_U_13
_atom_site_aniso_U_23
Sr1 Sr2+ 0.0163(3) 0.0108(2) 0.0139(3) -.0011(2) 0.00091(19) -.0019(2)
Zn1 Zn2+ 0.0219(4) 0.0158(4) 0.0142(3) -.0035(3) -.0003(3) -.0021(3)
Se1 Se4+ 0.0200(3) 0.0111(3) 0.0142(3) -.0023(2) -.0023(2) 0.0009(2)
Se2 Se4+ 0.0154(3) 0.0131(3) 0.0140(3) 0.0002(2) 0.0009(2) 0.0001(2)
O1 O2- 0.021(2) 0.021(2) 0.021(2) -.0013(19) -.0015(18) 0.0080(19)
O2 O2- 0.023(2) 0.012(2) 0.024(2) 0.0042(18) 0.0049(19) 0.0019(19)
O3 O2- 0.061(4) 0.026(3) 0.010(2) -.006(3) 0.001(2) -.006(2)
O4 O2- 0.021(2) 0.0099(19) 0.027(3) -.0004(18) 0.0013(19) -.0030(19)
O5 O2- 0.026(3) 0.014(2) 0.017(2) 0.0000(19) 0.0022(18) -.0025(18)
O6 O2- 0.016(2) 0.018(2) 0.047(4) -.0035(19) 0.012(2) -.005(2)
#End of data_280801-ICSD


