data_404835-ICSD
#?2014 by Fachinformationszentrum Karlsruhe, and the U.S. Secretary of 
#Commerce on behalf of the United States.  All rights reserved.
_database_code_ICSD                404835
_audit_creation_date               1996/10/14
_audit_update_record               2002/04/01
_chemical_name_systematic
;
Trizinc Dicopper Bis(sulfate(VI)) Hexahydroxide Tetrahydrate
;
_chemical_formula_structural       'Zn3 Cu2 (S O4)2 (O H)6 (H2 O)4'
_chemical_formula_sum              'H14 Cu2 O18 S2 Zn3'
_chemical_name_mineral             Christelite
_publ_section_title
;
The crystal structure of christelite Zn3 Cu2 (S O4)2 (O H)6 . 4(H2 O)
;
loop_
_citation_id
_citation_journal_abbrev
_citation_year
_citation_journal_volume
_citation_page_first
_citation_page_last
_citation_journal_id_ASTM
primary 'Zeitschrift fuer Kristallographie (1979-2010)' 1996 211 518 521 ZEKRDZ
_publ_author_name
;
Adiwidjaja, G.;Friese, K.;Klaska, K.H.;Schlueter, J.
;
_cell_length_a                     5.4143(8)
_cell_length_b                     6.336(1)
_cell_length_c                     10.470(3)
_cell_angle_alpha                  94.32(3)
_cell_angle_beta                   90.06(2)
_cell_angle_gamma                  90.27(2)
_cell_volume                       358.15
_cell_formula_units_Z              1
_symmetry_space_group_name_H-M     'P -1'
_symmetry_Int_Tables_number        2
_refine_ls_R_factor_all            .033
loop_
_symmetry_equiv_pos_site_id
_symmetry_equiv_pos_as_xyz
  1	'-x, -y, -z'
  2	'x, y, z'
loop_
_atom_type_symbol
_atom_type_oxidation_number
Cu2+	2
H1+	1
O2-	-2
S6+	6
Zn2+	2
loop_
_atom_site_label
_atom_site_type_symbol
_atom_site_symmetry_multiplicity
_atom_site_Wyckoff_symbol
_atom_site_fract_x
_atom_site_fract_y
_atom_site_fract_z
_atom_site_occupancy
_atom_site_attached_hydrogens
_atom_site_U_iso_or_equiv
Zn1 Zn2+ 1 a 0 0 0 1. 0 0 
Zn2 Zn2+ 2 i 0.51228(7) 0.24973(6) 0.49511(4) 1. 0 0 
Cu1 Cu2+ 1 b 0 0 0.5 1. 0 0 
Cu2 Cu2+ 1 g 0 0.5 0.5 1. 0 0 
S1 S6+ 2 i 0.7771(2) 0.7040(1) 0.22146(8) 1. 0 0 
O1 O2- 2 i 0.7947(5) 0.7289(4) 0.3637(2) 1. 0 0 
O2 O2- 2 i 0.5206(5) 0.6551(6) 0.1854(3) 1. 0 0 
O3 O2- 2 i 0.9370(6) 0.5294(5) 0.1729(3) 1. 0 0 
O4 O2- 2 i 0.8590(6) 0.9034(5) 0.1722(3) 1. 0 0 
O5 O2- 2 i 0.6807(4) 0.0026(4) 0.5889(2) 1. 0 0 
O6 O2- 2 i 0.6829(5) 0.5153(4) 0.5872(2) 1. 0 0 
O7 O2- 2 i 0.1381(5) 0.7641(4) 0.5888(2) 1. 0 0 
O8 O2- 2 i 0.7246(5) 0.2267(4) 0.0160(2) 1. 0 0 
O9 O2- 2 i 0.2469(5) 0.1890(5) 0.1179(3) 1. 0 0 
H1 H1+ 2 i 0.242 0.69 -.056 1. 0 0.05 
H2 H1+ 2 i 0.344 0.731 0.052 1. 0 0.05 
H3 H1+ 2 i 0.217 0.312 0.146 1. 0 0.05 
H4 H1+ 2 i 0.41 0.195 0.098 1. 0 0.05 
H5 H1+ 2 i 0.123 0.772 0.666 1. 0 0.05 
H6 H1+ 2 i 0.687 0.006 0.677 1. 0 0.05 
H7 H1+ 2 i 0.697 0.517 0.68 1. 0 0.05 

loop_
_atom_site_aniso_label
_atom_site_aniso_type_symbol
_atom_site_aniso_U_11
_atom_site_aniso_U_22
_atom_site_aniso_U_33
_atom_site_aniso_U_12
_atom_site_aniso_U_13
_atom_site_aniso_U_23
Zn1 Zn2+ 0.0140(4) 0.0120(4) 0.010(4) -0.0010(3) 0.0010(3) 0.0010(3)
Zn2 Zn2+ 0.0090(3) 0.0080(3) 0.0210(3) -0.0010(2) 0.0000(2) 0.0020(2)
Cu1 Cu2+ 0.0110(4) 0.0110(4) 0.0190(4) 0.0000(3) 0.0010(3) 0.0020(3)
Cu2 Cu2+ 0.0100(4) 0.0120(4) 0.0210(4) -0.0010(3) 0.0000(3) 0.0020(3)
S1 S6+ 0.0150(5) 0.0140(6) 0.0110(5) -0.0010(4) 0.0010(4) 0.0020(4)
O1 O2- 0.0150(16) 0.0160(18) 0.0120(15) -0.0010(13) 0.0000(13) 0.0020(13)
O2 O2- 0.0180(19) 0.0480(28) 0.0180(18) -0.0060(18) -0.0050(15) 0.0080(18)
O3 O2- 0.0280(22) 0.0210(21) 0.025(2) 0.0050(16) 0.0040(17) -0.0060(17)
O4 O2- 0.0460(27) 0.019(2) 0.0180(19) -0.0050(16) 0.0120(18) 0.0070(18)
O5 O2- 0.0110(15) 0.0120(16) 0.0120(14) -0.0010(12) 0.0000(12) 0.0000(12)
O6 O2- 0.0110(15) 0.0110(16) 0.0160(15) 0.0000(13) -0.0020(12) 0.0030(12)
O7 O2- 0.0120(16) 0.0120(16) 0.0140(15) -0.0010(13) 0.0000(12) 0.0010(12)
O8 O2- 0.0200(18) 0.0180(19) 0.0140(16) 0.0010(13) -0.0020(13) 0.0000(14)
O9 O2- 0.022(2) 0.0240(22) 0.026(2) -0.0050(17) 0.0010(16) -0.0070(16)
#End of data_404835-ICSD


