data_86317-ICSD
#?2014 by Fachinformationszentrum Karlsruhe, and the U.S. Secretary of 
#Commerce on behalf of the United States.  All rights reserved.
_database_code_ICSD                86317
_audit_creation_date               1999/11/30
_audit_update_record               2005/10/01
_chemical_name_systematic          'Calcium Tecto-dialumodisilicate'
_chemical_formula_structural       'Ca (Al2 Si2 O8)'
_chemical_formula_sum              'Al2 Ca1 O8 Si2'
_chemical_name_mineral             Anorthite
_publ_section_title
;
Structural variation associated with compositional variation and 
order-disorder behavior in anorthite-rich feldspars
;
loop_
_citation_id
_citation_journal_abbrev
_citation_year
_citation_journal_volume
_citation_page_first
_citation_page_last
_citation_journal_id_ASTM
primary 'American Mineralogist' 1990 75 150 162 AMMIAY
2 'Golden Book of Phase Transitions, Wroclaw' 2002 1 1 123 GBOPT5
_publ_author_name
;
Angel, R.J.;Carpenter, M.A.;Finger, L.W.
;
_cell_length_a                     8.175(1)
_cell_length_b                     12.873(1)
_cell_length_c                     14.170(1)
_cell_angle_alpha                  93.11(1)
_cell_angle_beta                   115.89(1)
_cell_angle_gamma                  91.28(1)
_cell_volume                       1337.8
_cell_formula_units_Z              8
_symmetry_space_group_name_H-M     'P -1'
_symmetry_Int_Tables_number        2
_refine_ls_R_factor_all            .034
loop_
_symmetry_equiv_pos_site_id
_symmetry_equiv_pos_as_xyz
  1	'-x, -y, -z'
  2	'x, y, z'
loop_
_atom_type_symbol
_atom_type_oxidation_number
Al3+	3
Ca2+	2
O2-	-2
Si4+	4
loop_
_atom_site_label
_atom_site_type_symbol
_atom_site_symmetry_multiplicity
_atom_site_Wyckoff_symbol
_atom_site_fract_x
_atom_site_fract_y
_atom_site_fract_z
_atom_site_occupancy
_atom_site_attached_hydrogens
Ca1 Ca2+ 2 i 0.2652(2) 0.9861(1) 0.0869(1) 1. 0 
Ca2 Ca2+ 2 i 0.2683(2) 0.0313(1) 0.5430(1) 1. 0 
Ca3 Ca2+ 2 i 0.7735(2) 0.5359(1) 0.5412(1) 1. 0 
Ca4 Ca2+ 2 i 0.7637(2) 0.5051(1) 0.0751(1) 1. 0 
Si1 Si4+ 2 i 0.0090(2) 0.1589(1) 0.1039(1) 1. 0 
Si2 Si4+ 2 i 0.5066(2) 0.6560(1) 0.6045(1) 1. 0 
Al1 Al3+ 2 i 0.0069(1) 0.1609(1) 0.6111(1) 1. 0 
Al2 Al3+ 2 i 0.4988(3) 0.6660(1) 0.1129(1) 1. 0 
Al3 Al3+ 2 i 0.9909(2) 0.8153(1) 0.1176(1) 1. 0 
Al4 Al3+ 2 i 0.5083(3) 0.3186(1) 0.6214(1) 1. 0 
Si3 Si4+ 2 i 0.0058(2) 0.8153(1) 0.6132(1) 1. 0 
Si4 Si4+ 2 i 0.5050(2) 0.3203(1) 0.1103(1) 1. 0 
Al5 Al3+ 2 i 0.6843(2) 0.1132(1) 0.1512(1) 1. 0 
Al6 Al3+ 2 i 0.1910(3) 0.6111(1) 0.6677(1) 1. 0 
Si5 Si4+ 2 i 0.6817(2) 0.1034(1) 0.6647(1) 1. 0 
Si6 Si4+ 2 i 0.1707(2) 0.6067(1) 0.1491(1) 1. 0 
Si7 Si4+ 2 i 0.6739(2) 0.8829(1) 0.1877(1) 1. 0 
Si8 Si4+ 2 i 0.1761(2) 0.3793(1) 0.6733(1) 1. 0 
Al7 Al3+ 2 i 0.6814(3) 0.8716(1) 0.6724(1) 1. 0 
Al8 Al3+ 2 i 0.1895(3) 0.3776(1) 0.1816(1) 1. 0 
O1 O2- 2 i 0.0263(6) 0.1246(3) -.0043(3) 1. 0 
O2 O2- 2 i 0.4860(6) 0.6236(3) 0.4859(3) 1. 0 
O3 O2- 2 i 0.9811(6) 0.1256(3) 0.4836(3) 1. 0 
O4 O2- 2 i 0.5179(6) 0.6238(3) 0.9965(3) 1. 0 
O5 O2- 2 i 0.5757(6) 0.9906(3) 0.1434(3) 1. 0 
O6 O2- 2 i 0.0721(6) 0.4881(3) 0.6346(3) 1. 0 
O7 O2- 2 i 0.5723(6) 0.9892(3) 0.6370(3) 1. 0 
O8 O2- 2 i 0.0716(5) 0.4924(3) 0.1383(3) 1. 0 
O9 O2- 2 i 0.8133(5) 0.1016(3) 0.0798(3) 1. 0 
O10 O2- 2 i 0.3331(6) 0.5952(3) 0.6053(3) 1. 0 
O11 O2- 2 i 0.8117(6) 0.0967(3) 0.6057(3) 1. 0 
O12 O2- 2 i 0.2857(6) 0.6034(3) 0.0792(3) 1. 0 
O13 O2- 2 i 0.8177(6) 0.8549(3) 0.1444(3) 1. 0 
O14 O2- 2 i 0.2984(6) 0.3554(3) 0.6111(3) 1. 0 
O15 O2- 2 i 0.8105(6) 0.8521(3) 0.6026(3) 1. 0 
O16 O2- 2 i 0.3421(6) 0.3577(3) 0.1342(3) 1. 0 
O17 O2- 2 i 0.0151(6) 0.2792(3) 0.1354(3) 1. 0 
O18 O2- 2 i 0.5095(6) 0.7772(3) 0.6350(3) 1. 0 
O19 O2- 2 i 0.0215(8) 0.2910(4) 0.6485(5) 1. 0 
O20 O2- 2 i 0.5078(8) 0.7962(4) 0.1495(4) 1. 0 
O21 O2- 2 i 0.0000(8) 0.6801(4) 0.1034(5) 1. 0 
O22 O2- 2 i 0.5148(8) 0.1799(4) 0.6107(5) 1. 0 
O23 O2- 2 i 0.0093(8) 0.6885(4) 0.6006(4) 1. 0 
O24 O2- 2 i 0.5075(8) 0.1955(4) 0.0993(5) 1. 0 
O25 O2- 2 i 0.1833(6) 0.1053(6) 0.1910(4) 1. 0 
O26 O2- 2 i 0.7012(8) 0.6079(4) 0.6800(4) 1. 0 
O27 O2- 2 i 0.2136(8) 0.1025(5) 0.6840(4) 1. 0 
O28 O2- 2 i 0.6930(8) 0.6043(4) 0.2013(4) 1. 0 
O29 O2- 2 i 0.2038(8) 0.8732(4) 0.2108(4) 1. 0 
O30 O2- 2 i 0.6900(8) 0.3636(5) 0.7317(4) 1. 0 
O31 O2- 2 i 0.1742(8) 0.8569(4) 0.7183(4) 1. 0 
O32 O2- 2 i 0.6992(8) 0.3692(5) 0.1983(4) 1. 0 

#End of data_86317-ICSD


