data_406346-ICSD
#?2014 by Fachinformationszentrum Karlsruhe, and the U.S. Secretary of 
#Commerce on behalf of the United States.  All rights reserved.
_database_code_ICSD                406346
_audit_creation_date               1997/11/10
_audit_update_record               2000/07/15
_chemical_name_systematic          'Barium Disamarium Zinc Oxide'
_chemical_formula_structural       'Ba Sm2 Zn O5'
_chemical_formula_sum              'Ba1 O5 Sm2 Zn1'
_publ_section_title
;
Roentgenstrukturanalyse von zwei Verbindungen des Kupfertyps Ba M Ln2 
O5 (M= Zn, Ln= Sm, Tm) und von Ba Sm Al Zn3 O7
;
loop_
_citation_id
_citation_journal_abbrev
_citation_year
_citation_journal_volume
_citation_page_first
_citation_page_last
_citation_journal_id_ASTM
primary 'Zeitschrift fuer Naturforschung, B: Chemical Sciences'
 1997 52 546 548 ZNBSEN
_publ_author_name
;
Mueller Buschbaum, H.;Rabbow, C.;Panzer, S.
;
_cell_length_a                     12.5748(15)
_cell_length_b                     5.8042(3)
_cell_length_c                     7.1976(3)
_cell_angle_alpha                  90.
_cell_angle_beta                   90.
_cell_angle_gamma                  90.
_cell_volume                       525.33
_cell_formula_units_Z              4
_symmetry_space_group_name_H-M     'P n m a'
_symmetry_Int_Tables_number        62
_refine_ls_R_factor_all            .0471
loop_
_symmetry_equiv_pos_site_id
_symmetry_equiv_pos_as_xyz
  1	'x+.5, y, -z+.5'
  2	'x, -y+.5, z'
  3	'-x+.5, y+.5, z+.5'
  4	'-x, -y, -z'
  5	'-x+.5, -y, z+.5'
  6	'-x, y+.5, -z'
  7	'x+.5, -y+.5, -z+.5'
  8	'x, y, z'
loop_
_atom_type_symbol
_atom_type_oxidation_number
Ba2+	2
O2-	-2
Sm3+	3
Zn2+	2
loop_
_atom_site_label
_atom_site_type_symbol
_atom_site_symmetry_multiplicity
_atom_site_Wyckoff_symbol
_atom_site_fract_x
_atom_site_fract_y
_atom_site_fract_z
_atom_site_occupancy
_atom_site_attached_hydrogens
Sm1 Sm3+ 4 c 0.07432(2) 0.25 0.39687(3) 1. 0 
Sm2 Sm3+ 4 c -.20756(2) 0.25 0.38103(3) 1. 0 
Ba1 Ba2+ 4 c -.09901(2) 0.25 -.07542(4) 1. 0 
Zn1 Zn2+ 4 c -.35039(4) 0.25 0.69117(8) 1. 0 
O1 O2- 8 d -.4344(2) 0.0059(4) 0.8308(3) 1. 0 
O2 O2- 8 d -.2252(2) 0.0045(4) 0.6466(3) 1. 0 
O3 O2- 4 c -.4009(3) 0.25 0.4317(5) 1. 0 

loop_
_atom_site_aniso_label
_atom_site_aniso_type_symbol
_atom_site_aniso_U_11
_atom_site_aniso_U_22
_atom_site_aniso_U_33
_atom_site_aniso_U_12
_atom_site_aniso_U_13
_atom_site_aniso_U_23
Sm1 Sm3+ 0.00418(7) 0.00568(8) 0.00622(8) 0 -.00004(6) 0
Sm2 Sm3+ 0.00454(7) 0.00599(8) 0.00673(8) 0 -.00013(6) 0
Ba1 Ba2+ 0.00820(9) 0.00908(10) 0.01227(10) 0 -.00125(9) 0
Zn1 Zn2+ 0.0061(2) 0.0079(2) 0.0071(2) 0 0.0012(2) 0
O1 O2- 0.0074(7) 0.0082(9) 0.0116(9) -.0011(8) 0.0010(8) 0.0017(9)
O2 O2- 0.0108(8) 0.0119(11) 0.0125(10) 0.0026(8) 0.0052(8) 0.0037(9)
O3 O2- 0.0071(12) 0.0117(13) 0.0072(12) 0 -.0002(11) 0
#End of data_406346-ICSD


