data_425834-ICSD
#?2014 by Fachinformationszentrum Karlsruhe, and the U.S. Secretary of 
#Commerce on behalf of the United States.  All rights reserved.
_database_code_ICSD                425834
_audit_creation_date               2013/08/01
_chemical_name_systematic
;
Tricopper(II) Zinc Hexahydroxodichloride
;
_chemical_formula_structural       'Cu3 Zn (O H)6 Cl2'
_chemical_formula_sum              'H6 Cl2 Cu3 O6 Zn1'
_chemical_name_mineral             'Herbertsmithite - (Zn)'
_publ_section_title
;
Herbertsmithite, Cu3 Zn(OH)6 Cl2, a new species, and the definition 
of paratacamite
;
loop_
_citation_id
_citation_journal_abbrev
_citation_year
_citation_journal_volume
_citation_journal_issue
_citation_page_first
_citation_page_last
_citation_journal_id_ASTM
primary 'Mineralogical Magazine (1969-)' 2004 68 3 527 539 MNLMBB
_publ_author_name
;
Braithwaite, R.S.W.;Mereiter, K.;Paar, W.H.;Clark, A.M.
;
_cell_length_a                     6.834(1)
_cell_length_b                     6.834(1)
_cell_length_c                     14.075(2)
_cell_angle_alpha                  90.00
_cell_angle_beta                   90.00
_cell_angle_gamma                  120.00
_cell_volume                       569.28
_cell_formula_units_Z              3
_symmetry_space_group_name_H-M     'R -3 m H'
_symmetry_Int_Tables_number        166
_refine_ls_R_factor_all            .0118
loop_
_symmetry_equiv_pos_site_id
_symmetry_equiv_pos_as_xyz
  1	'x-y, -y, -z'
  2	'-x, -x+y, -z'
  3	'y, x, -z'
  4	'x-y, x, -z'
  5	'y, -x+y, -z'
  6	'-x, -y, -z'
  7	'-x+y, y, z'
  8	'x, x-y, z'
  9	'-y, -x, z'
 10	'-x+y, -x, z'
 11	'-y, x-y, z'
 12	'x, y, z'
 13	'x-y+.6666, -y+.3333, -z+.3333'
 14	'x-y+.3333, -y+.6666, -z+.6666'
 15	'-x+.6666, -x+y+.3333, -z+.3333'
 16	'-x+.3333, -x+y+.6666, -z+.6666'
 17	'y+.6666, x+.3333, -z+.3333'
 18	'y+.3333, x+.6666, -z+.6666'
 19	'x-y+.6666, x+.3333, -z+.3333'
 20	'x-y+.3333, x+.6666, -z+.6666'
 21	'y+.6666, -x+y+.3333, -z+.3333'
 22	'y+.3333, -x+y+.6666, -z+.6666'
 23	'-x+.6666, -y+.3333, -z+.3333'
 24	'-x+.3333, -y+.6666, -z+.6666'
 25	'-x+y+.6666, y+.3333, z+.3333'
 26	'-x+y+.3333, y+.6666, z+.6666'
 27	'x+.6666, x-y+.3333, z+.3333'
 28	'x+.3333, x-y+.6666, z+.6666'
 29	'-y+.6666, -x+.3333, z+.3333'
 30	'-y+.3333, -x+.6666, z+.6666'
 31	'-x+y+.6666, -x+.3333, z+.3333'
 32	'-x+y+.3333, -x+.6666, z+.6666'
 33	'-y+.6666, x-y+.3333, z+.3333'
 34	'-y+.3333, x-y+.6666, z+.6666'
 35	'x+.6666, y+.3333, z+.3333'
 36	'x+.3333, y+.6666, z+.6666'
loop_
_atom_type_symbol
_atom_type_oxidation_number
Cl1-	-1
Cu2+	2
H1+	1
O2-	-2
Zn2+	2
loop_
_atom_site_label
_atom_site_type_symbol
_atom_site_symmetry_multiplicity
_atom_site_Wyckoff_symbol
_atom_site_fract_x
_atom_site_fract_y
_atom_site_fract_z
_atom_site_occupancy
_atom_site_attached_hydrogens
_atom_site_U_iso_or_equiv
Zn1 Zn2+ 3 b 0.0000 0.0000 0.5000 1 0 0.00991(6) 
Cu1 Cu2+ 9 e 0.5000 0.0000 0.0000 1 0 0.00906(5) 
O1 O2- 18 h 0.2056(1) -0.2056(1) 0.0612(1) 1 0 0.01043(10) 
Cl1 Cl1- 6 c 0.0000 0.0000 0.1943(1) 1 0 0.01325(7) 
H1 H1+ 18 h 0.138(3) -0.138(3) 0.0862(20) 1 0 0.040 

loop_
_atom_site_aniso_label
_atom_site_aniso_type_symbol
_atom_site_aniso_U_11
_atom_site_aniso_U_22
_atom_site_aniso_U_33
_atom_site_aniso_U_12
_atom_site_aniso_U_13
_atom_site_aniso_U_23
Zn1 Zn2+ 0.0114(1) 0.0114(1) 0.0066(1) 0.0057(1) 0.000 0.000
Cu1 Cu2+ 0.0081(1) 0.0076(1) 0.0108(1) 0.0038(1) 0.0011(1) 0.0023(1)
O1 O2- 0.0099(2) 0.0099(2) 0.0132(3) 0.0053(3) 0.0007(1) -0.0007(1)
Cl1 Cl1- 0.0144(1) 0.0144(1) 0.0106(2) 0.0072(1) 0.000 0.000
#End of data_425834-ICSD


