data_166584-ICSD
#?2014 by Fachinformationszentrum Karlsruhe, and the U.S. Secretary of 
#Commerce on behalf of the United States.  All rights reserved.
_database_code_ICSD                166584
_audit_creation_date               2010/08/01
_audit_update_record               2013/08/01
_chemical_name_systematic          'Tripotassium Holmium Trisilicate'
_chemical_formula_structural       'K3 Ho (Si3 O9)'
_chemical_formula_sum              'Ho1 K3 O9 Si3'
_publ_section_title
;
Solid state polycondensation reaction. The dehydration of K3 Ho Si3 
O8 (O H)2 and the crystal structure of the reaction product, K3 Ho 
Si3 O9, at 880 K
;
loop_
_citation_id
_citation_journal_abbrev
_citation_year
_citation_journal_volume
_citation_journal_issue
_citation_page_first
_citation_page_last
_citation_journal_id_ASTM
primary 'Doklady Akademii Nauk SSSR' 1988 298 5 1134 1137 DANKAS
_publ_author_name
;
Ponomarev, V.I.;Filipenko, O.S.;Atovmyan, L.O.
;
_cell_length_a                     13.949(8)
_cell_length_b                     12.905(7)
_cell_length_c                     5.857(5)
_cell_angle_alpha                  90.
_cell_angle_beta                   90.
_cell_angle_gamma                  90.
_cell_volume                       1054.33
_cell_formula_units_Z              4
_symmetry_space_group_name_H-M     'P m 21 n'
_symmetry_Int_Tables_number        31
_refine_ls_R_factor_all            .058
loop_
_symmetry_equiv_pos_site_id
_symmetry_equiv_pos_as_xyz
  1	'x+.5, y+.5, -z'
  2	'-x+.5, y+.5, -z'
  3	'-x, y, z'
  4	'x, y, z'
loop_
_atom_type_symbol
_atom_type_oxidation_number
Ho3+	3
K1+	1
O2-	-2
Si4+	4
loop_
_atom_site_label
_atom_site_type_symbol
_atom_site_symmetry_multiplicity
_atom_site_Wyckoff_symbol
_atom_site_fract_x
_atom_site_fract_y
_atom_site_fract_z
_atom_site_occupancy
_atom_site_attached_hydrogens
_atom_site_U_iso_or_equiv
Ho1 Ho3+ 4 b 0.2594(1) 0.4592(1) 0.8325(1) 1. 0 0.015(2) 
Si1 Si4+ 4 b 0.3902(4) 0.3726(5) 0.3237(14) 1. 0 0.016(4) 
Si2 Si4+ 4 b 0.2208(4) 0.2470(5) 0.1674(15) 1. 0 0.018(4) 
Si3 Si4+ 4 b 0.1147(4) 0.4365(4) 0.3310(13) 1. 0 0.016(4) 
O1 O2- 2 a 0.5 0.3192(20) 0.3300(66) 1. 0 0.030(7) 
O2 O2- 4 b 0.3697(13) 0.4276(16) 0.5652(34) 1. 0 0.039(7) 
O3 O2- 4 b 0.3772(13) 0.4463(24) 0.1092(42) 1. 0 0.049(8) 
O4 O2- 4 b 0.3248(12) 0.2660(17) 0.2845(41) 1. 0 0.037(7) 
O5 O2- 4 b 0.2175(15) 0.2928(13) 0.9029(38) 1. 0 0.032(7) 
O6 O2- 4 b 0.1939(16) 0.1293(15) 0.1838(55) 1. 0 0.046(8) 
O7 O2- 4 b 0.1445(19) 0.3101(16) 0.3210(43) 1. 0 0.042(8) 
O8 O2- 4 b 0.1459(17) 0.4977(17) 0.1044(58) 1. 0 0.064(8) 
O9 O2- 4 b 0.1450(13) 0.4853(15) 0.5695(38) 1. 0 0.042(7) 
O10 O2- 2 a 0 0.4459(55) 0.3207(82) 1. 0 0.203(20) 
K1 K1+ 4 b 0.2186(7) 0.1250(7) 0.6601(17) 1. 0 0.053(8) 
K2 K1+ 2 a 0.5 0.5582(13) 0.8111(28) 1. 0 0.057(8) 
K3 K1+ 2 a 0.5 0.8431(12) 0.1730(36) 1. 0 0.077(9) 
K4 K1+ 2 a 0.5 0.1057(18) 0.2368(47) 1. 0 0.084(9) 
K5 K1+ 2 a 0.5 0.3050(13) 0.8318(35) 1. 0 0.064(8) 

#End of data_166584-ICSD


