data_421802-ICSD
#?2014 by Fachinformationszentrum Karlsruhe, and the U.S. Secretary of 
#Commerce on behalf of the United States.  All rights reserved.
_database_code_ICSD                421802
_audit_creation_date               2011/02/01
_chemical_name_systematic
;
Potassium Gadolinium Bis(sulfate(VI)) Hydrate
;
_chemical_formula_structural       'K Gd (S O4)2 (H2 O)'
_chemical_formula_sum              'H2 Gd1 K1 O9 S2'
_publ_section_title
;
Syntheses, crystal structures and vibrational spectra of K Ln (S 
O4)2.H2 O (Ln = La, Nd, Sm, Eu, Gd, Dy)
;
loop_
_citation_id
_citation_journal_abbrev
_citation_year
_citation_journal_volume
_citation_journal_issue
_citation_page_first
_citation_page_last
_citation_journal_id_ASTM
primary 'Journal of Solid State Chemistry' 2010 183 9 2087 2094 JSSCBI
_publ_author_name                  'Kazmiercak, K.;Hoeppe, H.A.'
_cell_length_a                     10.1255(15)
_cell_length_b                     8.3856(13)
_cell_length_c                     10.3501(16)
_cell_angle_alpha                  90.00
_cell_angle_beta                   119.213(3)
_cell_angle_gamma                  90.00
_cell_volume                       767.04
_cell_formula_units_Z              4
_symmetry_space_group_name_H-M     'P 1 21/c 1'
_symmetry_Int_Tables_number        14
_refine_ls_R_factor_all            .0396
loop_
_symmetry_equiv_pos_site_id
_symmetry_equiv_pos_as_xyz
  1	'x, -y+.5, z+.5'
  2	'-x, -y, -z'
  3	'-x, y+.5, -z+.5'
  4	'x, y, z'
loop_
_atom_type_symbol
_atom_type_oxidation_number
Gd3+	3
H1+	1
K1+	1
O2-	-2
S6+	6
loop_
_atom_site_label
_atom_site_type_symbol
_atom_site_symmetry_multiplicity
_atom_site_Wyckoff_symbol
_atom_site_fract_x
_atom_site_fract_y
_atom_site_fract_z
_atom_site_occupancy
_atom_site_attached_hydrogens
_atom_site_U_iso_or_equiv
Gd1 Gd3+ 4 e 0.25747(4) 0.14771(4) 0.53603(4) 1 0 0.0179(3) 
K1 K1+ 4 e -0.2112(3) 0.1765(3) 0.8119(3) 1 0 0.0343(6) 
S1 S6+ 4 e 0.0508(3) 0.1344(2) 0.6808(3) 1 0 0.0188(6) 
O1 O2- 4 e 0.0752(6) 0.2116(7) 0.8171(6) 1 0 0.0262(14) 
O2 O2- 4 e 0.0581(7) 0.2515(7) 0.5769(6) 1 0 0.0273(14) 
O3 O2- 4 e 0.1697(7) 0.0179(7) 0.7090(7) 1 0 0.0295(15) 
O4 O2- 4 e -0.1002(6) 0.0599(7) 0.6121(7) 1 0 0.0278(15) 
S2 S6+ 4 e 0.4987(3) 0.3031(3) 0.8973(2) 1 0 0.0220(6) 
O5 O2- 4 e 0.5971(6) 0.4162(7) 0.8760(6) 1 0 0.0253(14) 
O6 O2- 4 e 0.4534(7) 0.1806(7) 0.7793(7) 1 0 0.0258(14) 
O7 O2- 4 e 0.3603(8) 0.1146(8) 0.3779(9) 1 0 0.0422(18) 
O8 O2- 4 e 0.5760(10) 0.2282(9) 1.0408(7) 1 0 0.055(2) 
O9 O2- 4 e 0.3223(8) 0.0674(7) 1.0510(7) 1 0 0.0312(15) 
H1 H1+ 4 e 0.283(11) 0.016(13) 0.959(8) 1 0 0.050 
H2 H1+ 4 e 0.399(9) -0.011(10) 1.090(10) 1 0 0.050 

loop_
_atom_site_aniso_label
_atom_site_aniso_type_symbol
_atom_site_aniso_U_11
_atom_site_aniso_U_22
_atom_site_aniso_U_33
_atom_site_aniso_U_12
_atom_site_aniso_U_13
_atom_site_aniso_U_23
Gd1 Gd3+ 0.0159(4) 0.0192(4) 0.0175(4) 0.00097(14) 0.0073(3) -0.00026(14)
K1 K1+ 0.0279(13) 0.0436(13) 0.0327(13) -0.0034(10) 0.0159(11) -0.0013(10)
S1 S6+ 0.0149(13) 0.0242(12) 0.0189(13) -0.0035(8) 0.0096(11) -0.0014(8)
O1 O2- 0.023(3) 0.033(4) 0.026(3) -0.011(3) 0.015(3) -0.010(3)
O2 O2- 0.030(3) 0.035(3) 0.024(3) -0.001(3) 0.018(3) 0.004(3)
O3 O2- 0.025(3) 0.031(4) 0.036(3) 0.003(3) 0.017(3) 0.001(3)
O4 O2- 0.016(3) 0.036(4) 0.029(3) -0.007(3) 0.009(3) -0.008(3)
S2 S6+ 0.0255(13) 0.0244(12) 0.0194(12) -0.0061(11) 0.0135(11) -0.0040(10)
O5 O2- 0.023(4) 0.023(3) 0.029(3) -0.013(3) 0.012(3) -0.003(3)
O6 O2- 0.022(3) 0.028(3) 0.018(3) -0.006(3) 0.003(3) -0.002(3)
O7 O2- 0.032(4) 0.048(4) 0.056(5) 0.010(3) 0.029(4) 0.027(4)
O8 O2- 0.086(6) 0.046(5) 0.019(4) -0.032(4) 0.015(4) 0.004(3)
O9 O2- 0.035(4) 0.021(4) 0.037(4) 0.008(3) 0.017(3) 0.002(3)
#End of data_421802-ICSD


