data_65151-ICSD
#?2014 by Fachinformationszentrum Karlsruhe, and the U.S. Secretary of 
#Commerce on behalf of the United States.  All rights reserved.
_database_code_ICSD                65151
_audit_creation_date               1989/12/04
_chemical_name_systematic          'Cesium Dilithium Amide'
_chemical_formula_structural       'Cs Li2 (N H2)3'
_chemical_formula_sum              'H6 Cs1 Li2 N3'
_publ_section_title
;
Neue ternaere Alkalimetallhydroxide, M Li2 (O H)3 mit M = K, Rb, Cs 
sowie ein Caesiumdilithiumamid, Cs Li2 (N H2)3 - 
Strukturverwandtschaft zum Ba Ni O3 - Typ und zu Li O H
;
loop_
_citation_id
_citation_journal_abbrev
_citation_year
_citation_journal_volume
_citation_page_first
_citation_page_last
_citation_journal_id_ASTM
primary 'Zeitschrift fuer Anorganische und Allgemeine Chemie (1950) (DE)'
 1987 555 43 56 ZAACAB
_publ_author_name
;
Jacobs, H.;Schardey, A.;Harbrecht, B.
;
_cell_length_a                     8.726(4)
_cell_length_b                     11.151(3)
_cell_length_c                     5.445(1)
_cell_angle_alpha                  90.
_cell_angle_beta                   90.
_cell_angle_gamma                  90.
_cell_volume                       529.82
_cell_formula_units_Z              4
_symmetry_space_group_name_H-M     'C m c m'
_symmetry_Int_Tables_number        63
_refine_ls_R_factor_all            .026
loop_
_symmetry_equiv_pos_site_id
_symmetry_equiv_pos_as_xyz
  1	'-x, y, -z+.5'
  2	'-x, -y, z+.5'
  3	'-x, y, z'
  4	'-x, -y, -z'
  5	'x, -y, z+.5'
  6	'x, y, -z+.5'
  7	'x, -y, -z'
  8	'x, y, z'
  9	'-x+.5, y+.5, -z+.5'
 10	'-x+.5, -y+.5, z+.5'
 11	'-x+.5, y+.5, z'
 12	'-x+.5, -y+.5, -z'
 13	'x+.5, -y+.5, z+.5'
 14	'x+.5, y+.5, -z+.5'
 15	'x+.5, -y+.5, -z'
 16	'x+.5, y+.5, z'
loop_
_atom_type_symbol
_atom_type_oxidation_number
Cs1+	1
H1+	1
Li1+	1
N3-	-3
loop_
_atom_site_label
_atom_site_type_symbol
_atom_site_symmetry_multiplicity
_atom_site_Wyckoff_symbol
_atom_site_fract_x
_atom_site_fract_y
_atom_site_fract_z
_atom_site_occupancy
_atom_site_attached_hydrogens
_atom_site_B_iso_or_equiv
Cs1 Cs1+ 4 c 0 0.699940(5) 0.25 1. 0 0 
Li1 Li1+ 8 e 0.1452(8) 0 0 1. 0 0 
N1 N3- 4 c 0 0.0979(4) 0.25 1. 0 0 
N2 N3- 8 g 0.2269(4) 0.4045(3) 0.25 1. 0 0 
H1 H1+ 8 g 0.930(7) 0.134(5) 0.25 1. 0 8.(2) 
H2 H1+ 8 g 0.135(8) 0.431(6) 0.25 1. 0 10.(2) 
H3 H1+ 8 g 0.22 0.33 0.25 1. 0 8.(2) 

loop_
_atom_site_aniso_label
_atom_site_aniso_type_symbol
_atom_site_aniso_U_11
_atom_site_aniso_U_22
_atom_site_aniso_U_33
_atom_site_aniso_U_12
_atom_site_aniso_U_13
_atom_site_aniso_U_23
Cs1 Cs1+ 0.0517(2) 0.0436(2) 0.0292(2) 0 0 0
Li1 Li1+ 0.028(3) 0.041(3) 0.022(3) 0 0 0.000(3)
N1 N3- 0.023(2) 0.025(2) 0.023(2) 0 0 0
N2 N3- 0.025(1) 0.037(2) 0.034(1) -.008(1) 0 0
#End of data_65151-ICSD


