data_74499-ICSD
#?2014 by Fachinformationszentrum Karlsruhe, and the U.S. Secretary of 
#Commerce on behalf of the United States.  All rights reserved.
_database_code_ICSD                74499
_audit_creation_date               1995/10/17
_chemical_name_systematic          'Disodium Dithiomercurate'
_chemical_formula_structural       'Na2 (Hg S2)'
_chemical_formula_sum              'Hg1 Na2 S2'
_publ_section_title
;
Na2HgS2 und K2HgS2, zwei Thiomercurate mit isolierten Anionen
;
loop_
_citation_id
_citation_journal_abbrev
_citation_year
_citation_journal_volume
_citation_page_first
_citation_page_last
_citation_journal_id_ASTM
primary 'Zeitschrift fuer Naturforschung, B: Chemical Sciences'
 1992 47 491 496 ZNBSEN
_publ_author_name                  'Klepp, K.O.;Prager, K.'
_cell_length_a                     18.240(20)
_cell_length_b                     7.494(5)
_cell_length_c                     7.237(5)
_cell_angle_alpha                  90.
_cell_angle_beta                   90.
_cell_angle_gamma                  90.
_cell_volume                       989.23
_cell_formula_units_Z              8
_symmetry_space_group_name_H-M     'P b c a'
_symmetry_Int_Tables_number        61
_refine_ls_R_factor_all            .056
loop_
_symmetry_equiv_pos_site_id
_symmetry_equiv_pos_as_xyz
  1	'x+.5, y, -z+.5'
  2	'x, -y+.5, z+.5'
  3	'-x+.5, y+.5, z'
  4	'-x, -y, -z'
  5	'-x+.5, -y, z+.5'
  6	'-x, y+.5, -z+.5'
  7	'x+.5, -y+.5, -z'
  8	'x, y, z'
loop_
_atom_type_symbol
_atom_type_oxidation_number
Hg2+	2
Na1+	1
S2-	-2
loop_
_atom_site_label
_atom_site_type_symbol
_atom_site_symmetry_multiplicity
_atom_site_Wyckoff_symbol
_atom_site_fract_x
_atom_site_fract_y
_atom_site_fract_z
_atom_site_occupancy
_atom_site_attached_hydrogens
_atom_site_B_iso_or_equiv
Na1 Na1+ 8 c 0.5558(4) 0.270(1) 0.498(1) 1. 0 2.4(2) 
Na2 Na1+ 8 c 0.6972(4) 0.454(1) 0.170(1) 1. 0 2.7(2) 
Hg1 Hg2+ 8 c 0.38988(4) 0.1523(1) 0.7275(1) 1. 0 1.81(1) 
S1 S2- 8 c 0.5502(3) 0.9228(7) 0.7431(7) 1. 0 1.84(8) 
S2 S2- 8 c 0.6774(3) 0.3910(7) 0.7964(7) 1. 0 2.09(9) 

#End of data_74499-ICSD


