data_153119-ICSD
#?2014 by Fachinformationszentrum Karlsruhe, and the U.S. Secretary of 
#Commerce on behalf of the United States.  All rights reserved.
_database_code_ICSD                153119
_audit_creation_date               2006/10/01
_audit_update_record               2013/08/01
_chemical_name_systematic          'Trisodium Ruthenate(V)'
_chemical_formula_structural       'Na3 Ru O4'
_chemical_formula_sum              'Na3 O4 Ru1'
_publ_section_title
;
Isolated spin 3/2 plaquettes in Na3 Ru O4
;
loop_
_citation_id
_citation_journal_abbrev
_citation_year
_citation_journal_volume
_citation_page_first
_citation_page_last
_citation_journal_id_ASTM
primary 'Journal of Solid State Chemistry' 2005 178 2104 2108 JSSCBI
_publ_author_name                  'Regan, K.A.;Huang, Q.;Cava, R.J.'
_cell_length_a                     11.0295(6)
_cell_length_b                     12.8205(7)
_cell_length_c                     5.7028(3)
_cell_angle_alpha                  90.
_cell_angle_beta                   109.908(3)
_cell_angle_gamma                  90.
_cell_volume                       758.21
_cell_formula_units_Z              8
_symmetry_space_group_name_H-M     'C 1 2/m 1'
_symmetry_Int_Tables_number        12
_refine_ls_R_factor_all            .0538
loop_
_symmetry_equiv_pos_site_id
_symmetry_equiv_pos_as_xyz
  1	'-x, y, -z'
  2	'-x, -y, -z'
  3	'x, -y, z'
  4	'x, y, z'
  5	'-x+.5, y+.5, -z'
  6	'-x+.5, -y+.5, -z'
  7	'x+.5, -y+.5, z'
  8	'x+.5, y+.5, z'
loop_
_atom_type_symbol
_atom_type_oxidation_number
Na1+	1
O2-	-2
Ru5+	5
loop_
_atom_site_label
_atom_site_type_symbol
_atom_site_symmetry_multiplicity
_atom_site_Wyckoff_symbol
_atom_site_fract_x
_atom_site_fract_y
_atom_site_fract_z
_atom_site_occupancy
_atom_site_attached_hydrogens
_atom_site_U_iso_or_equiv
Ru1 Ru5+ 4 g 0 0.1252(7) 0 1. 0 0.0059(11) 
Ru2 Ru5+ 4 i 0.2550(9) 0 0.01777(16) 1. 0 0.0059(11) 
Na1 Na1+ 4 g 0 0.3759(15) 0 1. 0 0.0128(13) 
Na2 Na1+ 4 e 0.250 0.250 0 1. 0 0.0128(13) 
Na3 Na1+ 8 j 0.2421(13) 0.1254(10) 0.5244 1. 0 0.0128(13) 
Na4 Na1+ 2 c 0 0 0.5 1. 0 0.0128(13) 
Na5 Na1+ 4 h 0 0.2565(14) 0.5 1. 0 0.0128(13) 
Na6 Na1+ 2 d 0 0.5 0.5 1. 0 0.0128(13) 
O1 O2- 4 i 0.1147(14) 0 0.2019(27) 1. 0 0.0107(6) 
O2 O2- 8 j 0.1032(8) 0.2278(6) 0.2285(17) 1. 0 0.0107(6) 
O3 O2- 4 i 0.1528(12) 0.5 0.1969(23) 1. 0 0.0107(6) 
O4 O2- 8 j 0.1197(9) 0.1119(7) 0.8111(17) 1. 0 0.0107(6) 
O5 O2- 8 j 0.1455(8) 0.3924(7) 0.7636(16) 1. 0 0.0107(6) 

#End of data_153119-ICSD


