data_200161-ICSD
#?2014 by Fachinformationszentrum Karlsruhe, and the U.S. Secretary of 
#Commerce on behalf of the United States.  All rights reserved.
_database_code_ICSD                200161
_audit_creation_date               1980/01/01
_chemical_name_systematic          'Potassium Neodymium Silicate *'
_chemical_formula_structural       'K3 Nd Si6 O15'
_chemical_formula_sum              'K3 Nd1 O15 Si6'
_publ_section_title
;
The crystal structure of K3 Nd Si6 O15
;
loop_
_citation_id
_citation_journal_abbrev
_citation_year
_citation_journal_volume
_citation_page_first
_citation_page_last
_citation_journal_id_ASTM
primary 'Doklady Akademii Nauk SSSR' 1977 234 1323 1325 DANKAS
_publ_author_name
;
Pushcharovskii, D.Yu.;Karpov, O.G.;Pobedimskaya, E.A.;Belov, N.V.
;
_cell_length_a                     16.011(9)
_cell_length_b                     14.984(3)
_cell_length_c                     7.276(5)
_cell_angle_alpha                  90.
_cell_angle_beta                   90.
_cell_angle_gamma                  90.
_cell_volume                       1745.58
_cell_formula_units_Z              4
_symmetry_space_group_name_H-M     'P b a m'
_symmetry_Int_Tables_number        55
_refine_ls_R_factor_all            .093
loop_
_symmetry_equiv_pos_site_id
_symmetry_equiv_pos_as_xyz
  1	'x+.5, -y+.5, z'
  2	'-x+.5, y+.5, z'
  3	'x, y, -z'
  4	'-x, -y, -z'
  5	'-x+.5, y+.5, -z'
  6	'x+.5, -y+.5, -z'
  7	'-x, -y, z'
  8	'x, y, z'
loop_
_atom_type_symbol
_atom_type_oxidation_number
K1+	1
Nd3+	3
O2-	-2
Si4+	4
loop_
_atom_site_label
_atom_site_type_symbol
_atom_site_symmetry_multiplicity
_atom_site_Wyckoff_symbol
_atom_site_fract_x
_atom_site_fract_y
_atom_site_fract_z
_atom_site_occupancy
_atom_site_attached_hydrogens
_atom_site_B_iso_or_equiv
Nd1 Nd3+ 2 a 0 0 0 1. 0 0.53 
Nd2 Nd3+ 2 c 0.5 0 0 1. 0 0.77 
Si1 Si4+ 4 g 0.2101 0.1274 0 1. 0 0.47 
Si2 Si4+ 8 i 0.3551 0.1352 0.2865 1. 0 0.63 
Si3 Si4+ 4 g 0.0909 0.2802 0 1. 0 0.76 
Si4 Si4+ 8 i 0.4624 0.2992 0.2826 1. 0 0.74 
O1 O2- 8 i 0.043 0.244 0.182 1. 0 1.85 
O2 O2- 4 g 0.102 0.383 0 1. 0 1.73 
O3 O2- 4 g 0.183 0.231 0 1. 0 1.52 
O4 O2- 4 g 0.135 0.061 0 1. 0 1.47 
O5 O2- 8 i 0.268 0.114 0.18 1. 0 1.54 
O6 O2- 4 h 0.323 0.133 0.5 1. 0 1.74 
O7 O2- 8 i 0.427 0.07 0.246 1. 0 1.98 
O8 O2- 8 i 0.379 0.239 0.239 1. 0 1.45 
O9 O2- 8 i 0.448 0.397 0.222 1. 0 1.65 
O10 O2- 4 h 0.486 0.287 0.5 1. 0 1.47 
K1 K1+ 4 g 0.2912 0.3791 0 1. 0 5.46 
K2 K1+ 4 h 0.1548 0.1561 0.5 1. 0 4.76 
K3 K1+ 4 h 0.0705 0.4115 0.5 1. 0 3.9 

#End of data_200161-ICSD


