data_280656-ICSD
#?2014 by Fachinformationszentrum Karlsruhe, and the U.S. Secretary of 
#Commerce on behalf of the United States.  All rights reserved.
_database_code_ICSD                280656
_audit_creation_date               2002/10/01
_chemical_name_systematic
;
Pentapotassium Thorium Tris(tetrathiophosphate(V))
;
_chemical_formula_structural       'K5 Th (P S4)3'
_chemical_formula_sum              'K5 P3 S12 Th1'
_publ_section_title
;
Synthesis and characterization of six new quaternary actinide 
thiophosphate compounds: Cs8 U5 (P3 S10)2 (P S4)6, K10 Th3 (P2 S7)4 
(P S4)2, and A5 An (P S4)3, (A = K, Rb, Cs; An = U, Th)
;
loop_
_citation_id
_citation_journal_abbrev
_citation_year
_citation_journal_volume
_citation_page_first
_citation_page_last
_citation_journal_id_ASTM
primary 'Inorganic Chemistry' 2001 40 2851 2859 INOCAJ
_publ_author_name
;
Hess, R.F.;Abney, K.D.;Burris, J.L.;Hochheimer, H.D.;Dorhout, P.K.
;
_cell_length_a                     9.7436(1)
_cell_length_b                     11.3894(2)
_cell_length_c                     20.0163(3)
_cell_angle_alpha                  90.
_cell_angle_beta                   90.041(1)
_cell_angle_gamma                  90.
_cell_volume                       2221.28
_cell_formula_units_Z              4
_symmetry_space_group_name_H-M     'P 1 21/n 1'
_symmetry_Int_Tables_number        14
_refine_ls_R_factor_all            .0363
loop_
_symmetry_equiv_pos_site_id
_symmetry_equiv_pos_as_xyz
  1	'-x+.5, y+.5, -z+.5'
  2	'-x, -y, -z'
  3	'x+.5, -y+.5, z+.5'
  4	'x, y, z'
loop_
_atom_type_symbol
_atom_type_oxidation_number
K1+	1
P5+	5
S2-	-2
Th4+	4
loop_
_atom_site_label
_atom_site_type_symbol
_atom_site_symmetry_multiplicity
_atom_site_Wyckoff_symbol
_atom_site_fract_x
_atom_site_fract_y
_atom_site_fract_z
_atom_site_occupancy
_atom_site_attached_hydrogens
Th1 Th4+ 4 e 0.10701(6) 0.64894(2) 0.08064(2) 1. 0 
K1 K1+ 4 e 0.1131(4) 0.65584(14) -.25739(11) 1. 0 
K2 K1+ 4 e 0.1814(2) 0.9057(2) -.09735(10) 1. 0 
K3 K1+ 4 e -.3595(2) 0.5902(2) 0.08341(12) 1. 0 
K4 K1+ 4 e 0.6706(3) 0.6062(2) -.24977(11) 1. 0 
K5 K1+ 4 e 0.3802(2) 1.14122(14) 0.07950(11) 1. 0 
P1 P5+ 4 e 0.3810(2) 0.8118(2) 0.07931(11) 1. 0 
P2 P5+ 4 e -.0930(3) 0.67179(14) -.08120(11) 1. 0 
P3 P5+ 4 e 0.4023(3) 0.8312(2) -.26231(10) 1. 0 
S1 S2- 4 e 0.2638(2) 0.4343(2) 0.08008(15) 1. 0 
S2 S2- 4 e -.0772(2) 0.4367(2) 0.06922(11) 1. 0 
S3 S2- 4 e -.0949(4) 0.7732(2) 0.00256(11) 1. 0 
S4 S2- 4 e 0.0737(2) 0.5672(2) 0.21975(10) 1. 0 
S5 S2- 4 e -.0954(4) 0.7784(2) 0.15537(10) 1. 0 
S6 S2- 4 e 0.3577(2) 0.7027(2) 0.16033(10) 1. 0 
S7 S2- 4 e 0.2017(2) 0.9064(2) 0.0784(2) 1. 0 
S8 S2- 4 e 0.3589(2) 0.7025(2) -.00183(10) 1. 0 
S9 S2- 4 e 0.0582(2) 0.6000(2) -.4194(2) 1. 0 
S10 S2- 4 e -.0942(3) 0.7732(2) -.1621(1) 1. 0 
S11 S2- 4 e 0.2742(3) 0.4256(2) -.23827(13) 1. 0 
S12 S2- 4 e 0.4167(3) 0.7358(2) -.17776(10) 1. 0 

loop_
_atom_site_aniso_label
_atom_site_aniso_type_symbol
_atom_site_aniso_U_11
_atom_site_aniso_U_22
_atom_site_aniso_U_33
_atom_site_aniso_U_12
_atom_site_aniso_U_13
_atom_site_aniso_U_23
Th1 Th4+ 0.00908(11) 0.01078(12) 0.00941(11) 0.00075(11) 0.0020(2) 
-.00043(13)
K1 K1+ 0.0176(10) 0.0111(9) 0.0312(10) -.0006(8) -.0021(12) -.0019(8)
K2 K1+ 0.0256(11) 0.0358(13) 0.0239(11) -.009(1) 0.0009(8) 0.0015(9)
K3 K1+ 0.0279(12) 0.0625(14) 0.0267(10) 0.0247(9) -.0029(12) -.0118(13)
K4 K1+ 0.0285(12) 0.0438(14) 0.0228(11) 0.0161(11) 0.0046(9) 0.008(1)
K5 K1+ 0.0160(8) 0.0171(9) 0.0258(9) 0.0005(6) 0.0019(13) -.0006(9)
P1 P5+ 0.0109(8) 0.0136(8) 0.0141(8) -.0019(7) 0.0010(13) 0.0021(8)
P2 P5+ 0.014(1) 0.0130(8) 0.0093(7) 0.0025(9) 0.0035(13) 0.0000(9)
P3 P5+ 0.0130(11) 0.0157(10) 0.0109(8) -.0013(10) 0.0013(12) -.0015(8)
S1 S2- 0.0119(9) 0.0155(10) 0.0280(11) 0.0011(7) 0.0035(12) 0.0062(12)
S2 S2- 0.0106(9) 0.0149(10) 0.0156(10) 0.0005(8) 0.0017(8) -.0008(8)
S3 S2- 0.046(2) 0.038(2) 0.0171(11) 0.028(2) -.0139(14) -.0157(10)
S4 S2- 0.0118(11) 0.0202(11) 0.0145(10) 0.0042(8) 0.0046(8) 0.0051(8)
S5 S2- 0.0329(14) 0.0316(12) 0.0174(9) 0.0215(14) 0.0143(13) 0.0126(9)
S6 S2- 0.0212(13) 0.0252(12) 0.0114(9) -.0086(9) 0.0002(8) 0.0052(9)
S7 S2- 0.0112(9) 0.0145(9) 0.0459(13) 0.0005(7) 0.0045(13) -.0019(14)
S8 S2- 0.0184(13) 0.0231(11) 0.0127(9) -.0027(9) 0.0055(8) -.0018(8)
S9 S2- 0.0116(8) 0.0196(9) 0.0230(9) 0.0051(7) 0.0000(11) -.0021(12)
S10 S2- 0.0208(12) 0.0195(11) 0.016(1) 0.0017(11) 0.0050(11) 0.0061(8)
S11 S2- 0.0138(11) 0.0241(13) 0.0258(12) -.0017(9) -.002(1) -.002(1)
S12 S2- 0.0221(14) 0.0229(11) 0.0121(9) -.0018(10) 0.0030(9) 0.0055(8)
#End of data_280656-ICSD


