data_91761-ICSD
#?2014 by Fachinformationszentrum Karlsruhe, and the U.S. Secretary of 
#Commerce on behalf of the United States.  All rights reserved.
_database_code_ICSD                91761
_audit_creation_date               2002/10/01
_chemical_name_systematic
;
Potassium Samarium Cyclo-tetraphosphate(V)
;
_chemical_formula_structural       'K Sm (P4 O12)'
_chemical_formula_sum              'K1 O12 P4 Sm1'
_publ_section_title
;
Structure refinement of potassium-samarium cyclotetraphosphate K Sm 
P4 O12
;
loop_
_citation_id
_citation_journal_abbrev
_citation_year
_citation_journal_volume
_citation_page_first
_citation_page_last
_citation_journal_id_ASTM
primary 'Materials Research Bulletin' 2000 35 1533 1539 MRBUAC
_publ_author_name
;
Arbi, K.;Ben Hassan-Chehimi, D.;Trabelsi-Ayadi, M.;Silvestre, J.P.
;
_cell_length_a                     7.861(1)
_cell_length_b                     12.415(2)
_cell_length_c                     10.569(3)
_cell_angle_alpha                  90.
_cell_angle_beta                   110.78(1)
_cell_angle_gamma                  90.
_cell_volume                       964.38
_cell_formula_units_Z              4
_symmetry_space_group_name_H-M     'C 1 2/c 1'
_symmetry_Int_Tables_number        15
_refine_ls_R_factor_all            .029
loop_
_symmetry_equiv_pos_site_id
_symmetry_equiv_pos_as_xyz
  1	'x, -y, z+.5'
  2	'-x, -y, -z'
  3	'-x, y, -z+.5'
  4	'x, y, z'
  5	'x+.5, -y+.5, z+.5'
  6	'-x+.5, -y+.5, -z'
  7	'-x+.5, y+.5, -z+.5'
  8	'x+.5, y+.5, z'
loop_
_atom_type_symbol
_atom_type_oxidation_number
K1+	1
O2-	-2
P5+	5
Sm3+	3
loop_
_atom_site_label
_atom_site_type_symbol
_atom_site_symmetry_multiplicity
_atom_site_Wyckoff_symbol
_atom_site_fract_x
_atom_site_fract_y
_atom_site_fract_z
_atom_site_occupancy
_atom_site_attached_hydrogens
Sm1 Sm3+ 4 e 0 0.6199(2) 0.25 1. 0 
K1 K1+ 4 e 0 0.3161(1) 0.25 1. 0 
P1 P5+ 8 f 0.2833(1) 0.4775(1) 0.5592(1) 1. 0 
P2 P5+ 8 f 0.4585(1) 0.6707(1) 0.5008(1) 1. 0 
O1 O2- 8 f 0.1508(4) 0.4872(2) 0.4181(2) 1. 0 
O2 O2- 8 f 0.5600(4) 0.7554(2) 0.5979(3) 1. 0 
O3 O2- 8 f 0.2901(3) 0.7009(2) 0.3874(3) 1. 0 
O4 O2- 8 f 0.2186(4) 0.4741(2) 0.6744(3) 1. 0 
O5 O2- 8 f 0.4068(4) 0.3742(2) 0.5714(3) 1. 0 
O6 O2- 8 f 0.4301(3) 0.5723(2) 0.5869(2) 1. 0 

loop_
_atom_site_aniso_label
_atom_site_aniso_type_symbol
_atom_site_aniso_U_11
_atom_site_aniso_U_22
_atom_site_aniso_U_33
_atom_site_aniso_U_12
_atom_site_aniso_U_13
_atom_site_aniso_U_23
Sm1 Sm3+ 0.01168(9) 0.0122(1) 0.01198(9) 0 0.00402(6) 0
K1 K1+ 0.090(1) 0.0220(7) 0.0272(7) 0 0.0230(8) 0
P1 P5+ 0.0116(4) 0.0134(4) 0.0134(3) 0.0004(3) 0.0056(3) 0.0012(3)
P2 P5+ 0.0119(4) 0.0126(4) 0.0145(4) -.0006(3) 0.0054(3) -.0013(3)
O1 O2- 0.0175(1) 0.020(1) 0.013(1) -.0012(9) 0.0041(8) 0.0032(8)
O2 O2- 0.017(1) 0.018(1) 0.022(1) -.0035(9) 0.0075(9) -.0070(9)
O3 O2- 0.013(1) 0.018(1) 0.019(1) 0.0016(8) 0.0031(8) 0.0006(9)
O4 O2- 0.018(1) 0.020(1) 0.018(1) 0.0008(9) 0.0105(9) -.0003(9)
O5 O2- 0.019(1) 0.018(1) 0.023(1) 0.005(1) 0.0110(9) 0.003(1)
O6 O2- 0.017(1) 0.016(1) 0.016(1) -.0034(9) 0.0055(8) 0.0032(9)
#End of data_91761-ICSD


