data_32571-ICSD
#?2014 by Fachinformationszentrum Karlsruhe, and the U.S. Secretary of 
#Commerce on behalf of the United States.  All rights reserved.
_database_code_ICSD                32571
_audit_creation_date               1982/12/31
_audit_update_record               2012/08/01
_chemical_name_systematic
;
Octabarium Calcium Diyttrium Tetrauranium(VI) Oxide
;
_chemical_formula_structural       'Ba8 Ca Y2 U4 O24'
_chemical_formula_sum              'Ba8 Ca1 O24 U4 Y2'
_publ_section_title
;
Ueber geordnete Perowskite mit Kationenfehlstellen. X. Verbindungen 
vom Typ A(II)2 B(II).25 B(III).5 M(VI) O6 = A(II)8 B(II) B(III)2 
M(VI)4 O24 mit A(II), B(II) = Ba, Sr, Ca und M(VI) = U, W
;
loop_
_citation_id
_citation_journal_abbrev
_citation_year
_citation_journal_volume
_citation_page_first
_citation_page_last
_citation_journal_id_ASTM
primary 'Zeitschrift fuer Anorganische und Allgemeine Chemie (1950) (DE)'
 1982 484 177 186 ZAACAB
_publ_author_name
;
Betz, B.;Schittenhelm, H.J.;Kemmler-Sack, S.
;
_cell_length_a                     12.28
_cell_length_b                     12.18
_cell_length_c                     17.34
_cell_angle_alpha                  90.
_cell_angle_beta                   90.
_cell_angle_gamma                  90.
_cell_volume                       2593.55
_cell_formula_units_Z              4
_symmetry_space_group_name_H-M     'P m m m'
_symmetry_Int_Tables_number        47
_refine_ls_R_factor_all            .083
loop_
_symmetry_equiv_pos_site_id
_symmetry_equiv_pos_as_xyz
  1	'x, -y, z'
  2	'-x, y, z'
  3	'x, y, -z'
  4	'-x, -y, -z'
  5	'-x, y, -z'
  6	'x, -y, -z'
  7	'-x, -y, z'
  8	'x, y, z'
loop_
_atom_type_symbol
_atom_type_oxidation_number
Ba2+	2
Ca2+	2
O2-	-2
U6+	6
Y3+	3
loop_
_atom_site_label
_atom_site_type_symbol
_atom_site_symmetry_multiplicity
_atom_site_Wyckoff_symbol
_atom_site_fract_x
_atom_site_fract_y
_atom_site_fract_z
_atom_site_occupancy
_atom_site_attached_hydrogens
Ba1 Ba2+ 4 u 0 0.25 0.125 1. 0 
Ba2 Ba2+ 4 u 0 0.25 0.375 1. 0 
Ba3 Ba2+ 4 v 0.5 0.25 0.125 1. 0 
Ba4 Ba2+ 4 v 0.5 0.25 0.375 1. 0 
Ba5 Ba2+ 4 w 0.25 0 0.125 1. 0 
Ba6 Ba2+ 4 w 0.25 0 0.375 1. 0 
Ba7 Ba2+ 4 x 0.25 0.5 0.125 1. 0 
Ba8 Ba2+ 4 x 0.25 0.5 0.375 1. 0 
U1 U6+ 2 q 0 0 0.25 1. 0 
U2 U6+ 2 r 0 0.5 0.25 1. 0 
U3 U6+ 2 s 0.5 0 0.25 1. 0 
U4 U6+ 2 t 0.5 0.5 0.25 1. 0 
U5 U6+ 4 z 0.25 0.25 0.5 1. 0 
U6 U6+ 4 y 0.25 0.25 0 1. 0 
Y1 Y3+ 8 A 0.25 0.25 0.25 1. 0 
Ca1 Ca2+ 1 b 0.5 0 0 1. 0 
Ca2 Ca2+ 1 c 0 0 0.5 1. 0 
Ca3 Ca2+ 1 e 0 0.5 0 1. 0 
Ca4 Ca2+ 1 h 0.5 0.5 0.5 1. 0 
O1 O2- 2 q 0 0 0.125 1. 0 
O2 O2- 2 q 0 0 0.375 1. 0 
O3 O2- 2 r 0 0.5 0.125 1. 0 
O4 O2- 2 r 0 0.5 0.375 1. 0 
O5 O2- 2 s 0.5 0 0.125 1. 0 
O6 O2- 2 s 0.5 0 0.375 1. 0 
O7 O2- 2 t 0.5 0.5 0.125 1. 0 
O8 O2- 2 t 0.5 0.5 0.375 1. 0 
O9 O2- 4 y 0.125 0.125 0 1. 0 
O10 O2- 4 y 0.375 0.375 0 1. 0 
O11 O2- 4 y 0.125 0.625 0 1. 0 
O12 O2- 4 y 0.375 0.125 0 1. 0 
O13 O2- 4 z 0.125 0.125 0.5 1. 0 
O14 O2- 4 z 0.375 0.375 0.5 1. 0 
O15 O2- 4 z 0.125 0.625 0.5 1. 0 
O16 O2- 4 z 0.375 0.125 0.5 1. 0 
O17 O2- 8 A 0.25 0.25 0.125 1. 0 
O18 O2- 8 A 0.25 0.25 0.375 1. 0 
O19 O2- 8 A 0.125 0.125 0.25 1. 0 
O20 O2- 8 A 0.375 0.375 0.75 1. 0 
O21 O2- 8 A 0.125 0.625 0.25 1. 0 
O22 O2- 8 A 0.625 0.125 0.25 1. 0 

#End of data_32571-ICSD


