data_60934-ICSD
#?2014 by Fachinformationszentrum Karlsruhe, and the U.S. Secretary of 
#Commerce on behalf of the United States.  All rights reserved.
_database_code_ICSD                60934
_audit_creation_date               1988/02/22
_audit_update_record               2012/08/01
_chemical_name_systematic          'Zinc Hydrogenphosphate Water'
_chemical_formula_structural       'Zn3 (P O3 (O H))3 (H2 O)3'
_chemical_formula_sum              'H9 O15 P3 Zn3'
_publ_section_title                'Hydrogenophosphate de zinc hydrate'
loop_
_citation_id
_citation_journal_abbrev
_citation_year
_citation_journal_volume
_citation_page_first
_citation_page_last
_citation_journal_id_ASTM
primary 'Acta Crystallographica, Section C: Crystal Structure Communications'
 1987 43 194 197 ACSCEE
_publ_author_name                  'Riou, A.;Cudennec, Y.;Gerault, Y.'
_cell_length_a                     6.429(13)
_cell_length_b                     7.726(11)
_cell_length_c                     12.285(16)
_cell_angle_alpha                  74.11(10)
_cell_angle_beta                   81.35(9)
_cell_angle_gamma                  80.99(9)
_cell_volume                       575.92
_cell_formula_units_Z              2
_symmetry_space_group_name_H-M     'P -1'
_symmetry_Int_Tables_number        2
_refine_ls_R_factor_all            .033
loop_
_symmetry_equiv_pos_site_id
_symmetry_equiv_pos_as_xyz
  1	'-x, -y, -z'
  2	'x, y, z'
loop_
_atom_type_symbol
_atom_type_oxidation_number
H1+	1
O2-	-2
P5+	5
Zn2+	2
loop_
_atom_site_label
_atom_site_type_symbol
_atom_site_symmetry_multiplicity
_atom_site_Wyckoff_symbol
_atom_site_fract_x
_atom_site_fract_y
_atom_site_fract_z
_atom_site_occupancy
_atom_site_attached_hydrogens
_atom_site_B_iso_or_equiv
Zn1 Zn2+ 2 i 0.64777(5) 0.11454(4) 0.40954(3) 1. 0 0 
Zn2 Zn2+ 2 i 0.86031(5) 0.32728(4) 0.55015(3) 1. 0 0 
Zn3 Zn2+ 2 i 0.02054(6) 0.06425(5) 0.79939(3) 1. 0 0 
P1 P5+ 2 i 0.8546(1) 0.8695(1) 0.63484(6) 1. 0 0 
P2 P5+ 2 i 0.3473(1) 0.2920(1) 0.61035(6) 1. 0 0 
P3 P5+ 2 i 0.3245(1) 0.6930(1) 0.86479(6) 1. 0 0 
O1 O2- 2 i 0.3281(3) 0.0934(3) 0.4371(2) 1. 0 0 
O2 O2- 2 i 0.4453(3) 0.7097(3) 0.4674(2) 1. 0 0 
O3 O2- 2 i 0.1303(3) 0.9671(3) 0.3219(2) 1. 0 0 
O4 O2- 2 i 0.0633(3) 0.8147(3) 0.5680(2) 1. 0 0 
O5 O2- 2 i 0.1650(3) 0.4064(3) 0.5469(2) 1. 0 0 
O6 O2- 2 i 0.3752(4) 0.3735(3) 0.7116(2) 1. 0 0 
O7 O2- 2 i 0.1745(4) 0.2999(3) 0.2612(2) 1. 0 0 
O8 O2- 2 i 0.2869(3) 0.1025(3) 0.6722(2) 1. 0 0 
O9 O2- 2 i 0.1450(4) 0.8294(3) 0.8957(2) 1. 0 0 
O10 O2- 2 i 0.3484(4) 0.6956(3) 0.7388(2) 1. 0 0 
O11 O2- 2 i 0.5334(4) 0.7192(3) 0.9003(2) 1. 0 0 
O12 O2- 2 i 0.2666(4) 0.4979(3) 0.9326(2) 1. 0 0 
O13 O2- 2 i 0.2888(4) 0.9523(4) 0.0960(2) 1. 0 0 
O14 O2- 2 i 0.0891(5) 0.2101(3) 0.8993(2) 1. 0 0 
O15 O2- 2 i 0.1891(4) 0.6372(3) 0.2868(2) 1. 0 0 
H1 H1+ 2 i 0.015(9) 0.209(7) 0.951(4) 1. 0 4. 
H2 H1+ 2 i 0.441(9) 0.471(7) 0.739(4) 1. 0 4. 
H3 H1+ 2 i 0.256(9) 0.993(7) 0.020(4) 1. 0 4. 
H4 H1+ 2 i 0.172(9) 0.521(7) 0.284(4) 1. 0 4. 
H5 H1+ 2 i 0.306(9) 0.443(7) 0.989(4) 1. 0 4. 
H6 H1+ 2 i 0.285(9) 0.294(7) 0.192(4) 1. 0 4. 
H7 H1+ 2 i 0.345(9) 0.033(7) 0.097(4) 1. 0 4. 
H8 H1+ 2 i 0.143(9) 0.309(7) 0.884(4) 1. 0 4. 
H9 H1+ 2 i 0.293(9) 0.638(7) 0.254(4) 1. 0 4. 

#End of data_60934-ICSD


