data_280602-ICSD
#?2014 by Fachinformationszentrum Karlsruhe, and the U.S. Secretary of 
#Commerce on behalf of the United States.  All rights reserved.
_database_code_ICSD                280602
_audit_creation_date               2002/04/01
_chemical_name_systematic          'Potassium Dinitramide'
_chemical_formula_structural       'K (N3 O4)'
_chemical_formula_sum              'K1 N3 O4'
_publ_section_title
;
Anisotropic thermal expansion of potassium dinitramide: a variable-
temperature crystallographic study
;
loop_
_citation_id
_citation_journal_abbrev
_citation_year
_citation_journal_volume
_citation_page_first
_citation_page_last
_citation_journal_id_ASTM
primary 'Acta Crystallographica, Section B: Structural Science'
 2001 57 113 118 ASBSDK
_publ_author_name
;
Hardie, M.J.;Martin, A.;Pinkerton, A.A.;Zhurova, E.A.
;
_cell_length_a                     6.6114(1)
_cell_length_b                     9.2299(2)
_cell_length_c                     7.1878(2)
_cell_angle_alpha                  90.
_cell_angle_beta                   97.639(1)
_cell_angle_gamma                  90.
_cell_volume                       434.73
_cell_formula_units_Z              4
_symmetry_space_group_name_H-M     'P 1 21/n 1'
_symmetry_Int_Tables_number        14
_refine_ls_R_factor_all            .0417
loop_
_symmetry_equiv_pos_site_id
_symmetry_equiv_pos_as_xyz
  1	'-x+.5, y+.5, -z+.5'
  2	'-x, -y, -z'
  3	'x+.5, -y+.5, z+.5'
  4	'x, y, z'
loop_
_atom_type_symbol
_atom_type_oxidation_number
K1+	1
N1+	1
N3+	3
O2-	-2
loop_
_atom_site_label
_atom_site_type_symbol
_atom_site_symmetry_multiplicity
_atom_site_Wyckoff_symbol
_atom_site_fract_x
_atom_site_fract_y
_atom_site_fract_z
_atom_site_occupancy
_atom_site_attached_hydrogens
K1 K1+ 4 e 0.85870(6) 0.34234(4) 0.82994(5) 1. 0 
O1 O2- 4 e 1.0075(2) 0.34456(14) 0.2139(2) 1. 0 
O2 O2- 4 e 0.7276(2) 0.53794(14) 0.1571(2) 1. 0 
N1 N3+ 4 e 0.6491(2) 0.46221(15) 0.2686(2) 1. 0 
O3 O2- 4 e 0.4645(2) 0.46136(15) 0.2790(2) 1. 0 
N2 N1+ 4 e 0.7581(2) 0.3764(2) 0.4055(2) 1. 0 
N3 N3+ 4 e 0.9479(2) 0.34133(14) 0.3694(2) 1. 0 
O4 O2- 4 e 1.0592(2) 0.29509(14) 0.5097(2) 1. 0 

loop_
_atom_site_aniso_label
_atom_site_aniso_type_symbol
_atom_site_aniso_U_11
_atom_site_aniso_U_22
_atom_site_aniso_U_33
_atom_site_aniso_U_12
_atom_site_aniso_U_13
_atom_site_aniso_U_23
K1 K1+ 0.0263(2) 0.0343(2) 0.0216(2) -.00368(13) 0.00464(14) 0.00040(13)
O1 O2- 0.0283(7) 0.0506(8) 0.0193(6) 0.0042(5) 0.0078(5) 0.0017(5)
O2 O2- 0.0385(8) 0.0343(7) 0.0349(7) -.0024(5) 0.0009(6) 0.0117(5)
N1 N3+ 0.0276(7) 0.0244(7) 0.0252(7) 0.0010(5) 0.0017(6) -.0030(5)
O3 O2- 0.0236(7) 0.0456(8) 0.0435(8) 0.0074(5) 0.0035(6) -.0045(6)
N2 N1+ 0.0263(8) 0.0312(8) 0.0248(7) 0.0065(6) 0.0076(6) 0.0040(6)
N3 N3+ 0.0236(7) 0.0238(7) 0.0188(7) -.0017(5) 0.0038(5) -.0008(5)
O4 O2- 0.0301(7) 0.0390(7) 0.0202(6) 0.0061(5) -.0015(5) 0.0019(5)
#End of data_280602-ICSD


