data_202249-ICSD
#?2014 by Fachinformationszentrum Karlsruhe, and the U.S. Secretary of 
#Commerce on behalf of the United States.  All rights reserved.
_database_code_ICSD                202249
_audit_creation_date               1988/12/19
_audit_update_record               1998/06/26
_chemical_name_systematic          'Zinc Catena-dioxoarsenate(III)'
_chemical_formula_structural       'Zn (As2 O4)'
_chemical_formula_sum              'As2 O4 Zn1'
_chemical_name_mineral             Leiteite
_publ_section_title
;
Leiteite, Zn As2 O4: A novel type of tetrahedral layer structure with 
arsenite chains
;
loop_
_citation_id
_citation_journal_abbrev
_citation_year
_citation_journal_volume
_citation_page_first
_citation_page_last
_citation_journal_id_ASTM
primary 'American Mineralogist' 1987 72 629 632 AMMIAY
_publ_author_name
;
Ghose, S.;Sen Gupta, P.K.;Schlemper, E.O.
;
_cell_length_a                     4.542(1)
_cell_length_b                     5.022(1)
_cell_length_c                     17.5969(50)
_cell_angle_alpha                  90.
_cell_angle_beta                   90.81(3)
_cell_angle_gamma                  90.
_cell_volume                       401.34
_cell_formula_units_Z              4
_symmetry_space_group_name_H-M     'P 1 21/c 1'
_symmetry_Int_Tables_number        14
_refine_ls_R_factor_all            .048
loop_
_symmetry_equiv_pos_site_id
_symmetry_equiv_pos_as_xyz
  1	'x, -y+.5, z+.5'
  2	'-x, -y, -z'
  3	'-x, y+.5, -z+.5'
  4	'x, y, z'
loop_
_atom_type_symbol
_atom_type_oxidation_number
As3+	3
O2-	-2
Zn2+	2
loop_
_atom_site_label
_atom_site_type_symbol
_atom_site_symmetry_multiplicity
_atom_site_Wyckoff_symbol
_atom_site_fract_x
_atom_site_fract_y
_atom_site_fract_z
_atom_site_occupancy
_atom_site_attached_hydrogens
As1 As3+ 4 e 0.9920(3) 0.2136(2) 0.9056(1) 1. 0 
As2 As3+ 4 e 0.4893(3) 0.7751(2) 0.9080(1) 1. 0 
Zn1 Zn2+ 4 e 0.2547(3) 0.4869(3) 0.7511(1) 1. 0 
O1 O2- 4 e 0.6078(21) 0.1190(19) 0.9111(7) 1. 0 
O2 O2- 4 e 0.1065(17) -.1300(17) 0.9153(6) 1. 0 
O3 O2- 4 e 0.0070(23) 0.2376(17) 0.8072(8) 1. 0 
O4 O2- 4 e 0.5090(23) -.2616(18) 0.8108(8) 1. 0 

loop_
_atom_site_aniso_label
_atom_site_aniso_type_symbol
_atom_site_aniso_U_11
_atom_site_aniso_U_22
_atom_site_aniso_U_33
_atom_site_aniso_U_12
_atom_site_aniso_U_13
_atom_site_aniso_U_23
As1 As3+ 0.0062(6) 0.0105(5) 0.0209(12) -.0008(2) -.0002(3) -.0007(3)
As2 As3+ 0.0042(6) 0.0086(5) 0.0232(12) 0.0004(2) 0.0002(3) 0.0002(3)
Zn1 Zn2+ 0.0072(5) 0.0095(6) 0.0251(18) -.0003(2) 0.0000(2) 0.0003(3)
O1 O2- 0.0128(41) 0.0157(40) 0.0266(69) 0.0002(16) -.0004(20) 0.0008(20)
O2 O2- 0.0022(33) 0.0111(36) 0.0264(65) 0.0007(13) 0.0000(17) 0.0014(18)
O3 O2- 0.0139(46) 0.0062(38) 0.047(10) -.0022(14) -.0019(26) -.0006(19)
O4 O2- 0.0084(45) 0.0145(42) 0.0375(95) -.0010(15) 0.0011(25) 0.0002(19)
#End of data_202249-ICSD


