data_245171-ICSD
#?2014 by Fachinformationszentrum Karlsruhe, and the U.S. Secretary of 
#Commerce on behalf of the United States.  All rights reserved.
_database_code_ICSD                245171
_audit_creation_date               2007/08/01
_chemical_name_systematic
;
Zinc Catena-aluminiumpentafluoride Dihydrate
;
_chemical_formula_structural       'Zn (Al F5) (H2 O)2'
_chemical_formula_sum              'H4 Al1 F5 O2 Zn1'
_chemical_name_mineral             Weberite
_publ_section_title
;
Synthesis and structure of some M(II)/M(III) mixed fluorides with 
pyrochlore and weberite related structures
;
loop_
_citation_id
_citation_journal_abbrev
_citation_year
_citation_journal_volume
_citation_journal_issue
_citation_page_first
_citation_page_last
_citation_journal_id_ASTM
primary 'Zeitschrift fuer Naturforschung, B: Chemical Sciences'
 2006 61 7 808 812 ZNBSEN
_publ_author_name
;
Subramanian, M.A.;Marshall, W.J.;Hoffman, R.D.;Sleight, A.W.
;
_cell_length_a                     7.141(2)
_cell_length_b                     10.307(4)
_cell_length_c                     6.645(2)
_cell_angle_alpha                  90.
_cell_angle_beta                   90.
_cell_angle_gamma                  90.
_cell_volume                       489.09
_cell_formula_units_Z              4
_symmetry_space_group_name_H-M     'I m m a'
_symmetry_Int_Tables_number        74
_refine_ls_R_factor_all            .027
loop_
_symmetry_equiv_pos_site_id
_symmetry_equiv_pos_as_xyz
  1	'-x, y+.5, -z'
  2	'-x, -y+.5, z'
  3	'-x, y, z'
  4	'-x, -y, -z'
  5	'x, -y+.5, z'
  6	'x, y+.5, -z'
  7	'x, -y, -z'
  8	'x, y, z'
  9	'-x+.5, y, -z+.5'
 10	'-x+.5, -y, z+.5'
 11	'-x+.5, y+.5, z+.5'
 12	'-x+.5, -y+.5, -z+.5'
 13	'x+.5, -y, z+.5'
 14	'x+.5, y, -z+.5'
 15	'x+.5, -y+.5, -z+.5'
 16	'x+.5, y+.5, z+.5'
loop_
_atom_type_symbol
_atom_type_oxidation_number
Al3+	3
F1-	-1
H1+	1
O2-	-2
Zn2+	2
loop_
_atom_site_label
_atom_site_type_symbol
_atom_site_symmetry_multiplicity
_atom_site_Wyckoff_symbol
_atom_site_fract_x
_atom_site_fract_y
_atom_site_fract_z
_atom_site_occupancy
_atom_site_attached_hydrogens
_atom_site_B_iso_or_equiv
Al1 Al3+ 4 c 0.25 0.25 0.25 1. 0 0.9(1) 
Zn1 Zn2+ 4 b 0 0.5 0.5 1. 0 1.3(1) 
F1 F1- 16 j 0.2907(3) 0.3731(2) 0.4357(3) 1. 0 1.6(1) 
F2 F1- 4 e 0 0.25 0.1833(6) 1. 0 1.3(1) 
O1 O2- 8 h 0.5 0.5777(5) 0.2160(7) 1. 0 2.6(1) 
H1 H1+ 16 j 0.071(7) 0.093(4) 0.655(7) 1. 0 4(1) 

#End of data_245171-ICSD


