data_26153-ICSD
#?2014 by Fachinformationszentrum Karlsruhe, and the U.S. Secretary of 
#Commerce on behalf of the United States.  All rights reserved.
_database_code_ICSD                26153
_audit_creation_date               1980/01/01
_audit_update_record               2006/04/01
_chemical_name_systematic          'Zinc Chloride - Beta'
_chemical_formula_structural       'Zn Cl2'
_chemical_formula_sum              'Cl2 Zn1'
_publ_section_title
;
Kristallstrukturuntersuchungen an Zn Cl2
;
loop_
_citation_id
_citation_journal_abbrev
_citation_year
_citation_journal_volume
_citation_page_first
_citation_page_last
_citation_journal_id_ASTM
primary
;
Zeitschrift fuer Kristallographie, Kristallgeometrie, Kristallphysik, 
Kristallchemie (-144,1977)
;
 1961 115 373 402 ZEKGAX
2 'Phase Transition' 1992 38 127 220 PHTRDP
_publ_author_name                  'Brehler, B.'
_cell_length_a                     6.5
_cell_length_b                     11.3
_cell_length_c                     12.3
_cell_angle_alpha                  90.
_cell_angle_beta                   90.
_cell_angle_gamma                  90.
_cell_volume                       903.44
_cell_formula_units_Z              12
_symmetry_space_group_name_H-M     'P 1 21/n 1'
_symmetry_Int_Tables_number        14
loop_
_symmetry_equiv_pos_site_id
_symmetry_equiv_pos_as_xyz
  1	'-x+.5, y+.5, -z+.5'
  2	'-x, -y, -z'
  3	'x+.5, -y+.5, z+.5'
  4	'x, y, z'
loop_
_atom_type_symbol
_atom_type_oxidation_number
Cl1-	-1
Zn2+	2
loop_
_atom_site_label
_atom_site_type_symbol
_atom_site_symmetry_multiplicity
_atom_site_Wyckoff_symbol
_atom_site_fract_x
_atom_site_fract_y
_atom_site_fract_z
_atom_site_occupancy
_atom_site_attached_hydrogens
Zn1 Zn2+ 4 e 0.167 0.167 0.063 1. 0 
Zn2 Zn2+ 4 e 0.167 0.5 0.188 1. 0 
Zn3 Zn2+ 4 e 0.667 0.667 0.188 1. 0 
Cl1 Cl1- 4 e 0.333 0 0.125 1. 0 
Cl2 Cl1- 4 e 0.333 0.333 0.125 1. 0 
Cl3 Cl1- 4 e 0.333 0.667 0.125 1. 0 
Cl4 Cl1- 4 e 0.833 0.167 0.125 1. 0 
Cl5 Cl1- 4 e 0.833 0.5 0.125 1. 0 
Cl6 Cl1- 4 e 0.833 0.833 0.125 1. 0 

#End of data_26153-ICSD


