data_404852-ICSD
#?2014 by Fachinformationszentrum Karlsruhe, and the U.S. Secretary of 
#Commerce on behalf of the United States.  All rights reserved.
_database_code_ICSD                404852
_audit_creation_date               1996/10/14
_audit_update_record               2000/07/15
_chemical_name_systematic          'Dicopper Magnesium Bis(vanadate)'
_chemical_formula_structural       'Cu2 Mg (V2 O8)'
_chemical_formula_sum              'Cu2 Mg1 O8 V2'
_publ_section_title
;
Zwei monokline Kupferoxovanadate des Magnesiums mit geordneter 
Metallverteilung: m-Mg2 Cu V2 O8 und Mg Cu2 V2 O8. Ein Beitrag zur 
Dimorphie von Mg2 Cu V2 O8
;
loop_
_citation_id
_citation_journal_abbrev
_citation_year
_citation_journal_volume
_citation_page_first
_citation_page_last
_citation_journal_id_ASTM
primary 'Zeitschrift fuer Naturforschung, B: Chemical Sciences'
 1996 51 817 821 ZNBSEN
_publ_author_name                  'Mueller Buschbaum, H.;Schrandt, O.'
_cell_length_a                     6.453(1)
_cell_length_b                     8.342(2)
_cell_length_c                     11.517(2)
_cell_angle_alpha                  90.
_cell_angle_beta                   90.44(2)
_cell_angle_gamma                  90.
_cell_volume                       619.95
_cell_formula_units_Z              4
_symmetry_space_group_name_H-M     'P 1 21/c 1'
_symmetry_Int_Tables_number        14
_refine_ls_R_factor_all            .1205
loop_
_symmetry_equiv_pos_site_id
_symmetry_equiv_pos_as_xyz
  1	'x, -y+.5, z+.5'
  2	'-x, -y, -z'
  3	'-x, y+.5, -z+.5'
  4	'x, y, z'
loop_
_atom_type_symbol
_atom_type_oxidation_number
Cu2+	2
Mg2+	2
O2-	-2
V5+	5
loop_
_atom_site_label
_atom_site_type_symbol
_atom_site_symmetry_multiplicity
_atom_site_Wyckoff_symbol
_atom_site_fract_x
_atom_site_fract_y
_atom_site_fract_z
_atom_site_occupancy
_atom_site_attached_hydrogens
Cu1 Cu2+ 4 e 0.376060(13) 0.055320(11) 0.622050(8) 1. 0 
Cu2 Cu2+ 4 e 0.762380(14) 0.18624(1) 0.874480(8) 1. 0 
V1 V5+ 4 e 0.60681(2) 0.088200(13) 0.13413(1) 1. 0 
V2 V5+ 4 e 0.10466(2) 0.040880(14) 0.34853(1) 1. 0 
Mg1 Mg2+ 4 e 0.10721(3) 0.16283(2) 0.05188(2) 1. 0 
O1 O2- 4 e -.08245(7) -.10387(6) 0.38204(5) 1. 0 
O2 O2- 4 e 1.03949(8) 0.26631(6) 0.89474(5) 1. 0 
O3 O2- 4 e 0.12825(8) 0.03976(6) 0.20342(4) 1. 0 
O4 O2- 4 e 0.42017(7) 0.21622(6) 0.08504(4) 1. 0 
O5 O2- 4 e 0.51088(7) -.09620(6) 0.14307(4) 1. 0 
O6 O2- 4 e 0.81044(7) 0.07837(6) 0.03100(4) 1. 0 
O7 O2- 4 e 0.68236(8) 0.36537(6) 0.77657(4) 1. 0 
O8 O2- 4 e 0.33651(8) -.01193(6) 0.40836(5) 1. 0 

loop_
_atom_site_aniso_label
_atom_site_aniso_type_symbol
_atom_site_aniso_U_11
_atom_site_aniso_U_22
_atom_site_aniso_U_33
_atom_site_aniso_U_12
_atom_site_aniso_U_13
_atom_site_aniso_U_23
Cu1 Cu2+ 0.00691(3) 0.00881(3) 0.01294(4) 0.00040(3) 0.00129(3) 0.00433(3)
Cu2 Cu2+ 0.00815(3) 0.00748(3) 0.00881(4) -.00255(3) -.00264(3) 0.00446(3)
V1 V5+ 0.00595(4) 0.00539(4) 0.00099(4) 0.00007(4) 0.00045(3) -.00032(4)
V2 V5+ 0.00595(4) 0.00503(4) 0.00396(4) 0.00085(4) 0.00040(4) 0.00021(4)
Mg1 Mg2+ 0.02176(8) 0.02149(8) 0.02130(8) -.00115(6) -.00174(7) 0.00163(7)
O1 O2- 0.0078(2) 0.0122(2) 0.0161(3) -.0014(2) 0.0019(2) 0.0019(2)
O2 O2- 0.0075(2) 0.0088(2) 0.0125(2) -.0046(2) -.0025(2) 0.0051(2)
O3 O2- 0.0154(2) 0.0092(2) 0.0028(2) -.0009(2) 0.0021(2) -.0017(2)
O4 O2- 0.0099(2) 0.0054(2) 0.0036(2) 0.0017(2) 0.0015(2) 0.0036(2)
O5 O2- 0.0108(2) 0.0138(2) 0.0059(2) -.0012(2) 0.0022(2) 0.0007(2)
O6 O2- 0.0067(2) 0.0142(2) 0.0039(2) -.0010(2) 0.0016(2) 0.0011(2)
O7 O2- 0.0154(2) 0.0055(2) 0.0052(2) 0.0008(2) -.0031(2) -.0004(2)
O8 O2- 0.0073(2) 0.0137(2) 0.0118(2) 0.0039(2) -.0019(2) -.0015(2)
#End of data_404852-ICSD


