data_200110-ICSD
#?2014 by Fachinformationszentrum Karlsruhe, and the U.S. Secretary of 
#Commerce on behalf of the United States.  All rights reserved.
_database_code_ICSD                200110
_audit_creation_date               1980/01/01
_audit_update_record               1999/01/19
_chemical_name_systematic          'Silver Tribismuth Sulfide'
_chemical_formula_structural       'Ag Bi3 S5'
_chemical_formula_sum              'Ag1 Bi3 S5'
_chemical_name_mineral             'Pavonite 4P'
_publ_section_title
;
The crystal structure of synthetic pavonite Ag Bi3 S5, and the 
definition of the pavonite homologous series
;
loop_
_citation_id
_citation_journal_abbrev
_citation_year
_citation_journal_volume
_citation_page_first
_citation_page_last
_citation_journal_id_ASTM
primary 'Canadian Mineralogist' 1977 15 339 348 CAMIA6
_publ_author_name
;
Makovicky, E.;Mumme, W.G.;Watts, J.A.
;
_cell_length_a                     13.305(2)
_cell_length_b                     4.042(1)
_cell_length_c                     16.4169(20)
_cell_angle_alpha                  90.
_cell_angle_beta                   94.02(1)
_cell_angle_gamma                  90.
_cell_volume                       880.71
_cell_formula_units_Z              4
_symmetry_space_group_name_H-M     'C 1 2/m 1'
_symmetry_Int_Tables_number        12
_refine_ls_R_factor_all            .11
loop_
_symmetry_equiv_pos_site_id
_symmetry_equiv_pos_as_xyz
  1	'-x, y, -z'
  2	'-x, -y, -z'
  3	'x, -y, z'
  4	'x, y, z'
  5	'-x+.5, y+.5, -z'
  6	'-x+.5, -y+.5, -z'
  7	'x+.5, -y+.5, z'
  8	'x+.5, y+.5, z'
loop_
_atom_type_symbol
_atom_type_oxidation_number
Ag1+	1
Bi3+	3
S2-	-2
loop_
_atom_site_label
_atom_site_type_symbol
_atom_site_symmetry_multiplicity
_atom_site_Wyckoff_symbol
_atom_site_fract_x
_atom_site_fract_y
_atom_site_fract_z
_atom_site_occupancy
_atom_site_attached_hydrogens
_atom_site_B_iso_or_equiv
Bi1 Bi3+ 4 i 0.2369(6) 0.5 0.1110(4) 1. 0 1.85(15) 
Bi2 Bi3+ 4 i 0.4722(6) 0 0.2169(4) 1. 0 2.07(17) 
Bi3 Bi3+ 4 i 0.2192(5) 0 0.3891(5) 1. 0 2.17(17) 
Ag1 Ag1+ 2 a 0 0 0 1. 0 2.51(44) 
Ag2 Ag1+ 2 d 0 0.5 0.5 1. 0 2.43(43) 
S1 S2- 4 i 0.3688(32) 0 0.0534(26) 1. 0 1.2(8) 
S2 S2- 4 i 0.0979(38) 0 0.1479(30) 1. 0 2.2(1) 
S3 S2- 4 i 0.3386(30) 0.5 0.2612(24) 1. 0 0.99(75) 
S4 S2- 4 i 0.0772(33) 0.5 0.3603(26) 1. 0 1.38(82) 
S5 S2- 4 i 0.3439(33) 0.5 0.4664(27) 1. 0 1.5(9) 

#End of data_200110-ICSD


