data_421341-ICSD
#?2014 by Fachinformationszentrum Karlsruhe, and the U.S. Secretary of 
#Commerce on behalf of the United States.  All rights reserved.
_database_code_ICSD                421341
_audit_creation_date               2010/08/01
_chemical_name_systematic          'Silver(II) Sulfate'
_chemical_formula_structural       'Ag (S O4)'
_chemical_formula_sum              'Ag1 O4 S1'
_publ_section_title
;
Ag S O4: A genuine sulfate of divalent silver with anomalously strong 
one-dimensional antiferromagnetic interactions
;
loop_
_citation_id
_citation_journal_abbrev
_citation_year
_citation_journal_volume
_citation_journal_issue
_citation_page_first
_citation_page_last
_citation_journal_id_ASTM
primary 'Angewandte Chemie. International Edition' 2010 49 9 1683 1686 ACIEF5
_publ_author_name
;
Malinowski, P.J.;Derzsi, M.;Mazej, Z.;Jaglicic, Z.;Gawel, B.;Lasocha, 
W.;Grochala, W.
;
_cell_length_a                     4.6923(1)
_cell_length_b                     4.7535(1)
_cell_length_c                     8.0125(2)
_cell_angle_alpha                  103.403(1)
_cell_angle_beta                   76.478(1)
_cell_angle_gamma                  118.078(1)
_cell_volume                       151.76
_cell_formula_units_Z              2
_symmetry_space_group_name_H-M     'P -1'
_symmetry_Int_Tables_number        2
_refine_ls_R_factor_all            .0612
loop_
_symmetry_equiv_pos_site_id
_symmetry_equiv_pos_as_xyz
  1	'-x, -y, -z'
  2	'x, y, z'
loop_
_atom_type_symbol
_atom_type_oxidation_number
Ag2+	2
O2-	-2
S6+	6
loop_
_atom_site_label
_atom_site_type_symbol
_atom_site_symmetry_multiplicity
_atom_site_Wyckoff_symbol
_atom_site_fract_x
_atom_site_fract_y
_atom_site_fract_z
_atom_site_occupancy
_atom_site_attached_hydrogens
_atom_site_U_iso_or_equiv
Ag1 Ag2+ 1 a 0 0 0 1 0 0.0259(12) 
Ag2 Ag2+ 1 h 0.5 -0.5 0.5 1 0 0.0203(10) 
S1 S6+ 2 i 0.1593(9) -0.3276(11) 0.2508(6) 1 0 0.0240(16) 
O1 O2- 2 i -0.0787(17) -0.6544(16) 0.1980(12) 1 0 0.032(5) 
O2 O2- 2 i 0.4286(19) -0.337(2) 0.2989(9) 1 0 0.024(5) 
O3 O2- 2 i 0.2749(19) -0.142(3) 0.1072(11) 1 0 0.0169(14) 
O4 O2- 2 i 0.0017(13) -0.1713(14) 0.4029(11) 1 0 0.020(5) 

#End of data_421341-ICSD


