data_187944-ICSD
#?2014 by Fachinformationszentrum Karlsruhe, and the U.S. Secretary of 
#Commerce on behalf of the United States.  All rights reserved.
_database_code_ICSD                187944
_audit_creation_date               2013/08/01
_chemical_name_systematic          'Lithium Chromium Disilicate'
_chemical_formula_structural       'Li Cr (Si2 O6)'
_chemical_formula_sum              'Cr1 Li1 O6 Si2'
_chemical_name_mineral             'Clinopyroxene - (Li,Cr)'
_publ_section_title
;
High-pressure X-ray study of Li Cr Si2 O6 clinopyroxene and the 
general compressibility trends for Li - clinopyroxenes
;
loop_
_citation_id
_citation_journal_abbrev
_citation_year
_citation_journal_volume
_citation_journal_issue
_citation_page_first
_citation_page_last
_citation_journal_id_ASTM
primary 'Physics and Chemistry of Minerals' 2013 40 5 387 399 PCMIDU
_publ_author_name
;
Periotto, Benedetta;Angel, Ross J.;Nestola, Fabrizio;Balic-Zunic, 
Tonci;Fontana, Cinzia;Pasqual, Daria;Alvaro, Matteo;Redhammer, 
Guenther J.
;
_cell_length_a                     9.3386(2)
_cell_length_b                     8.4203(2)
_cell_length_c                     5.1021(1)
_cell_angle_alpha                  90.
_cell_angle_beta                   109.065(2)
_cell_angle_gamma                  90.
_cell_volume                       379.19
_cell_formula_units_Z              4
_symmetry_space_group_name_H-M     'P 1 21/c 1'
_symmetry_Int_Tables_number        14
_refine_ls_R_factor_all            .0702
loop_
_symmetry_equiv_pos_site_id
_symmetry_equiv_pos_as_xyz
  1	'x, -y+.5, z+.5'
  2	'-x, -y, -z'
  3	'-x, y+.5, -z+.5'
  4	'x, y, z'
loop_
_atom_type_symbol
_atom_type_oxidation_number
Cr3+	3
Li1+	1
O2-	-2
Si4+	4
loop_
_atom_site_label
_atom_site_type_symbol
_atom_site_symmetry_multiplicity
_atom_site_Wyckoff_symbol
_atom_site_fract_x
_atom_site_fract_y
_atom_site_fract_z
_atom_site_occupancy
_atom_site_attached_hydrogens
_atom_site_U_iso_or_equiv
Li1 Li1+ 4 e 0.2528(16) 0.020(2) 0.219(2) 1 0 0.008(3) 
Cr1 Cr3+ 4 e 0.25088(15) 0.65815(19) 0.2196(2) 1 0 0.0034(5) 
Si1 Si4+ 4 e 0.0494(3) 0.3424(3) 0.2850(4) 1 0 0.0039(6) 
Si2 Si4+ 4 e 0.5559(3) 0.8400(3) 0.2365(4) 1 0 0.0031(6) 
O1 O2- 4 e 0.8657(7) 0.3341(7) 0.1783(10) 1 0 0.0037(12) 
O2 O2- 4 e 0.1151(7) 0.5160(8) 0.3002(10) 1 0 0.0059(13) 
O3 O2- 4 e 0.1131(7) 0.2761(8) 0.6022(10) 1 0 0.0050(13) 
O4 O2- 4 e 0.3717(7) 0.8329(7) 0.1196(10) 1 0 0.0043(12) 
O5 O2- 4 e 0.6278(7) 0.0030(8) 0.3759(10) 1 0 0.0072(13) 
O6 O2- 4 e 0.6112(7) 0.7004(8) 0.4724(9) 1 0 0.0041(12) 

#End of data_187944-ICSD


