data_61341-ICSD
#?2014 by Fachinformationszentrum Karlsruhe, and the U.S. Secretary of 
#Commerce on behalf of the United States.  All rights reserved.
_database_code_ICSD                61341
_audit_creation_date               1987/03/16
_chemical_name_systematic          'Zinc Selenite'
_chemical_formula_structural       'Zn Se O3'
_chemical_formula_sum              'O3 Se1 Zn1'
_publ_section_title
;
Structures of zinc selenite and copper selenite
;
loop_
_citation_id
_citation_journal_abbrev
_citation_year
_citation_journal_volume
_citation_page_first
_citation_page_last
_citation_journal_id_ASTM
primary 'Acta Crystallographica, Section C: Crystal Structure Communications'
 1986 42 1285 1287 ACSCEE
_publ_author_name
;
Hawthorne, F.C.;Ercit, T.S.;Groat, L.A.
;
_cell_length_a                     6.233(1)
_cell_length_b                     7.200(2)
_cell_length_c                     11.987(3)
_cell_angle_alpha                  90.
_cell_angle_beta                   90.
_cell_angle_gamma                  90.
_cell_volume                       537.95
_cell_formula_units_Z              8
_symmetry_space_group_name_H-M     'P c a b'
_symmetry_Int_Tables_number        61
_refine_ls_R_factor_all            .035
loop_
_symmetry_equiv_pos_site_id
_symmetry_equiv_pos_as_xyz
  1	'x+.5, -y+.5, z'
  2	'x, y+.5, -z+.5'
  3	'-x+.5, y, z+.5'
  4	'-x, -y, -z'
  5	'-x+.5, y+.5, -z'
  6	'-x, -y+.5, z+.5'
  7	'x+.5, -y, -z+.5'
  8	'x, y, z'
loop_
_atom_type_symbol
_atom_type_oxidation_number
O2-	-2
Se4+	4
Zn2+	2
loop_
_atom_site_label
_atom_site_type_symbol
_atom_site_symmetry_multiplicity
_atom_site_Wyckoff_symbol
_atom_site_fract_x
_atom_site_fract_y
_atom_site_fract_z
_atom_site_occupancy
_atom_site_attached_hydrogens
Zn1 Zn2+ 8 c 0.1353(2) 0.6076(1) 0.4045(1) 1. 0 
Se1 Se4+ 8 c 0.1119(1) 0.0445(1) 0.3575(1) 1. 0 
O1 O2- 8 c 0.2007(9) -.0343(8) 0.2328(5) 1. 0 
O2 O2- 8 c 0.3394(10) 0.0311(8) 0.4342(6) 1. 0 
O3 O2- 8 c -.0162(9) -.1517(7) 0.4071(5) 1. 0 

loop_
_atom_site_aniso_label
_atom_site_aniso_type_symbol
_atom_site_aniso_U_11
_atom_site_aniso_U_22
_atom_site_aniso_U_33
_atom_site_aniso_U_12
_atom_site_aniso_U_13
_atom_site_aniso_U_23
Zn1 Zn2+ 0.0100(4) 0.0122(4) 0.0093(4) 0.0017(3) 0.0004(3) 0.0002(3)
Se1 Se4+ 0.0068(3) 0.0093(3) 0.0085(3) 0.0000(3) -.0009(3) 0.0010(2)
O1 O2- 0.0146(27) 0.0169(27) 0.0098(27) 0.0008(23) -.0010(22) -.0024(22)
O2 O2- 0.0082(25) 0.0218(28) 0.0208(30) -.0032(22) -.0050(24) 0.0044(24)
O3 O2- 0.0066(23) 0.0095(23) 0.0168(31) 0.0008(19) 0.0015(22) 0.0064(21)
#End of data_61341-ICSD


