data_422839-ICSD
#?2014 by Fachinformationszentrum Karlsruhe, and the U.S. Secretary of 
#Commerce on behalf of the United States.  All rights reserved.
_database_code_ICSD                422839
_audit_creation_date               2012/02/01
_chemical_name_systematic
;
Zinc Zirconium Silver Fluoride (1/2/2/14)
;
_chemical_formula_structural       'Zn Zr2 (Ag2 F7) F7'
_chemical_formula_sum              'Ag2 F14 Zn1 Zr2'
_publ_section_title
;
Dimers of Ag2+ ions - synthesis and characterization of the 
quaternary silver fluoride Ag2 Zn Zr2 F14 with [Ag2 F7]3- units
;
loop_
_citation_id
_citation_journal_abbrev
_citation_year
_citation_journal_volume
_citation_journal_issue
_citation_page_first
_citation_page_last
_citation_journal_id_ASTM
primary 'Zeitschrift fuer Anorganische und Allgemeine Chemie (1950) (DE)'
 2011 637 9 1118 1121 ZAACAB
_publ_author_name
;
Tong Jianwei;Kraus, F.;Koehler, J.;Simon, A.;Liu Jia;Whangbo 
Myunghwan
;
_cell_length_a                     9.02060(13)
_cell_length_b                     6.637262(74)
_cell_length_c                     9.05627(11)
_cell_angle_alpha                  90
_cell_angle_beta                   90.44581(87)
_cell_angle_gamma                  90
_cell_volume                       542.2
_cell_formula_units_Z              2
_symmetry_space_group_name_H-M     'C 1 2/m 1'
_symmetry_Int_Tables_number        12
_refine_ls_R_factor_all            .0698
loop_
_symmetry_equiv_pos_site_id
_symmetry_equiv_pos_as_xyz
  1	'-x, y, -z'
  2	'-x, -y, -z'
  3	'x, -y, z'
  4	'x, y, z'
  5	'-x+.5, y+.5, -z'
  6	'-x+.5, -y+.5, -z'
  7	'x+.5, -y+.5, z'
  8	'x+.5, y+.5, z'
loop_
_atom_type_symbol
_atom_type_oxidation_number
Ag2+	2
F1-	-1
Zn2+	2
Zr4+	4
loop_
_atom_site_label
_atom_site_type_symbol
_atom_site_symmetry_multiplicity
_atom_site_Wyckoff_symbol
_atom_site_fract_x
_atom_site_fract_y
_atom_site_fract_z
_atom_site_occupancy
_atom_site_attached_hydrogens
_atom_site_B_iso_or_equiv
Ag1 Ag2+ 4 i 0.30500(35) 0 0.60738(27) 1 0 0.203(36) 
Zn1 Zn2+ 2 b 0 0.5 0 1 0 0.203(36) 
Zr1 Zr4+ 4 i 0.10435(41) 0 0.20819(33) 1 0 0.203(36) 
F1 F1- 8 j 0.0821(12) 0.2979(15) 0.1463(11) 1 0 1 
F2 F1- 8 j 0.1765(14) 0.1759(12) 0.3817(12) 1 0 1 
F3 F1- 4 i 0.0938(23) 0 0.7118(17) 1 0 1 
F4 F1- 4 i 0.3240(17) 0 0.1236(15) 1 0 1 
F5 F1- 2 d 0 0.5 0.5 1 0 1 
F6 F1- 2 a 0 0 0 1 0 1 

#End of data_422839-ICSD


