data_172510-ICSD
#?2014 by Fachinformationszentrum Karlsruhe, and the U.S. Secretary of 
#Commerce on behalf of the United States.  All rights reserved.
_database_code_ICSD                172510
_audit_creation_date               2007/04/01
_audit_update_record               2008/02/01
_chemical_name_systematic
;
Potassium Lutetium Bis(tungstate(VI))
;
_chemical_formula_structural       'K Lu (W O4)2'
_chemical_formula_sum              'K1 Lu1 O8 W2'
_publ_section_title
;
Structural redetermination, thermal expansion and refractive indices 
of K Lu (W O4)2
;
loop_
_citation_id
_citation_journal_abbrev
_citation_year
_citation_journal_volume
_citation_page_first
_citation_page_last
_citation_journal_id_ASTM
primary 'Journal of Applied Crystallography' 2006 39 230 236 JACGAR
_publ_author_name
;
Pujol, M.C.;Mateos, X.;Aznar, A.;Solans, X.;Surinach, S.;Massons, 
J.;Diaz, F.;Aguilo, M.
;
_cell_length_a                     10.576(7)
_cell_length_b                     10.214(7)
_cell_length_c                     7.487(2)
_cell_angle_alpha                  90.00
_cell_angle_beta                   130.68(4)
_cell_angle_gamma                  90.00
_cell_volume                       613.34
_cell_formula_units_Z              4
_symmetry_space_group_name_H-M     'C 1 2/c 1'
_symmetry_Int_Tables_number        15
_refine_ls_R_factor_all            .047
loop_
_symmetry_equiv_pos_site_id
_symmetry_equiv_pos_as_xyz
  1	'x, -y, z+.5'
  2	'-x, -y, -z'
  3	'-x, y, -z+.5'
  4	'x, y, z'
  5	'x+.5, -y+.5, z+.5'
  6	'-x+.5, -y+.5, -z'
  7	'-x+.5, y+.5, -z+.5'
  8	'x+.5, y+.5, z'
loop_
_atom_type_symbol
_atom_type_oxidation_number
K1+	1
Lu3+	3
O2-	-2
W6+	6
loop_
_atom_site_label
_atom_site_type_symbol
_atom_site_symmetry_multiplicity
_atom_site_Wyckoff_symbol
_atom_site_fract_x
_atom_site_fract_y
_atom_site_fract_z
_atom_site_occupancy
_atom_site_attached_hydrogens
_atom_site_U_iso_or_equiv
W1 W6+ 8 f 0.19691(3) 0.00005(2) 0.73532(5) 1 0 0.01801(16) 
Lu1 Lu3+ 4 e 0.0000 0.72841(3) 0.2500 1 0 0.01989(19) 
K1 K1+ 4 e 0.5000 0.2027(3) 0.7500 1 0 0.0249(6) 
O1 O2- 8 f 0.3768(7) -0.0828(7) 0.8121(13) 1 0 0.0462(16) 
O2 O2- 8 f 0.0239(7) -0.1070(6) 0.4722(11) 1 0 0.0334(12) 
O3 O2- 8 f 0.2835(7) 0.1522(6) 0.8784(13) 1 0 0.0418(16) 
O4 O2- 8 f 0.2003(6) -0.0749(8) 0.9536(12) 1 0 0.0402(14) 

loop_
_atom_site_aniso_label
_atom_site_aniso_type_symbol
_atom_site_aniso_U_11
_atom_site_aniso_U_22
_atom_site_aniso_U_33
_atom_site_aniso_U_12
_atom_site_aniso_U_13
_atom_site_aniso_U_23
W1 W6+ 0.01930(19) 0.0183(2) 0.0168(3) -0.00007(7) 0.0119(2) -0.00015(10)
Lu1 Lu3+ 0.0213(2) 0.0194(2) 0.0196(3) 0.000 0.0136(2) 0.000
K1 K1+ 0.0237(8) 0.0325(8) 0.0218(15) 0.000 0.0162(9) 0.000
O1 O2- 0.040(2) 0.049(3) 0.053(4) -0.004(3) 0.032(3) 0.003(4)
O2 O2- 0.041(2) 0.031(2) 0.032(3) -0.004(2) 0.026(2) -0.002(3)
O3 O2- 0.042(2) 0.040(3) 0.039(4) 0.002(3) 0.025(2) 0.005(4)
O4 O2- 0.043(2) 0.041(3) 0.033(3) 0.003(3) 0.023(3) 0.000(4)
#End of data_172510-ICSD


