data_82355-ICSD
#?2014 by Fachinformationszentrum Karlsruhe, and the U.S. Secretary of 
#Commerce on behalf of the United States.  All rights reserved.
_database_code_ICSD                82355
_audit_creation_date               1997/11/10
_audit_update_record               2002/04/01
_chemical_name_systematic          'Trisodium Yttrium Bromide'
_chemical_formula_structural       'Na3 Y Br6'
_chemical_formula_sum              'Br6 Na3 Y1'
_publ_section_title
;
Ternaere Halogenide vom Typ A3 M X6.III. Synthese, Strukturen und 
Ionenleitfaehigkeit der Halogenide Na3 M X6 (X = Cl, Br)
;
loop_
_citation_id
_citation_journal_abbrev
_citation_year
_citation_journal_volume
_citation_page_first
_citation_page_last
_citation_journal_id_ASTM
primary 'Zeitschrift fuer Anorganische und Allgemeine Chemie (1950) (DE)'
 1995 621 457 463 ZAACAB
_publ_author_name                  'Wickleder, M.S.;Meyer, G.'
_cell_length_a                     7.213(4)
_cell_length_b                     7.699(2)
_cell_length_c                     10.748(4)
_cell_angle_alpha                  90.
_cell_angle_beta                   90.60(4)
_cell_angle_gamma                  90.
_cell_volume                       596.83
_cell_formula_units_Z              2
_symmetry_space_group_name_H-M     'P 1 21/n 1'
_symmetry_Int_Tables_number        14
_refine_ls_R_factor_all            .052
loop_
_symmetry_equiv_pos_site_id
_symmetry_equiv_pos_as_xyz
  1	'-x+.5, y+.5, -z+.5'
  2	'-x, -y, -z'
  3	'x+.5, -y+.5, z+.5'
  4	'x, y, z'
loop_
_atom_type_symbol
_atom_type_oxidation_number
Br1-	-1
Na1+	1
Y3+	3
loop_
_atom_site_label
_atom_site_type_symbol
_atom_site_symmetry_multiplicity
_atom_site_Wyckoff_symbol
_atom_site_fract_x
_atom_site_fract_y
_atom_site_fract_z
_atom_site_occupancy
_atom_site_attached_hydrogens
_atom_site_U_iso_or_equiv
Y1 Y3+ 2 a 0 0 0 1. 0 0.025(1) 
Na1 Na1+ 2 b 0.5 0.5 0 1. 0 0.046(2) 
Na2 Na1+ 4 e 0.5277(11) 0.9150(9) 0.2335(8) 1. 0 0.068(2) 
Br1 Br1- 4 e 0.1657(2) 0.3082(2) 0.9234(2) 1. 0 0.043(1) 
Br2 Br1- 4 e 0.1408(2) 0.0604(2) 0.2401(2) 1. 0 0.037(1) 
Br3 Br1- 4 e 0.3175(2) 0.8217(2) 0.9336(2) 1. 0 0.043(1) 

#End of data_82355-ICSD


