data_87928-ICSD
#?2014 by Fachinformationszentrum Karlsruhe, and the U.S. Secretary of 
#Commerce on behalf of the United States.  All rights reserved.
_database_code_ICSD                87928
_audit_creation_date               2001/07/16
_chemical_name_systematic          'Calcium Tin(IV) Oxide Silicate'
_chemical_formula_structural       'Ca Sn O (Si O4)'
_chemical_formula_sum              'Ca1 O5 Si1 Sn1'
_chemical_name_mineral             Malayaite
_publ_section_title
;
Natural titanite and malayaite: structural investigations and the 500 
K anomaly
;
loop_
_citation_id
_citation_journal_abbrev
_citation_year
_citation_journal_volume
_citation_page_first
_citation_page_last
_citation_journal_id_ASTM
primary 'Phase Transition' 1998 67 27 49 PHTRDP
_publ_author_name
;
Meyer, H.W.;Bismayer, U.;Adiwidjaja, G.;Zhang, M.;Nistor, L.;van 
Tendeloo, G.
;
_cell_length_a                     7.156(1)
_cell_length_b                     8.875(1)
_cell_length_c                     6.660(1)
_cell_angle_alpha                  90.
_cell_angle_beta                   113.38(1)
_cell_angle_gamma                  90.
_cell_volume                       388.24
_cell_formula_units_Z              4
_symmetry_space_group_name_H-M     'A 1 2/a 1'
_symmetry_Int_Tables_number        15
_refine_ls_R_factor_all            .021
loop_
_symmetry_equiv_pos_site_id
_symmetry_equiv_pos_as_xyz
  1	'-x+.5, y, -z'
  2	'-x, -y, -z'
  3	'x+.5, -y, z'
  4	'x, y, z'
  5	'-x+.5, y+.5, -z+.5'
  6	'-x, -y+.5, -z+.5'
  7	'x+.5, -y+.5, z+.5'
  8	'x, y+.5, z+.5'
loop_
_atom_type_symbol
_atom_type_oxidation_number
Ca2+	2
O2-	-2
Si4+	4
Sn4+	4
loop_
_atom_site_label
_atom_site_type_symbol
_atom_site_symmetry_multiplicity
_atom_site_Wyckoff_symbol
_atom_site_fract_x
_atom_site_fract_y
_atom_site_fract_z
_atom_site_occupancy
_atom_site_attached_hydrogens
Ca1 Ca2+ 4 e 0.25 0.66268(8) 0.5 1. 0 
Sn1 Sn4+ 4 b 0.5 0.5 0 1. 0 
Si1 Si4+ 4 e 0.75 0.6819(1) 0.5 1. 0 
O1 O2- 4 e 0.75 0.5869(1) 0 1. 0 
O2 O2- 8 f 0.9132(1) 0.5678(1) 0.6751(1) 1. 0 
O3 O2- 8 f 0.3718(1) 0.71225(9) 0.8810(1) 1. 0 

loop_
_atom_site_aniso_label
_atom_site_aniso_type_symbol
_atom_site_aniso_U_11
_atom_site_aniso_U_22
_atom_site_aniso_U_33
_atom_site_aniso_U_12
_atom_site_aniso_U_13
_atom_site_aniso_U_23
Ca1 Ca2+ 0.0343(2) 0.0051(2) 0.0069(2) 0 -.0013(2) 0
Sn1 Sn4+ 0.0038(1) 0.0051(1) 0.0035(1) -.00011(2) 0.00129(8) 0.00004(2)
Si1 Si4+ 0.0055(2) 0.0051(3) 0.0041(2) 0 0.0016(2) 0
O1 O2- 0.0045(4) 0.0068(4) 0.0130(5) 0 0.0046(3) 0
O2 O2- 0.0088(3) 0.0085(3) 0.0053(3) 0.0016(2) 0.0019(2) 0.0027(2)
O3 O2- 0.0086(3) 0.0063(3) 0.0071(3) 0.0005(2) 0.0048(2) 0.0023(2)
#End of data_87928-ICSD


