data_9008-ICSD
#?2014 by Fachinformationszentrum Karlsruhe, and the U.S. Secretary of 
#Commerce on behalf of the United States.  All rights reserved.
_database_code_ICSD                9008
_audit_creation_date               1980/01/01
_audit_update_record               2006/04/01
_chemical_name_systematic          'Sodium Trifluoroniccolate'
_chemical_formula_structural       'Na (Ni F3)'
_chemical_formula_sum              'F3 Na1 Ni1'
_publ_section_title
;
Distorsioni cristallografiche nelle strutture A B F3. Nota II. 
Strutture cristallina dei fluoruri doppi di sodio-cobalto Na Co F3 e 
sodio-nichel Na Ni F3
;
loop_
_citation_id
_citation_journal_abbrev
_citation_year
_citation_journal_volume
_citation_page_first
_citation_page_last
_citation_journal_id_ASTM
primary 'Ricerca Scientifica' 1969 39 370 385 RISCAZ
_publ_author_name                  'Pompa, F.;Siciliano, F.'
_cell_length_a                     5.529
_cell_length_b                     7.695
_cell_length_c                     5.369
_cell_angle_alpha                  90.
_cell_angle_beta                   90.
_cell_angle_gamma                  90.
_cell_volume                       228.43
_cell_formula_units_Z              4
_symmetry_space_group_name_H-M     'P n m a'
_symmetry_Int_Tables_number        62
_refine_ls_R_factor_all            .059
loop_
_symmetry_equiv_pos_site_id
_symmetry_equiv_pos_as_xyz
  1	'x+.5, y, -z+.5'
  2	'x, -y+.5, z'
  3	'-x+.5, y+.5, z+.5'
  4	'-x, -y, -z'
  5	'-x+.5, -y, z+.5'
  6	'-x, y+.5, -z'
  7	'x+.5, -y+.5, -z+.5'
  8	'x, y, z'
loop_
_atom_type_symbol
_atom_type_oxidation_number
F1-	-1
Na1+	1
Ni2+	2
loop_
_atom_site_label
_atom_site_type_symbol
_atom_site_symmetry_multiplicity
_atom_site_Wyckoff_symbol
_atom_site_fract_x
_atom_site_fract_y
_atom_site_fract_z
_atom_site_occupancy
_atom_site_attached_hydrogens
_atom_site_B_iso_or_equiv
Na1 Na1+ 4 c 0.0525 0.25 -.0163 1. 0 2.31 
Ni1 Ni2+ 4 b 0.5 0.5 0 1. 0 0.4 
F1 F1- 4 c 0.4706 0.25 0.0997 1. 0 1.07 
F2 F1- 8 d 0.2019 0.5484 0.1931 1. 0 2.22 

#End of data_9008-ICSD


