data_164554-ICSD
#?2014 by Fachinformationszentrum Karlsruhe, and the U.S. Secretary of 
#Commerce on behalf of the United States.  All rights reserved.
_database_code_ICSD                164554
_audit_creation_date               2010/02/01
_audit_update_record               2013/02/01
_chemical_name_systematic          'Distrontium Calcium Tungstate'
_chemical_formula_structural       'Sr2 Ca (W O6)'
_chemical_formula_sum              'Ca1 O6 Sr2 W1'
_publ_section_title
;
Crystal structures and phase transitions of the double-perovskite 
oxides Sr2 Ca W O6 and Sr2 Mg W O6
;
loop_
_citation_id
_citation_journal_abbrev
_citation_year
_citation_journal_volume
_citation_page_first
_citation_page_last
_citation_journal_id_ASTM
primary 'Journal of Physics: Condensed Matter' 2004 16 6639 6649 JCOMEL
_publ_author_name                  'Gateshki, M.;Igartua, J.M.'
_cell_length_a                     5.7672(1)
_cell_length_b                     5.8506(1)
_cell_length_c                     8.1931(1)
_cell_angle_alpha                  90.
_cell_angle_beta                   90.165(1)
_cell_angle_gamma                  90.
_cell_volume                       276.45
_cell_formula_units_Z              2
_symmetry_space_group_name_H-M     'P 1 21/n 1'
_symmetry_Int_Tables_number        14
_refine_ls_R_factor_all            .0881
loop_
_symmetry_equiv_pos_site_id
_symmetry_equiv_pos_as_xyz
  1	'-x+.5, y+.5, -z+.5'
  2	'-x, -y, -z'
  3	'x+.5, -y+.5, z+.5'
  4	'x, y, z'
loop_
_atom_type_symbol
_atom_type_oxidation_number
Ca2+	2
O2-	-2
Sr2+	2
W6+	6
loop_
_atom_site_label
_atom_site_type_symbol
_atom_site_symmetry_multiplicity
_atom_site_Wyckoff_symbol
_atom_site_fract_x
_atom_site_fract_y
_atom_site_fract_z
_atom_site_occupancy
_atom_site_attached_hydrogens
_atom_site_B_iso_or_equiv
W1 W6+ 2 a 0 0 0 1. 0 0.10(2) 
Ca1 Ca2+ 2 b 0 0 0.5 1. 0 0.12(6) 
Sr1 Sr2+ 4 e 0.0094(3) 0.5370(2) 0.2509(2) 1. 0 0.46(3) 
O1 O2- 4 e 0.071(2) 0.025(1) -0.222(1) 1. 0 0.3(1) 
O2 O2- 4 e 0.262(2) -0.177(2) 0.046(2) 1. 0 0.3(1) 
O3 O2- 4 e 0.185(2) 0.263(1) 0.050(1) 1. 0 0.3(1) 

#End of data_164554-ICSD


