data_16495-ICSD
#?2014 by Fachinformationszentrum Karlsruhe, and the U.S. Secretary of 
#Commerce on behalf of the United States.  All rights reserved.
_database_code_ICSD                16495
_audit_creation_date               1980/01/01
_audit_update_record               1999/01/19
_chemical_name_systematic          'Dicalcium Disodium Carbonate'
_chemical_formula_structural       'Ca2 Na2 (C O3)3'
_chemical_formula_sum              'C3 Ca2 Na2 O9'
_chemical_name_mineral             Shortite
_publ_section_title
;
Crystal structure of Ca2 Na2 (C O3)3
;
loop_
_citation_id
_citation_journal_abbrev
_citation_year
_citation_journal_volume
_citation_page_first
_citation_page_last
_citation_journal_id_ASTM
primary
;
Journal of Research of the National Bureau of Standards, Section A. 
Physics and Chemistry
;
 1971 75 129 135 JNBAAR
_publ_author_name                  'Dickens, B.;Hyman, A.;Brown, W.E.'
_cell_length_a                     4.947(1)
_cell_length_b                     11.032(2)
_cell_length_c                     7.108(1)
_cell_angle_alpha                  90.
_cell_angle_beta                   90.
_cell_angle_gamma                  90.
_cell_volume                       387.92
_cell_formula_units_Z              2
_symmetry_space_group_name_H-M     'A m m 2'
_symmetry_Int_Tables_number        38
_refine_ls_R_factor_all            .02
loop_
_symmetry_equiv_pos_site_id
_symmetry_equiv_pos_as_xyz
  1	'x, -y, z'
  2	'-x, y, z'
  3	'-x, -y, z'
  4	'x, y, z'
  5	'x, -y+.5, z+.5'
  6	'-x, y+.5, z+.5'
  7	'-x, -y+.5, z+.5'
  8	'x, y+.5, z+.5'
loop_
_atom_type_symbol
_atom_type_oxidation_number
C4+	4
Ca2+	2
Na1+	1
O2-	-2
loop_
_atom_site_label
_atom_site_type_symbol
_atom_site_symmetry_multiplicity
_atom_site_Wyckoff_symbol
_atom_site_fract_x
_atom_site_fract_y
_atom_site_fract_z
_atom_site_occupancy
_atom_site_attached_hydrogens
Ca1 Ca2+ 4 e 0.5 0.21659(4) 0 1. 0 
Na1 Na1+ 2 a 0 0 0.9263(3) 1. 0 
Na2 Na1+ 2 b 0.5 0 0.6122(3) 1. 0 
C1 C4+ 4 d 0 0.2961(2) 0.1697(3) 1. 0 
O1 O2- 4 d 0 0.1985(2) 0.0742(3) 1. 0 
O2 O2- 8 f 0.2261(3) 0.3456(1) 0.2152(2) 1. 0 
C2 C4+ 2 b 0.5 0 0.2253(3) 1. 0 
O3 O2- 2 b 0.5 0 0.0415(4) 1. 0 
O4 O2- 4 e 0.5 0.1013(2) 0.3111(3) 1. 0 

loop_
_atom_site_aniso_label
_atom_site_aniso_type_symbol
_atom_site_aniso_B_11
_atom_site_aniso_B_22
_atom_site_aniso_B_33
_atom_site_aniso_B_12
_atom_site_aniso_B_13
_atom_site_aniso_B_23
Ca1 Ca2+ 0.65(1) 0.48(1) 0.58(1) 0 0 -.01(1)
Na1 Na1+ 1.27(6) 0.97(5) 1.54(6) 0 0 0
Na2 Na1+ 1.15(5) 0.69(5) 1.15(3) 0 0 0
C1 C4+ 0.57(6) 0.84(7) 0.64(5) 0 0 -.04(5)
O1 O2- 1.08(6) 1.35(7) 1.44(7) 0 0 -.81(6)
O2 O2- 0.59(4) 1.02(4) 1.08(4) 0 0 -.02(3)
C2 C4+ 1.1(1) 0.58(8) 0.64(9) 0 0 0
O3 O2- 1.7(1) 0.60(7) 0.61(7) 0 0 0
O4 O2- 2.10(7) 0.57(5) 0.99(6) 0 0 -.23(5)
#End of data_16495-ICSD


