data_202779-ICSD
#?2014 by Fachinformationszentrum Karlsruhe, and the U.S. Secretary of 
#Commerce on behalf of the United States.  All rights reserved.
_database_code_ICSD                202779
_audit_creation_date               1989/12/04
_audit_update_record               2005/10/01
_chemical_name_systematic          'Lithium Niobotungstate -alpha'
_chemical_formula_structural       'Li (Nb W O6)'
_chemical_formula_sum              'Li1 Nb1 O6 W1'
_publ_section_title
;
Li Nb W O6: Crystal structure of its two allotropic forms
;
loop_
_citation_id
_citation_journal_abbrev
_citation_year
_citation_journal_volume
_citation_page_first
_citation_page_last
_citation_journal_id_ASTM
primary 'Materials Research Bulletin' 1988 23 1163 1170 MRBUAC
_publ_author_name
;
Fourquet, J.L.;Le Bail, A.;Gillet, P.A.
;
_cell_length_a                     4.6818(6)
_cell_length_b                     4.6818(6)
_cell_length_c                     9.2754(15)
_cell_angle_alpha                  90.
_cell_angle_beta                   90.
_cell_angle_gamma                  90.
_cell_volume                       203.31
_cell_formula_units_Z              2
_symmetry_space_group_name_H-M     'P -4 21 m'
_symmetry_Int_Tables_number        113
_refine_ls_R_factor_all            .0822
loop_
_symmetry_equiv_pos_site_id
_symmetry_equiv_pos_as_xyz
  1	'-y+.5, -x+.5, z'
  2	'y, -x, -z'
  3	'y+.5, x+.5, z'
  4	'-y, x, -z'
  5	'x+.5, -y+.5, -z'
  6	'-x, -y, z'
  7	'-x+.5, y+.5, -z'
  8	'x, y, z'
loop_
_atom_type_symbol
_atom_type_oxidation_number
Li1+	1
Nb5+	5
O2-	-2
W6+	6
loop_
_atom_site_label
_atom_site_type_symbol
_atom_site_symmetry_multiplicity
_atom_site_Wyckoff_symbol
_atom_site_fract_x
_atom_site_fract_y
_atom_site_fract_z
_atom_site_occupancy
_atom_site_attached_hydrogens
_atom_site_B_iso_or_equiv
Li1 Li1+ 2 c 0 0.5 0.418(6) 1. 0 0.49(9) 
Nb1 Nb5+ 2 c 0 0.5 0.087(1) 1. 0 0.49(9) 
W1 W6+ 2 c 0 0.5 0.726(1) 1. 0 0.49(9) 
O1 O2- 4 e 0.291(1) 0.791(1) 0.7712(7) 1. 0 0.69(14) 
O2 O2- 4 e 0.3032(8) 0.8032(8) 0.0809(9) 1. 0 0.51(9) 
O3 O2- 4 e 0.2993(8) 0.7993(8) 0.3939(7) 1. 0 1.2(1) 

#End of data_202779-ICSD


