data_67746-ICSD
#?2014 by Fachinformationszentrum Karlsruhe, and the U.S. Secretary of 
#Commerce on behalf of the United States.  All rights reserved.
_database_code_ICSD                67746
_audit_creation_date               1994/06/30
_audit_update_record               2006/04/01
_chemical_name_systematic          'Sodium Trifluoromanganate(II)'
_chemical_formula_structural       'Na (Mn F3)'
_chemical_formula_sum              'F3 Mn1 Na1'
_publ_section_title
;
Phase transitions and the structure of Na Mn F3 perovskite crystals 
as a function of temperature and pressure
;
loop_
_citation_id
_citation_journal_abbrev
_citation_year
_citation_journal_volume
_citation_journal_issue
_citation_page_first
_citation_page_last
_citation_journal_id_ASTM
primary 'Solid State Communications' 1992 84 4 435 441 SSCOA4
2 'Golden Book of Phase Transitions, Wroclaw' 2002 1- 1 123 GBOPT5
_publ_author_name                  'Katrusiak, A.;Ratuszna, A.'
_cell_length_a                     5.666(2)
_cell_length_b                     7.828(4)
_cell_length_c                     5.402(4)
_cell_angle_alpha                  90.
_cell_angle_beta                   90.
_cell_angle_gamma                  90.
_cell_volume                       239.6
_cell_formula_units_Z              4
_symmetry_space_group_name_H-M     'P n m a'
_symmetry_Int_Tables_number        62
_refine_ls_R_factor_all            .091
loop_
_symmetry_equiv_pos_site_id
_symmetry_equiv_pos_as_xyz
  1	'x+.5, y, -z+.5'
  2	'x, -y+.5, z'
  3	'-x+.5, y+.5, z+.5'
  4	'-x, -y, -z'
  5	'-x+.5, -y, z+.5'
  6	'-x, y+.5, -z'
  7	'x+.5, -y+.5, -z+.5'
  8	'x, y, z'
loop_
_atom_type_symbol
_atom_type_oxidation_number
F1-	-1
Mn2+	2
Na1+	1
loop_
_atom_site_label
_atom_site_type_symbol
_atom_site_symmetry_multiplicity
_atom_site_Wyckoff_symbol
_atom_site_fract_x
_atom_site_fract_y
_atom_site_fract_z
_atom_site_occupancy
_atom_site_attached_hydrogens
_atom_site_U_iso_or_equiv
Mn1 Mn2+ 4 a 0.5 0.5 0.5 1. 0 0.008 
Na1 Na1+ 4 c 0.0604(13) 0.75 0.516(2) 1. 0 0.017 
F1 F1- 8 d 0.3053(14) 0.5624(9) 0.817(2) 1. 0 0.019 
F2 F1- 4 c 0.440(2) 0.75 0.376(3) 1. 0 0.017 

#End of data_67746-ICSD


