data_92083-ICSD
#?2014 by Fachinformationszentrum Karlsruhe, and the U.S. Secretary of 
#Commerce on behalf of the United States.  All rights reserved.
_database_code_ICSD                92083
_audit_creation_date               2002/10/01
_audit_update_record               2005/10/01
_chemical_name_systematic          'Calcium Manganate(IV)'
_chemical_formula_structural       'Ca (Mn O3)'
_chemical_formula_sum              'Ca1 Mn1 O3'
_publ_section_title
;
Structural and magnetic study of Tb1-x Cax Mn O3 perovskites
;
loop_
_citation_id
_citation_journal_abbrev
_citation_year
_citation_journal_volume
_citation_journal_issue
_citation_page_first
_citation_page_last
_citation_journal_id_ASTM
primary 'Physical Review, Serie 3. B - Condensed Matter (18,1978-)'
 2000 62 9 5609 5618 PRBMDO
2 'Golden Book of Phase Transitions, Wroclaw' 2002 1- 1 123 GBOPT5
_publ_author_name
;
Blasco, J.;Ritter, C.;Garcia, J.;de Teresa, J.M.;Perez-Cacho, 
J.;Ibarra, M.R.
;
_cell_length_a                     5.2687(1)
_cell_length_b                     5.2813(1)
_cell_length_c                     7.4582(1)
_cell_angle_alpha                  90.
_cell_angle_beta                   90.
_cell_angle_gamma                  90.
_cell_volume                       207.53
_cell_formula_units_Z              4
_symmetry_space_group_name_H-M     'P b n m'
_symmetry_Int_Tables_number        62
_refine_ls_R_factor_all            .025
loop_
_symmetry_equiv_pos_site_id
_symmetry_equiv_pos_as_xyz
  1	'-x+.5, y+.5, z'
  2	'x, y, -z+.5'
  3	'x+.5, -y+.5, z+.5'
  4	'-x, -y, -z'
  5	'x+.5, -y+.5, -z'
  6	'-x, -y, z+.5'
  7	'-x+.5, y+.5, -z+.5'
  8	'x, y, z'
loop_
_atom_type_symbol
_atom_type_oxidation_number
Ca2+	2
Mn4+	4
O2-	-2
loop_
_atom_site_label
_atom_site_type_symbol
_atom_site_symmetry_multiplicity
_atom_site_Wyckoff_symbol
_atom_site_fract_x
_atom_site_fract_y
_atom_site_fract_z
_atom_site_occupancy
_atom_site_attached_hydrogens
_atom_site_B_iso_or_equiv
Ca1 Ca2+ 4 c 0.9929(3) 0.0313(1) 0.25 1. 0 0.52(1) 
O1 O2- 4 c 0.0624(8) 0.4869(5) 0.25 1. 0 0.89(3) 
O2 O2- 8 d 0.7118(6) 0.2882(6) 0.0342(4) 1. 0 0.89(3) 
Mn1 Mn4+ 4 b 0.5 0 0 1. 0 0.14(1) 

#End of data_92083-ICSD


