data_74202-ICSD
#?2014 by Fachinformationszentrum Karlsruhe, and the U.S. Secretary of 
#Commerce on behalf of the United States.  All rights reserved.
_database_code_ICSD                74202
_audit_creation_date               1995/01/10
_audit_update_record               2006/04/01
_chemical_name_systematic
;
Trisodium Hexafluoroaluminate - Alpha
;
_chemical_formula_structural       'Na3 (Al F6)'
_chemical_formula_sum              'Al1 F6 Na3'
_chemical_name_mineral             Cryolite
_publ_section_title
;
Ferroelastic phase transition in cryolite, Na3 Al F6, a mixed 
fluoride perovskite: high temperature single crystal X-ray 
diffraction study and symmetry analysis of the transition mechanism
;
loop_
_citation_id
_citation_journal_abbrev
_citation_year
_citation_journal_volume
_citation_page_first
_citation_page_last
_citation_journal_id_ASTM
primary 'Physics and Chemistry of Minerals' 1993 19 528 544 PCMIDU
2 'Golden Book of Phase Transitions, Wroclaw' 2002 1 1 123 GBOPT5
_publ_author_name                  'Yang, H.-X.;Ghose, S.;Hatch, D.M.'
_cell_length_a                     5.4544(5)
_cell_length_b                     5.6155(4)
_cell_length_c                     7.8220(5)
_cell_angle_alpha                  90.
_cell_angle_beta                   90.1180(2)
_cell_angle_gamma                  90.
_cell_volume                       239.58
_cell_formula_units_Z              2
_symmetry_space_group_name_H-M     'P 1 21/n 1'
_symmetry_Int_Tables_number        14
_refine_ls_R_factor_all            .046
loop_
_symmetry_equiv_pos_site_id
_symmetry_equiv_pos_as_xyz
  1	'-x+.5, y+.5, -z+.5'
  2	'-x, -y, -z'
  3	'x+.5, -y+.5, z+.5'
  4	'x, y, z'
loop_
_atom_type_symbol
_atom_type_oxidation_number
Al3+	3
F1-	-1
Na1+	1
loop_
_atom_site_label
_atom_site_type_symbol
_atom_site_symmetry_multiplicity
_atom_site_Wyckoff_symbol
_atom_site_fract_x
_atom_site_fract_y
_atom_site_fract_z
_atom_site_occupancy
_atom_site_attached_hydrogens
Al1 Al3+ 2 a 0 0 0 1. 0 
Na1 Na1+ 2 b 0 0 0.5 1. 0 
Na2 Na1+ 4 e -.0111(3) 0.4510(3) 0.2521(2) 1. 0 
F1 F1- 4 e 0.0998(4) 0.0432(4) 0.2184(3) 1. 0 
F2 F1- 4 e 0.2286(4) 0.3266(4) 0.5442(3) 1. 0 
F3 F1- 4 e 0.1630(4) 0.2678(4) 0.9398(3) 1. 0 

#End of data_74202-ICSD


