data_92907-ICSD
#?2014 by Fachinformationszentrum Karlsruhe, and the U.S. Secretary of 
#Commerce on behalf of the United States.  All rights reserved.
_database_code_ICSD                92907
_audit_creation_date               2003/04/01
_chemical_name_systematic          'Calcium Bis(trifluorostannate)'
_chemical_formula_structural       'Ca (Sn F3)2'
_chemical_formula_sum              'Ca1 F6 Sn2'
_publ_section_title
;
Synthesis and crystal structure of calcium trifluorostannate(II)
;
loop_
_citation_id
_citation_journal_abbrev
_citation_year
_citation_journal_volume
_citation_journal_issue
_citation_page_first
_citation_page_last
_citation_journal_id_ASTM
primary 'Doklady Akad. Nauk' 2001 376 5 635 637 DAKNEQ
2 'Doklady Chemistry' 2001 376 4 52 54 DKCHAY
_publ_author_name
;
Kokunov, Yu.V.;Detkov, D.G.;Gorbunova, Yu.E.;Ershova, M.M.;Mikhailov, 
Yu.N.
;
_cell_length_a                     4.419(1)
_cell_length_b                     7.191(3)
_cell_length_c                     9.834(4)
_cell_angle_alpha                  98.72(3)
_cell_angle_beta                   101.94(3)
_cell_angle_gamma                  92.65(3)
_cell_volume                       301.23
_cell_formula_units_Z              2
_symmetry_space_group_name_H-M     'P -1'
_symmetry_Int_Tables_number        2
_refine_ls_R_factor_all            .03
loop_
_symmetry_equiv_pos_site_id
_symmetry_equiv_pos_as_xyz
  1	'-x, -y, -z'
  2	'x, y, z'
loop_
_atom_type_symbol
_atom_type_oxidation_number
Ca2+	2
F1-	-1
Sn2+	2
loop_
_atom_site_label
_atom_site_type_symbol
_atom_site_symmetry_multiplicity
_atom_site_Wyckoff_symbol
_atom_site_fract_x
_atom_site_fract_y
_atom_site_fract_z
_atom_site_occupancy
_atom_site_attached_hydrogens
_atom_site_B_iso_or_equiv
Sn1 Sn2+ 2 i 0.01450(10) 0.27045(6) 0.36672(4) 1. 0 1.150(9) 
Sn2 Sn2+ 2 i 0.63480(9) 0.20977(6) 0.73009(4) 1. 0 1.032(9) 
Ca1 Ca2+ 2 i 0.6038(3) 0.7447(2) -.05316(1) 1. 0 0.95(2) 
F1 F1- 2 i 0.611(1) 0.0434(5) 0.8900(4) 1. 0 1.46(9) 
F2 F1- 2 i 0.536(1) 0.3127(7) 0.3060(5) 1. 0 2.1(1) 
F3 F1- 2 i 0.638(1) 0.4214(5) 0.8969(4) 1. 0 1.60(9) 
F4 F1- 2 i 0.0981(9) 0.2121(7) 0.8241(5) 1. 0 2.2(1) 
F5 F1- 2 i -0.0557(9) 0.2644(6) 0.1467(4) 1. 0 1.42(8) 
F6 F1- 2 i 0.090(1) 0.5544(6) 0.3854(5) 1. 0 2.2(1) 

#End of data_92907-ICSD


