data_1036-ICSD
#?2014 by Fachinformationszentrum Karlsruhe, and the U.S. Secretary of 
#Commerce on behalf of the United States.  All rights reserved.
_database_code_ICSD                1036
_audit_creation_date               1980/01/01
_audit_update_record               2011/08/01
_chemical_name_systematic          'Trisodium Trithioarsenate(III)'
_chemical_formula_structural       'Na3 (As S3)'
_chemical_formula_sum              'As1 Na3 S3'
_publ_section_title
;
Ueber ternaere Sulfide der Alkalimetalle mit Arsen und Antimon
;
loop_
_citation_id
_citation_journal_abbrev
_citation_year
_citation_journal_volume
_citation_page_first
_citation_page_last
_citation_journal_id_ASTM
primary 'Zeitschrift fuer Anorganische und Allgemeine Chemie (1950) (DE)'
 1977 430 199 210 ZAACAB
_publ_author_name                  'Sommer, H.;Hoppe, R.'
_cell_length_a                     8.573
_cell_length_b                     8.573
_cell_length_c                     8.573
_cell_angle_alpha                  90.
_cell_angle_beta                   90.
_cell_angle_gamma                  90.
_cell_volume                       630.08
_cell_formula_units_Z              4
_symmetry_space_group_name_H-M     'P 21 3'
_symmetry_Int_Tables_number        198
_refine_ls_R_factor_all            .069
loop_
_symmetry_equiv_pos_site_id
_symmetry_equiv_pos_as_xyz
  1	'-z+.5, -x, y+.5'
  2	'-y+.5, -z, x+.5'
  3	'-x+.5, -y, z+.5'
  4	'-z, x+.5, -y+.5'
  5	'-y, z+.5, -x+.5'
  6	'-x, y+.5, -z+.5'
  7	'z+.5, -x+.5, -y'
  8	'y+.5, -z+.5, -x'
  9	'x+.5, -y+.5, -z'
 10	'z, x, y'
 11	'y, z, x'
 12	'x, y, z'
loop_
_atom_type_symbol
_atom_type_oxidation_number
As3+	3
Na1+	1
S2-	-2
loop_
_atom_site_label
_atom_site_type_symbol
_atom_site_symmetry_multiplicity
_atom_site_Wyckoff_symbol
_atom_site_fract_x
_atom_site_fract_y
_atom_site_fract_z
_atom_site_occupancy
_atom_site_attached_hydrogens
_atom_site_B_iso_or_equiv
Na1 Na1+ 4 a 0.5785(8) 0.5785(8) 0.5785(8) 1. 0 3.3 
Na2 Na1+ 4 a 0.3181(6) 0.3181(6) 0.3181(6) 1. 0 1.6 
Na3 Na1+ 4 a 0.8104(7) 0.8104(7) 0.8104(7) 1. 0 2. 
As1 As3+ 4 a 0.0281(1) 0.0281(1) 0.0281(1) 1. 0 1.35 
S1 S2- 12 b 0.2220(4) 0.6040(4) 0.4981(4) 1. 0 1.83 

#End of data_1036-ICSD


