data_422028-ICSD
#?2014 by Fachinformationszentrum Karlsruhe, and the U.S. Secretary of 
#Commerce on behalf of the United States.  All rights reserved.
_database_code_ICSD                422028
_audit_creation_date               2012/02/01
_chemical_name_systematic
;
Distrontium Zinc Trisulfide (2/1/3)
;
_chemical_formula_structural       'Sr2 Zn1 S3'
_chemical_formula_sum              'S3 Sr2 Zn1'
_publ_section_title
;
Sr2 Zn S3 : crystal structure and fluorescent properties of a new 
Eu(II)- activated yellow emission phosphor
;
loop_
_citation_id
_citation_journal_abbrev
_citation_year
_citation_journal_volume
_citation_page_first
_citation_page_last
_citation_journal_id_ASTM
primary 'Chemistry of Materials' 2010 22 5800 5802 CMATEX
_publ_author_name
;
Petrukin, V.;Okube, M.;Yamane, H.;Sasaki, S.;Kakihana, M.
;
_cell_length_a                     8.45768(33)
_cell_length_b                     4.06898(15)
_cell_length_c                     16.40133(48)
_cell_angle_alpha                  90.
_cell_angle_beta                   90.
_cell_angle_gamma                  90.
_cell_volume                       564.44
_cell_formula_units_Z              4
_symmetry_space_group_name_H-M     'P n m a'
_symmetry_Int_Tables_number        62
_refine_ls_R_factor_all            .018
loop_
_symmetry_equiv_pos_site_id
_symmetry_equiv_pos_as_xyz
  1	'x+.5, y, -z+.5'
  2	'x, -y+.5, z'
  3	'-x+.5, y+.5, z+.5'
  4	'-x, -y, -z'
  5	'-x+.5, -y, z+.5'
  6	'-x, y+.5, -z'
  7	'x+.5, -y+.5, -z+.5'
  8	'x, y, z'
loop_
_atom_type_symbol
_atom_type_oxidation_number
S2-	-2
Sr2+	2
Zn2+	2
loop_
_atom_site_label
_atom_site_type_symbol
_atom_site_symmetry_multiplicity
_atom_site_Wyckoff_symbol
_atom_site_fract_x
_atom_site_fract_y
_atom_site_fract_z
_atom_site_occupancy
_atom_site_attached_hydrogens
_atom_site_U_iso_or_equiv
Sr1 Sr2+ 4 c 0.24054(5) 0.7500 0.45769(3) 1.0000 0 0.0113 
Sr2 Sr2+ 4 c 0.41992(5) 0.2500 0.21492(3) 1.0000 0 0.0102 
Zn1 Zn2+ 4 c 0.12633(6) 0.7500 0.13311(3) 1.0000 0 0.0111 
S1 S2- 4 c 0.18161(13) 0.7500 0.27383(7) 1.0000 0 0.0101 
S2 S2- 4 c 0.49055(14) 0.2500 0.40140(7) 1.0000 0 0.0110 
S3 S2- 4 c 0.37468(13) 0.7500 0.07193(7) 1.0000 0 0.0103 

loop_
_atom_site_aniso_label
_atom_site_aniso_type_symbol
_atom_site_aniso_U_11
_atom_site_aniso_U_22
_atom_site_aniso_U_33
_atom_site_aniso_U_12
_atom_site_aniso_U_13
_atom_site_aniso_U_23
Sr1 Sr2+ 0.0128(2) 0.0096(2) 0.0114(3) 0.0000 0.00133(15) 0.0000
Sr2 Sr2+ 0.0099(2) 0.0080(2) 0.0127(2) 0.0000 -0.00002(14) 0.0000
Zn1 Zn2+ 0.0107(3) 0.0107(3) 0.0119(3) 0.0000 -0.00022(19) 0.0000
S1 S2- 0.0104(5) 0.0101(5) 0.0099(5) 0.0000 0.0004(4) 0.0000
S2 S2- 0.0112(6) 0.0081(5) 0.0139(6) 0.0000 0.0015(4) 0.0000
S3 S2- 0.0104(6) 0.0095(5) 0.0111(5) 0.0000 0.0001(4) 0.0000
#End of data_422028-ICSD


