data_152752-ICSD
#?2014 by Fachinformationszentrum Karlsruhe, and the U.S. Secretary of 
#Commerce on behalf of the United States.  All rights reserved.
_database_code_ICSD                152752
_audit_creation_date               2006/10/01
_chemical_name_systematic          'Dicopper(I) Zinc Germanium Sulfide'
_chemical_formula_structural       'Cu2 Zn Ge S4'
_chemical_formula_sum              'Cu2 Ge1 S4 Zn1'
_publ_section_title
;
Phase relations in the quasi-binary (Cu2 Ge S3) - (Zn S) and quasi-
ternary (Cu2 S) - Zn (Cd) S - (Ge S2) systems and crystal structure 
of Cu2 Zn Ge S4
;
loop_
_citation_id
_citation_journal_abbrev
_citation_year
_citation_journal_volume
_citation_page_first
_citation_page_last
_citation_journal_id_ASTM
primary 'Journal of Alloys and Compounds' 2005 397 85 94 JALCEU
_publ_author_name
;
Parasyuk, O.V.;Piskach, L.V.;Romanyuk, Y.E.;Olekseyuk, I.D.;Zaremba, 
V.I.;Pekhnyo, V.I.
;
_cell_length_a                     5.34127(9)
_cell_length_b                     5.34127(9)
_cell_length_c                     10.5090(2)
_cell_angle_alpha                  90.
_cell_angle_beta                   90.
_cell_angle_gamma                  90.
_cell_volume                       299.81
_cell_formula_units_Z              2
_symmetry_space_group_name_H-M     'I -4 2 m'
_symmetry_Int_Tables_number        121
_refine_ls_R_factor_all            .0477
loop_
_symmetry_equiv_pos_site_id
_symmetry_equiv_pos_as_xyz
  1	'-y, -x, z'
  2	'y, x, z'
  3	'y, -x, -z'
  4	'-y, x, -z'
  5	'x, -y, -z'
  6	'-x, y, -z'
  7	'-x, -y, z'
  8	'x, y, z'
  9	'-y+.5, -x+.5, z+.5'
 10	'y+.5, x+.5, z+.5'
 11	'y+.5, -x+.5, -z+.5'
 12	'-y+.5, x+.5, -z+.5'
 13	'x+.5, -y+.5, -z+.5'
 14	'-x+.5, y+.5, -z+.5'
 15	'-x+.5, -y+.5, z+.5'
 16	'x+.5, y+.5, z+.5'
loop_
_atom_type_symbol
_atom_type_oxidation_number
Cu1+	1
Ge4+	4
S2-	-2
Zn2+	2
loop_
_atom_site_label
_atom_site_type_symbol
_atom_site_symmetry_multiplicity
_atom_site_Wyckoff_symbol
_atom_site_fract_x
_atom_site_fract_y
_atom_site_fract_z
_atom_site_occupancy
_atom_site_attached_hydrogens
_atom_site_B_iso_or_equiv
Cu1 Cu1+ 4 d 0 0.5 0.250 1. 0 0.85(5) 
Zn1 Zn2+ 2 a 0 0 0 1. 0 1.10(3) 
Ge1 Ge4+ 2 b 0 0 0.5 1. 0 0.95(6) 
S1 S2- 8 i 0.2586(4) 0.2586(4) 0.1230(5) 1. 0 0.84(7) 

#End of data_152752-ICSD


