data_63188-ICSD
#?2014 by Fachinformationszentrum Karlsruhe, and the U.S. Secretary of 
#Commerce on behalf of the United States.  All rights reserved.
_database_code_ICSD                63188
_audit_creation_date               1990/06/08
_audit_update_record               2003/10/01
_chemical_name_systematic          'Dirubidium Tetrachlorozincate - Lt'
_chemical_formula_structural       'Rb2 (Zn Cl4)'
_chemical_formula_sum              'Cl4 Rb2 Zn1'
_publ_section_title
;
Structural study of the incommensurate and lock-in phases of Rb2 Zn 
Cl4
;
loop_
_citation_id
_citation_journal_abbrev
_citation_year
_citation_journal_volume
_citation_page_first
_citation_page_last
_citation_journal_id_ASTM
primary 'Acta Crystallographica, Section B: Structural Science'
 1989 45 370 378 ASBSDK
2 'Phase Transition' 1992 38 127 220 PHTRDP
_publ_author_name
;
Hedoux, A.;Grebille, D.;Jaud, J.;Godefroy, G.
;
_cell_length_a                     7.230(5)
_cell_length_b                     12.608(9)
_cell_length_c                     9.199(7)
_cell_angle_alpha                  90.
_cell_angle_beta                   90.
_cell_angle_gamma                  90.
_cell_volume                       838.54
_cell_formula_units_Z              4
_symmetry_space_group_name_H-M     'P 21 c n'
_symmetry_Int_Tables_number        33
_refine_ls_R_factor_all            .041
loop_
_symmetry_equiv_pos_site_id
_symmetry_equiv_pos_as_xyz
  1	'x, -y+.5, z+.5'
  2	'x+.5, y+.5, -z+.5'
  3	'x+.5, -y, -z'
  4	'x, y, z'
loop_
_atom_type_symbol
_atom_type_oxidation_number
Cl1-	-1
Rb1+	1
Zn2+	2
loop_
_atom_site_label
_atom_site_type_symbol
_atom_site_symmetry_multiplicity
_atom_site_Wyckoff_symbol
_atom_site_fract_x
_atom_site_fract_y
_atom_site_fract_z
_atom_site_occupancy
_atom_site_attached_hydrogens
Rb1 Rb1+ 4 a 0.25 0.4067 0.6298 1. 0 
Rb2 Rb1+ 4 a 0.25 0.8196 0.4862 1. 0 
Zn1 Zn2+ 4 a 0.25 0.4217 0.224 1. 0 
Cl1 Cl1- 4 a 0.25 0.4189 -.0175 1. 0 
Cl2 Cl1- 4 a 0.25 0.5851 0.3204 1. 0 
Cl3 Cl1- 4 a 0.001 0.341 0.3139 1. 0 
Cl4 Cl1- 4 a 0.499 0.341 0.3139 1. 0 

#End of data_63188-ICSD


