data_6084-ICSD
#?2014 by Fachinformationszentrum Karlsruhe, and the U.S. Secretary of 
#Commerce on behalf of the United States.  All rights reserved.
_database_code_ICSD                6084
_audit_creation_date               1980/01/01
_audit_update_record               2003/04/01
_chemical_name_systematic          'Potassium Hexacyanochromate(III)'
_chemical_formula_structural       'K3 (Cr (C N)6)'
_chemical_formula_sum              'C6 Cr1 K3 N6'
_publ_section_title
;
The crystal structure of potassium hexacyanochromate(III), K3 (Cr (C 
N)6)
;
loop_
_citation_id
_citation_journal_abbrev
_citation_year
_citation_journal_volume
_citation_page_first
_citation_page_last
_citation_journal_id_ASTM
primary 'Acta Chemica Scandinavica, Series A: (28,1974-)'
 1974 28 623 630 ACAPCT
2 'Phase Transition' 1992 38 127 220 PHTRDP
_publ_author_name
;
Jagner, S.;Ljungstroem, E.;Vannerberg, N.G.
;
_cell_length_a                     8.5256(9)
_cell_length_b                     10.6000(12)
_cell_length_c                     13.6840(13)
_cell_angle_alpha                  90.
_cell_angle_beta                   90.
_cell_angle_gamma                  90.
_cell_volume                       1236.64
_cell_formula_units_Z              4
_symmetry_space_group_name_H-M     'P c a n'
_symmetry_Int_Tables_number        60
_refine_ls_R_factor_all            .046
loop_
_symmetry_equiv_pos_site_id
_symmetry_equiv_pos_as_xyz
  1	'-x, y, z+.5'
  2	'x+.5, -y+.5, z'
  3	'x+.5, y+.5, -z+.5'
  4	'-x, -y, -z'
  5	'x, -y, -z+.5'
  6	'-x+.5, y+.5, -z'
  7	'-x+.5, -y+.5, z+.5'
  8	'x, y, z'
loop_
_atom_type_symbol
_atom_type_oxidation_number
C2+	2
Cr3+	3
K1+	1
N3-	-3
loop_
_atom_site_label
_atom_site_type_symbol
_atom_site_symmetry_multiplicity
_atom_site_Wyckoff_symbol
_atom_site_fract_x
_atom_site_fract_y
_atom_site_fract_z
_atom_site_occupancy
_atom_site_attached_hydrogens
Cr1 Cr3+ 4 c 0.125 0 0.25 1. 0 
K1 K1+ 4 c 0.6297(4) 0 0.25 1. 0 
K2 K1+ 8 d 0.6263(30) 0.2329(3) 0.5021(1) 1. 0 
N1 N3- 8 d 0.1254(28) 0.2730(7) 0.1474(4) 1. 0 
N2 N3- 8 d 0.3991(18) 0.0857(9) 0.3980(7) 1. 0 
N3 N3- 8 d 0.3623(32) 0.4108(9) 0.4019(6) 1. 0 
C1 C2+ 8 d 0.1248(17) 0.1771(6) 0.1853(5) 1. 0 
C2 C2+ 8 d 0.2971(12) 0.0565(10) 0.3458(8) 1. 0 
C3 C2+ 8 d 0.4519(10) 0.4431(9) 0.3499(7) 1. 0 

loop_
_atom_site_aniso_label
_atom_site_aniso_type_symbol
_atom_site_aniso_U_11
_atom_site_aniso_U_22
_atom_site_aniso_U_33
_atom_site_aniso_U_12
_atom_site_aniso_U_13
_atom_site_aniso_U_23
Cr1 Cr3+ 0.0168(7) 0.0256(8) 0.0235(8) 0 0 0.0012(7)
K1 K1+ 0.0232(12) 0.0372(13) 0.0408(15) 0 0 0.0070(12)
K2 K1+ 0.0249(7) 0.0722(16) 0.0358(8) 0.0074(55) 0.0008(32) -0.010(1)
N1 N3- 0.0458(37) 0.0368(43) 0.0391(33) 0.0064(81) -0.0056(89) 0.0057(30)
N2 N3- 0.0227(95) 0.0629(52) 0.0469(46) -0.0114(46) -0.0110(53) -0.0081(41)
N3 N3- 0.0450(74) 0.0687(54) 0.0387(42) 0.0096(66) 0.0011(82) 0.0080(41)
C1 C2+ 0.0309(34) 0.0354(37) 0.0260(32) 0.0069(62) -0.0037(56) -0.0004(29)
C2 C2+ 0.0312(58) 0.0397(53) 0.0296(58) 0.0033(40) 0.0020(44) 0.0002(46)
C3 C2+ 0.0192(47) 0.0309(45) 0.0357(62) 0.0046(35) 0.0020(41) 0.0057(43)
#End of data_6084-ICSD


