data_73511-ICSD
#?2014 by Fachinformationszentrum Karlsruhe, and the U.S. Secretary of 
#Commerce on behalf of the United States.  All rights reserved.
_database_code_ICSD                73511
_audit_creation_date               1994/06/30
_audit_update_record               1997/11/10
_chemical_name_systematic          'Sodium Tecto-alumosilicate'
_chemical_formula_structural       'Na (Al Si O4)'
_chemical_formula_sum              'Al1 Na1 O4 Si1'
_chemical_name_mineral             'Carnegieite low'
_publ_section_title
;
Modulation wave approach to the structural parametrization and 
Rietveld refinement of low carnegieite
;
loop_
_citation_id
_citation_journal_abbrev
_citation_year
_citation_journal_volume
_citation_page_first
_citation_page_last
_citation_journal_id_ASTM
primary 'Acta Crystallographica, Section B: Structural Science'
 1993 49 614 626 ASBSDK
_publ_author_name                  'Withers, R.L.;Thompson, J.G.'
_cell_length_a                     10.261(1)
_cell_length_b                     14.030(2)
_cell_length_c                     5.1566(6)
_cell_angle_alpha                  90.
_cell_angle_beta                   90.
_cell_angle_gamma                  90.
_cell_volume                       742.35
_cell_formula_units_Z              8
_symmetry_space_group_name_H-M     'P b 21 a'
_symmetry_Int_Tables_number        29
_refine_ls_R_factor_all            .05
loop_
_symmetry_equiv_pos_site_id
_symmetry_equiv_pos_as_xyz
  1	'x+.5, y, -z'
  2	'-x+.5, y+.5, z'
  3	'-x, y+.5, -z'
  4	'x, y, z'
loop_
_atom_type_symbol
_atom_type_oxidation_number
Al3+	3
Na1+	1
O2-	-2
Si4+	4
loop_
_atom_site_label
_atom_site_type_symbol
_atom_site_symmetry_multiplicity
_atom_site_Wyckoff_symbol
_atom_site_fract_x
_atom_site_fract_y
_atom_site_fract_z
_atom_site_occupancy
_atom_site_attached_hydrogens
Al1 Al3+ 4 a 0.966(3) 0 0.067(7) 1. 0 
Al2 Al3+ 4 a 0.282(3) 0.254(3) 0.559(6) 1. 0 
Si1 Si4+ 4 a 0.216(3) 0.129(3) 0.064(5) 1. 0 
Si2 Si4+ 4 a 0.968(3) 0.875(2) 0.563(6) 1. 0 
Na1 Na1+ 4 a 0.475(3) 0.250(3) 0.051(5) 1. 0 
Na2 Na1+ 4 a 0.773(3) 0.507(3) 0.456(6) 1. 0 
O1 O2- 4 a 0.067(2) 0.097(2) 0.999(8) 1. 0 
O2 O2- 4 a 0.446(2) 0.280(2) 0.502(8) 1. 0 
O3 O2- 4 a 0.002(5) 0.905(2) 0.857(4) 1. 0 
O4 O2- 4 a 0.249(5) 0.153(1) 0.363(3) 1. 0 
O5 O2- 4 a 0.806(2) 0.036(1) 0.002(9) 1. 0 
O6 O2- 4 a 0.183(1) 0.352(1) 0.503(9) 1. 0 
O7 O2- 4 a 0.997(4) 0.968(2) 0.389(3) 1. 0 
O8 O2- 4 a 0.246(4) 0.217(1) 0.877(3) 1. 0 

#End of data_73511-ICSD


