data_77070-ICSD
#?2014 by Fachinformationszentrum Karlsruhe, and the U.S. Secretary of 
#Commerce on behalf of the United States.  All rights reserved.
_database_code_ICSD                77070
_audit_creation_date               2003/04/01
_chemical_name_systematic
;
Tetrapotassium Bis(oxoniobium) Octasilicate - Basic Structure
;
_chemical_formula_structural       'K4 (Nb O)2 (Si8 O21)'
_chemical_formula_sum              'K4 Nb2 O23 Si8'
_publ_section_title
;
K4 (Nb O)2 (Si8 O21): synthesis, structure and properties
;
loop_
_citation_id
_citation_journal_abbrev
_citation_year
_citation_journal_volume
_citation_journal_issue
_citation_page_first
_citation_page_last
_citation_journal_id_ASTM
primary Kristallografiya 1994 39 6 1001 1008 KRISAJ
2 'Crystallography Reports' 1994 39- 915 922 CYSTE3
_publ_author_name
;
Rastsvetaeva, R.K.;Bolotina, N.B.;Pushcharovskii, D.Yu.;Stefanovich, 
S.Yu.;Nadezhina, T.N.;Dimitrova, O.V.
;
_cell_length_a                     6.784(4)
_cell_length_b                     10.950(6)
_cell_length_c                     7.737(4)
_cell_angle_alpha                  76.42(4)
_cell_angle_beta                   72.10(5)
_cell_angle_gamma                  89.81(5)
_cell_volume                       530.16
_cell_formula_units_Z              1
_symmetry_space_group_name_H-M     'P -1'
_symmetry_Int_Tables_number        2
_refine_ls_R_factor_all            .03
loop_
_symmetry_equiv_pos_site_id
_symmetry_equiv_pos_as_xyz
  1	'-x, -y, -z'
  2	'x, y, z'
loop_
_atom_type_symbol
_atom_type_oxidation_number
K1+	1
Nb5+	5
O2-	-2
Si4+	4
loop_
_atom_site_label
_atom_site_type_symbol
_atom_site_symmetry_multiplicity
_atom_site_Wyckoff_symbol
_atom_site_fract_x
_atom_site_fract_y
_atom_site_fract_z
_atom_site_occupancy
_atom_site_attached_hydrogens
_atom_site_B_iso_or_equiv
Si1 Si4+ 2 i 0.9621(1) 0.2099(1) 0.1098(1) 1. 0 0.61 
Si2 Si4+ 2 i 0.1735(1) 0.3787(1) 0.3024(1) 1. 0 0.62 
Si3 Si4+ 2 i 0.5068(1) 0.2131(1) 0.1835(1) 1. 0 0.62 
Si4 Si4+ 2 i 0.1638(1) 0.0033(1) 0.3081(1) 1. 0 0.58 
Nb1 Nb5+ 2 i 0.7834(1) 0.3100(1) 0.7256(1) 1. 0 0.94 
K1 K1+ 2 i 0.2762(1) 0.4807(1) 0.7663(1) 1. 0 2.08 
K2 K1+ 2 i 0.3258(1) 0.1416(1) 0.7024(1) 1. 0 2.23 
O1 O2- 2 i 0.3613(5) 0.0855(3) 0.2919(5) 1. 0 1.2 
O2 O2- 2 i 0.4020(4) 0.3228(3) 0.2782(4) 1. 0 1.16 
O3 O2- 2 i 0.7194(4) 0.1867(3) 0.2358(3) 1. 0 1.22 
O4 O2- 2 i 0.5435(3) 0.2498(2) 0.9661(3) 1. 0 1.07 
O5 O2- 2 i 0.0510(4) 0.3458(4) 0.5218(4) 1. 0 1.33 
O6 O2- 2 i -.0062(3) 0.2567(3) 0.8939(3) 1. 0 1.13 
O7 O2- 2 i 0.6184(4) 0.3623(2) 0.5927(3) 1. 0 1.38 
O8 O2- 2 i 0.0667(5) 0.0761(3) 0.1503(5) 1. 0 1.22 
O9 O2- 2 i 0.7755(4) 0.1321(4) 0.7072(4) 1. 0 1.29 
O10 O2- 1 b 0 0 0.5 1. 0 1.44 
O11 O2- 2 i 0.0633(3) 0.3112(2) 0.1864(3) 1. 0 1.42 
O12 O2- 2 i 0.8083(5) 0.4741(3) 0.7936(4) 1. 0 1.32 

#End of data_77070-ICSD


