data_62320-ICSD
#?2014 by Fachinformationszentrum Karlsruhe, and the U.S. Secretary of 
#Commerce on behalf of the United States.  All rights reserved.
_database_code_ICSD                62320
_audit_creation_date               1988/07/15
_chemical_name_systematic
;
Potassium Iron(II) Iron(III) Orthophosphate
;
_chemical_formula_structural       'K Fe2 (P O4)2'
_chemical_formula_sum              'Fe2 K1 O8 P2'
_publ_section_title
;
Crystal structure of new K,Fe orthophosphate, K Fe(2+) Fe(3+) (P 
O4)2. Homeotype of K Fe(2+) Fe(3+) (P O4)2 and Fe3(2+) (H2O)(PO4)2
;
loop_
_citation_id
_citation_journal_abbrev
_citation_year
_citation_journal_volume
_citation_page_first
_citation_page_last
_citation_journal_id_ASTM
primary Kristallografiya 1986 31 906 912 KRISAJ
2 'Soviet Physics, Crystallography (= Kristallografiya)'
 1986 31 537 541 SPHCA6
_publ_author_name
;
Yakubovich, O.V.;Evdokimova, O.A.;Mel'nikov, O.K.;Simonov, M.A.
;
_cell_length_a                     9.127(4)
_cell_length_b                     10.032(3)
_cell_length_c                     7.846(3)
_cell_angle_alpha                  90.
_cell_angle_beta                   115.87(3)
_cell_angle_gamma                  90.
_cell_volume                       646.4
_cell_formula_units_Z              4
_symmetry_space_group_name_H-M     'P 1 21/a 1'
_symmetry_Int_Tables_number        14
_refine_ls_R_factor_all            .0566
loop_
_symmetry_equiv_pos_site_id
_symmetry_equiv_pos_as_xyz
  1	'x+.5, -y+.5, z'
  2	'-x, -y, -z'
  3	'-x+.5, y+.5, -z'
  4	'x, y, z'
loop_
_atom_type_symbol
_atom_type_oxidation_number
Fe2+	2
Fe3+	3
K1+	1
O2-	-2
P5+	5
loop_
_atom_site_label
_atom_site_type_symbol
_atom_site_symmetry_multiplicity
_atom_site_Wyckoff_symbol
_atom_site_fract_x
_atom_site_fract_y
_atom_site_fract_z
_atom_site_occupancy
_atom_site_attached_hydrogens
_atom_site_B_iso_or_equiv
Fe1 Fe2+ 4 e 0.44597(8) 0.88213(8) 0.0671(1) 1. 0 0.33(1) 
Fe2 Fe3+ 4 e 0.25782(9) 0.12194(9) 0.2709(1) 1. 0 0.61(1) 
P1 P5+ 4 e 0.6479(2) 0.0944(1) 0.3839(2) 1. 0 0.60(2) 
P2 P5+ 4 e 0.1367(2) 0.8381(2) 0.0122(2) 1. 0 0.64(2) 
K1 K1+ 4 e 0.4251(2) 0.6362(2) 0.3497(3) 1. 0 2.40(3) 
O1 O2- 4 e 0.2532(5) 0.2833(4) 0.4068(6) 1. 0 0.95(6) 
O2 O2- 4 e 0.4027(5) 0.2635(4) 0.8421(6) 1. 0 1.09(6) 
O3 O2- 4 e 0.2415(5) 0.4531(4) 0.8869(6) 1. 0 0.95(6) 
O4 O2- 4 e 0.4014(5) 0.9664(4) 0.8163(6) 1. 0 1.13(7) 
O5 O2- 4 e 0.2587(5) 0.2461(4) 0.0508(6) 1. 0 1.02(6) 
O6 O2- 4 e 0.2538(5) 0.5086(4) 0.5291(6) 1. 0 0.94(6) 
O7 O2- 4 e -.0040(5) 0.3704(4) 0.4067(6) 1. 0 0.98(6) 
O8 O2- 4 e 0.4861(5) 0.6109(4) 0.8488(6) 1. 0 0.91(6) 

#End of data_62320-ICSD


