data_410828-ICSD
#?2014 by Fachinformationszentrum Karlsruhe, and the U.S. Secretary of 
#Commerce on behalf of the United States.  All rights reserved.
_database_code_ICSD                410828
_audit_creation_date               2002/04/01
_audit_update_record               2006/04/01
_chemical_name_systematic
;
Dipotassium Tricopper Phyllo-pentagermanate
;
_chemical_formula_structural       'K2 Cu3 (Ge5 O14)'
_chemical_formula_sum              'Cu3 Ge5 K2 O14'
_publ_section_title
;
A copper germanate containing potassium in its two-dimensional 
channel network
;
loop_
_citation_id
_citation_journal_abbrev
_citation_year
_citation_journal_volume
_citation_page_first
_citation_page_last
_citation_journal_id_ASTM
primary 'Chemistry of Materials' 2000 12 1926 1930 CMATEX
_publ_author_name
;
Monge, M.A.;Gutierrez Puebla, E.;Cascales, C.;Campa, J.A.
;
_cell_length_a                     6.1859(4)
_cell_length_b                     7.1484(5)
_cell_length_c                     7.846(1)
_cell_angle_alpha                  82.150(1)
_cell_angle_beta                   72.072(1)
_cell_angle_gamma                  80.773(1)
_cell_volume                       324.42
_cell_formula_units_Z              1
_symmetry_space_group_name_H-M     'P -1'
_symmetry_Int_Tables_number        2
_refine_ls_R_factor_all            .054
loop_
_symmetry_equiv_pos_site_id
_symmetry_equiv_pos_as_xyz
  1	'-x, -y, -z'
  2	'x, y, z'
loop_
_atom_type_symbol
_atom_type_oxidation_number
Cu2+	2
Ge4+	4
K1+	1
O2-	-2
loop_
_atom_site_label
_atom_site_type_symbol
_atom_site_symmetry_multiplicity
_atom_site_Wyckoff_symbol
_atom_site_fract_x
_atom_site_fract_y
_atom_site_fract_z
_atom_site_occupancy
_atom_site_attached_hydrogens
_atom_site_U_iso_or_equiv
K1 K1+ 2 i 0.7276(3) 0.4858(3) 0.1597(3) 1. 0 0 
Cu1 Cu2+ 2 i 0.3433(2) 0.0275(2) 0.6720(1) 1. 0 0 
Cu2 Cu2+ 1 a 0 0 0 1. 0 0 
Ge1 Ge4+ 2 i 0.2076(1) 0.2602(1) 0.3162(1) 1. 0 0 
Ge2 Ge4+ 2 i 0.1733(1) 0.7312(1) 0.3055(1) 1. 0 0 
Ge3 Ge4+ 1 d 0.5 0 0 1. 0 0 
O1 O2- 2 i -.0531(9) 0.8181(8) 0.2194(7) 1. 0 0 
O2 O2- 2 i 0.2283(9) 0.1722(8) 0.1159(7) 1. 0 0 
O3 O2- 2 i 0.2606(10) 0.4971(8) 0.2439(8) 1. 0 0 
O4 O2- 2 i 0.4310(9) 0.8275(8) 0.2177(7) 1. 0 0.010(1) 
O5 O2- 2 i 0.3963(9) 0.1588(8) 0.4350(6) 1. 0 0.012(2) 
O6 O2- 2 i -.0813(9) 0.2705(8) 0.4546(7) 1. 0 0 
O7 O2- 2 i 0.3147(9) 0.8929(7) -.0930(7) 1. 0 0 

loop_
_atom_site_aniso_label
_atom_site_aniso_type_symbol
_atom_site_aniso_U_11
_atom_site_aniso_U_22
_atom_site_aniso_U_33
_atom_site_aniso_U_12
_atom_site_aniso_U_13
_atom_site_aniso_U_23
K1 K1+ 0.015(1) 0.026(1) 0.033(2) 0.001(1) -.006(1) 0.000(1)
Cu1 Cu2+ 0.009(1) 0.012(1) 0.004(1) 0.002(1) 0.000(1) 0.003(1)
Cu2 Cu2+ 0.006(1) 0.012(1) 0.003(1) -.001(1) 0.001(1) 0.004(1)
Ge1 Ge4+ 0.008(1) 0.007(1) 0.004(1) 0.000(1) -.001(1) 0.003(1)
Ge2 Ge4+ 0.007(1) 0.007(1) 0.005(1) -.001(1) 0.000(1) 0.003(1)
Ge3 Ge4+ 0.006(1) 0.008(1) 0.004(1) -.002(1) -.001(1) 0.002(1)
O1 O2- 0.003(3) 0.019(4) 0.003(3) 0.004(3) 0.003(3) 0.003(3)
O2 O2- 0.006(3) 0.016(4) 0.007(3) 0.002(3) 0.002(3) -.004(3)
O3 O2- 0.015(4) 0.011(4) 0.016(4) -.001(3) 0.005(3) -.001(3)
O6 O2- 0.005(3) 0.020(4) 0.009(3) 0.003(3) -.001(3) 0.003(3)
O7 O2- 0.006(3) 0.011(3) 0.007(3) 0.003(3) -.005(3) -.001(3)
#End of data_410828-ICSD


