data_185582-ICSD
#?2014 by Fachinformationszentrum Karlsruhe, and the U.S. Secretary of 
#Commerce on behalf of the United States.  All rights reserved.
_database_code_ICSD                185582
_audit_creation_date               2013/02/01
_chemical_name_systematic          'Lithium Iron Silicate'
_chemical_formula_structural       'Li Fe (Si O4)'
_chemical_formula_sum              'Fe1 Li1 O4 Si1'
_publ_section_title
;
Insights into changes in voltage and structure of Li2 Fe Si O4 
polymorphs for lithium-ion batteries
;
loop_
_citation_id
_citation_journal_abbrev
_citation_year
_citation_journal_volume
_citation_journal_issue
_citation_page_first
_citation_page_last
_citation_journal_id_ASTM
primary 'Chemistry of Materials' 2012 24 11 2155 2161 CMATEX
_publ_author_name
;
Eames, C.;Armstrong, A.R.;Bruce, P.G.;Islam, M.S.
;
_cell_length_a                     6.711
_cell_length_b                     5.212
_cell_length_c                     5.094
_cell_angle_alpha                  90.
_cell_angle_beta                   90.2
_cell_angle_gamma                  90.
_cell_volume                       178.18
_cell_formula_units_Z              2
_symmetry_space_group_name_H-M     'P 1'
_symmetry_Int_Tables_number        1
loop_
_symmetry_equiv_pos_site_id
_symmetry_equiv_pos_as_xyz
  1	'x, y, z'
loop_
_atom_type_symbol
_atom_type_oxidation_number
Fe3+	3
Li1+	1
O2-	-2
Si4+	4
loop_
_atom_site_label
_atom_site_type_symbol
_atom_site_symmetry_multiplicity
_atom_site_Wyckoff_symbol
_atom_site_fract_x
_atom_site_fract_y
_atom_site_fract_z
_atom_site_occupancy
_atom_site_attached_hydrogens
Li1 Li1+ 1 a 0.9939 0.3502 0.5014 1. 0 
Li2 Li1+ 1 a 0.4939 0.9891 0.0014 1. 0 
O1 O2- 1 a 0.7292 0.5489 0.4438 1. 0 
O2 O2- 1 a 0.2578 0.4331 0.3224 1. 0 
O3 O2- 1 a 0.0488 0.3311 0.8903 1. 0 
O4 O2- 1 a 0.4414 0.3548 0.8678 1. 0 
O5 O2- 1 a 0.4388 0.0082 0.3903 1. 0 
O6 O2- 1 a 0.9414 0.9845 0.3678 1. 0 
O7 O2- 1 a 0.2292 0.7904 0.9438 1. 0 
O8 O2- 1 a 0.7578 0.9062 0.8224 1. 0 
Si1 Si4+ 1 a 0.2445 0.4834 0.0047 1. 0 
Si2 Si4+ 1 a 0.7445 0.8559 0.5047 1. 0 
Fe1 Fe3+ 1 a 0.4954 0.3488 0.5033 1. 0 
Fe2 Fe3+ 1 a -0.0045 -0.0094 0.0033 1. 0 

#End of data_185582-ICSD


