data_81658-ICSD
#?2014 by Fachinformationszentrum Karlsruhe, and the U.S. Secretary of 
#Commerce on behalf of the United States.  All rights reserved.
_database_code_ICSD                81658
_audit_creation_date               1997/05/13
_chemical_name_systematic
;
Dipotassium Phyllo-tetratellurotricadmate
;
_chemical_formula_structural       'K2 (Cd3 Te4)'
_chemical_formula_sum              'Cd3 K2 Te4'
_publ_section_title
;
Dimensional reduction in II-VI materials: A2 Cd3 Q4 (A = K, Q = S, 
Se, Te; A = Rb, Q = S, Se), novel ternary low-dimensional cadmium 
chalcogenides produced by incorporation of A2 Q in Cd Q
;
loop_
_citation_id
_citation_journal_abbrev
_citation_year
_citation_journal_volume
_citation_journal_issue
_citation_page_first
_citation_page_last
_citation_journal_id_ASTM
primary 'Chemistry - A European Journal' 1996 2 6 656 666 CEUJED
_publ_author_name
;
Axtell, E.A.;Liao, J.-H.;Pikramenou, Z.;Kanatzidis, M.G.
;
_cell_length_a                     15.137(8)
_cell_length_b                     11.307(4)
_cell_length_c                     7.292(7)
_cell_angle_alpha                  90.
_cell_angle_beta                   90.
_cell_angle_gamma                  90.
_cell_volume                       1248.06
_cell_formula_units_Z              4
_symmetry_space_group_name_H-M     'P n m a'
_symmetry_Int_Tables_number        62
_refine_ls_R_factor_all            .064
loop_
_symmetry_equiv_pos_site_id
_symmetry_equiv_pos_as_xyz
  1	'x+.5, y, -z+.5'
  2	'x, -y+.5, z'
  3	'-x+.5, y+.5, z+.5'
  4	'-x, -y, -z'
  5	'-x+.5, -y, z+.5'
  6	'-x, y+.5, -z'
  7	'x+.5, -y+.5, -z+.5'
  8	'x, y, z'
loop_
_atom_type_symbol
_atom_type_oxidation_number
Cd2+	2
K1+	1
Te2-	-2
loop_
_atom_site_label
_atom_site_type_symbol
_atom_site_symmetry_multiplicity
_atom_site_Wyckoff_symbol
_atom_site_fract_x
_atom_site_fract_y
_atom_site_fract_z
_atom_site_occupancy
_atom_site_attached_hydrogens
_atom_site_B_iso_or_equiv
Cd1 Cd2+ 4 c 0.7023(2) 0.25 0.2698(6) 1. 0 1.4(1) 
Cd2 Cd2+ 8 d 0.7562(2) 0.4032(2) 0.8381(4) 1. 0 1.36(9) 
K1 K1+ 4 a 0.5 0.5 0.5 1. 0 2.2(5) 
K2 K1+ 4 c 0.4651(8) 0.25 -.028(2) 1. 0 2.2(5) 
Te1 Te2- 4 c 0.8654(2) 0.25 0.0765(5) 1. 0 1.2(1) 
Te2 Te2- 4 c 0.6445(2) 0.25 0.6302(5) 1. 0 1.3(1) 
Te3 Te2- 8 d 0.6324(1) 0.4685(2) 0.1094(3) 1. 0 1.21(7) 

#End of data_81658-ICSD


