data_247485-ICSD
#?2014 by Fachinformationszentrum Karlsruhe, and the U.S. Secretary of 
#Commerce on behalf of the United States.  All rights reserved.
_database_code_ICSD                247485
_audit_creation_date               2011/02/01
_chemical_name_systematic          'Lithium Iron(II) Silicate'
_chemical_formula_structural       'Li2 Fe (Si O4)'
_chemical_formula_sum              'Fe1 Li2 O4 Si1'
_publ_section_title
;
Crystal structure of a new polymorph of Li2 Fe Si O4
;
loop_
_citation_id
_citation_journal_abbrev
_citation_year
_citation_journal_volume
_citation_journal_issue
_citation_page_first
_citation_page_last
_citation_journal_id_ASTM
primary 'Inorganic Chemistry' 2010 49 16 7446 7451 INOCAJ
_publ_author_name
;
Sirisopanaporn, C.;Boulineau, A.;Hanzel, D.;Dominko, R.;Budic, 
B.;Armstrong, A.R.;Bruce, P.G.;Masquelier, C.
;
_cell_length_a                     6.28377(7)
_cell_length_b                     10.6573(1)
_cell_length_c                     5.0385(1)
_cell_angle_alpha                  90.
_cell_angle_beta                   90.
_cell_angle_gamma                  90.
_cell_volume                       337.42
_cell_formula_units_Z              4
_symmetry_space_group_name_H-M     'P m n b'
_symmetry_Int_Tables_number        62
_refine_ls_R_factor_all            .0291
loop_
_symmetry_equiv_pos_site_id
_symmetry_equiv_pos_as_xyz
  1	'x, y+.5, -z+.5'
  2	'-x+.5, y, z'
  3	'x+.5, -y+.5, z+.5'
  4	'-x, -y, -z'
  5	'-x, -y+.5, z+.5'
  6	'x+.5, -y, -z'
  7	'-x+.5, y+.5, -z+.5'
  8	'x, y, z'
loop_
_atom_type_symbol
_atom_type_oxidation_number
Fe2+	2
Li1+	1
O2-	-2
Si4+	4
loop_
_atom_site_label
_atom_site_type_symbol
_atom_site_symmetry_multiplicity
_atom_site_Wyckoff_symbol
_atom_site_fract_x
_atom_site_fract_y
_atom_site_fract_z
_atom_site_occupancy
_atom_site_attached_hydrogens
_atom_site_B_iso_or_equiv
Li1 Li1+ 8 d 0.0044(4) 0.3302(3) 0.2163(6) 1. 0 1.05(3) 
Fe1 Fe2+ 4 c 0.25 0.58133(6) 0.2016(2) 1. 0 0.687(9) 
Si1 Si4+ 4 c 0.25 0.4164(1) 0.6970(3) 1. 0 0.34(1) 
O1 O2- 4 c 0.25 0.4107(1) 0.3710(2) 1. 0 0.62(1) 
O2 O2- 4 c 0.25 0.5631(1) 0.7809(3) 1. 0 0.57(1) 
O3 O2- 8 d 0.0384(1) 0.34383(6) 0.8055(2) 1. 0 0.535(8) 

#End of data_247485-ICSD


