data_4135-ICSD
#?2014 by Fachinformationszentrum Karlsruhe, and the U.S. Secretary of 
#Commerce on behalf of the United States.  All rights reserved.
_database_code_ICSD                4135
_audit_creation_date               1980/01/01
_audit_update_record               2012/08/01
_chemical_name_systematic          'Hexacalcium 19-hafnium Oxide'
_chemical_formula_structural       'Ca6 Hf19 O44'
_chemical_formula_sum              'Ca6 Hf19 O44'
_publ_section_title
;
Crystal structures of the fluorite-related phases  Ca Hf4 O9  and  
Ca6 Hf19 O44
;
loop_
_citation_id
_citation_journal_abbrev
_citation_year
_citation_journal_volume
_citation_page_first
_citation_page_last
_citation_journal_id_ASTM
primary 'Journal of Solid State Chemistry' 1975 14 264 273 JSSCBI
_publ_author_name
;
Allpress, J.G.;Rossell, H.J.;Scott, H.G.
;
_cell_length_a                     18.2435(8)
_cell_length_b                     18.2435(8)
_cell_length_c                     17.6125(16)
_cell_angle_alpha                  90.
_cell_angle_beta                   90.
_cell_angle_gamma                  120.
_cell_volume                       5076.54
_cell_formula_units_Z              6
_symmetry_space_group_name_H-M     'R -3 c H'
_symmetry_Int_Tables_number        167
_refine_ls_R_factor_all            .12
loop_
_symmetry_equiv_pos_site_id
_symmetry_equiv_pos_as_xyz
  1	'x-y, -y, -z+.5'
  2	'-x, -x+y, -z+.5'
  3	'y, x, -z+.5'
  4	'x-y, x, -z'
  5	'y, -x+y, -z'
  6	'-x, -y, -z'
  7	'-x+y, y, z+.5'
  8	'x, x-y, z+.5'
  9	'-y, -x, z+.5'
 10	'-x+y, -x, z'
 11	'-y, x-y, z'
 12	'x, y, z'
 13	'x-y+.6666, -y+.3333, -z+.8333'
 14	'x-y+.3333, -y+.6666, -z+.1666'
 15	'-x+.6666, -x+y+.3333, -z+.8333'
 16	'-x+.3333, -x+y+.6666, -z+.1666'
 17	'y+.6666, x+.3333, -z+.8333'
 18	'y+.3333, x+.6666, -z+.1666'
 19	'x-y+.6666, x+.3333, -z+.3333'
 20	'x-y+.3333, x+.6666, -z+.6666'
 21	'y+.6666, -x+y+.3333, -z+.3333'
 22	'y+.3333, -x+y+.6666, -z+.6666'
 23	'-x+.6666, -y+.3333, -z+.3333'
 24	'-x+.3333, -y+.6666, -z+.6666'
 25	'-x+y+.6666, y+.3333, z+.8333'
 26	'-x+y+.3333, y+.6666, z+.1666'
 27	'x+.6666, x-y+.3333, z+.8333'
 28	'x+.3333, x-y+.6666, z+.1666'
 29	'-y+.6666, -x+.3333, z+.8333'
 30	'-y+.3333, -x+.6666, z+.1666'
 31	'-x+y+.6666, -x+.3333, z+.3333'
 32	'-x+y+.3333, -x+.6666, z+.6666'
 33	'-y+.6666, x-y+.3333, z+.3333'
 34	'-y+.3333, x-y+.6666, z+.6666'
 35	'x+.6666, y+.3333, z+.3333'
 36	'x+.3333, y+.6666, z+.6666'
loop_
_atom_type_symbol
_atom_type_oxidation_number
Ca2+	2
Hf4+	4
O2-	-2
loop_
_atom_site_label
_atom_site_type_symbol
_atom_site_symmetry_multiplicity
_atom_site_Wyckoff_symbol
_atom_site_fract_x
_atom_site_fract_y
_atom_site_fract_z
_atom_site_occupancy
_atom_site_attached_hydrogens
Hf1 Hf4+ 6 a 0 0 0.25 1. 0 
Hf2 Hf4+ 18 e 0.388(2) 0 0.25 1. 0 
Hf3 Hf4+ 18 e 0.811(2) 0 0.25 1. 0 
Hf4 Hf4+ 36 f 0.388(1) 0.204(2) 0.258(2) 1. 0 
Hf5 Hf4+ 36 f 0.617(2) 0.205(1) 0.256(1) 1. 0 
Ca1 Ca2+ 18 e 0.212(9) 0 0.25 1. 0 
Ca2 Ca2+ 18 e 0.599(12) 0 0.25 1. 0 
O1 O2- 12 c 0 0 0.058(21) 1. 0 
O2 O2- 36 f 0.391(15) -.006(16) 0.128(15) 1. 0 
O3 O2- 36 f 0.411(13) 0.193(19) 0.133(13) 1. 0 
O4 O2- 36 f 0.404(13) 0.215(18) 0.376(14) 1. 0 
O5 O2- 36 f 0.574(18) 0.163(12) 0.137(14) 1. 0 
O6 O2- 36 f 0.599(19) 0.181(12) 0.379(14) 1. 0 
O7 O2- 36 f 0.215(17) -.015(14) 0.111(14) 1. 0 
O8 O2- 36 f 0.594(20) -.015(18) 0.115(15) 1. 0 

#End of data_4135-ICSD


