data_74537-ICSD
#?2014 by Fachinformationszentrum Karlsruhe, and the U.S. Secretary of 
#Commerce on behalf of the United States.  All rights reserved.
_database_code_ICSD                74537
_audit_creation_date               1995/10/17
_audit_update_record               2007/08/01
_chemical_name_systematic
;
Tetrasodium Chloride Tecto-trialumotrisilicate
;
_chemical_formula_structural       'Na4 Cl (Al3 Si3 O12)'
_chemical_formula_sum              'Al3 Cl1 Na4 O12 Si3'
_chemical_name_mineral             Sodalite
_publ_section_title
;
Crystal-structure calculation with distorted ions
;
loop_
_citation_id
_citation_journal_abbrev
_citation_year
_citation_journal_volume
_citation_page_first
_citation_page_last
_citation_journal_id_ASTM
primary 'Physical Review, Serie 3. B - Condensed Matter (18,1978-)'
 1993 48 2889 2908 PRBMDO
_publ_author_name                  'Lacks, D.J.;Gordon, R.G.'
_cell_length_a                     8.916
_cell_length_b                     8.916
_cell_length_c                     8.916
_cell_angle_alpha                  90.
_cell_angle_beta                   90.
_cell_angle_gamma                  90.
_cell_volume                       708.78
_cell_formula_units_Z              2
_symmetry_space_group_name_H-M     'P -4 3 n'
_symmetry_Int_Tables_number        218
loop_
_symmetry_equiv_pos_site_id
_symmetry_equiv_pos_as_xyz
  1	'-z+.5, y+.5, -x+.5'
  2	'-y+.5, x+.5, -z+.5'
  3	'-x+.5, z+.5, -y+.5'
  4	'z+.5, -y+.5, -x+.5'
  5	'y+.5, -x+.5, -z+.5'
  6	'x+.5, -z+.5, -y+.5'
  7	'-z+.5, -y+.5, x+.5'
  8	'-y+.5, -x+.5, z+.5'
  9	'-x+.5, -z+.5, y+.5'
 10	'z+.5, y+.5, x+.5'
 11	'y+.5, x+.5, z+.5'
 12	'x+.5, z+.5, y+.5'
 13	'-z, -x, y'
 14	'-y, -z, x'
 15	'-x, -y, z'
 16	'z, -x, -y'
 17	'y, -z, -x'
 18	'x, -y, -z'
 19	'-z, x, -y'
 20	'-y, z, -x'
 21	'-x, y, -z'
 22	'z, x, y'
 23	'y, z, x'
 24	'x, y, z'
loop_
_atom_type_symbol
_atom_type_oxidation_number
Al3+	3
Cl1-	-1
Na1+	1
O2-	-2
Si4+	4
loop_
_atom_site_label
_atom_site_type_symbol
_atom_site_symmetry_multiplicity
_atom_site_Wyckoff_symbol
_atom_site_fract_x
_atom_site_fract_y
_atom_site_fract_z
_atom_site_occupancy
_atom_site_attached_hydrogens
Na1 Na1+ 8 e 0.183 0.183 0.183 1. 0 
Cl1 Cl1- 2 a 0 0 0 1. 0 
Si1 Si4+ 6 d 0.25 0 0.5 1. 0 
Al1 Al3+ 6 c 0.25 0.5 0 1. 0 
O1 O2- 24 i 0.138 0.436 0.148 1. 0 

#End of data_74537-ICSD


