data_72617-ICSD
#?2014 by Fachinformationszentrum Karlsruhe, and the U.S. Secretary of 
#Commerce on behalf of the United States.  All rights reserved.
_database_code_ICSD                72617
_audit_creation_date               1994/01/19
_audit_update_record               2002/04/01
_chemical_name_systematic
;
Potassium Pentchloronitrosoruthenate(IV)
;
_chemical_formula_structural       'K2 (Ru Cl5 (N O))'
_chemical_formula_sum              'Cl5 K2 N1 O1 Ru1'
_publ_section_title
;
Temperature-dependence of the crystal structure of K2 (Ru Cl5 N O):a 
powder neutron diffraction study
;
loop_
_citation_id
_citation_journal_abbrev
_citation_year
_citation_journal_volume
_citation_page_first
_citation_page_last
_citation_journal_id_ASTM
primary 'Journal of Solid State Chemistry' 1993 103 170 175 JSSCBI
_publ_author_name
;
Ruedlinger, M.;Schefer, J.;Fischer, P.;Furer, N.;Guedel, H.U.
;
_cell_length_a                     13.0937(6)
_cell_length_b                     10.3175(4)
_cell_length_c                     6.8389(3)
_cell_angle_alpha                  90.
_cell_angle_beta                   90.
_cell_angle_gamma                  90.
_cell_volume                       923.9
_cell_formula_units_Z              4
_symmetry_space_group_name_H-M     'P n m a'
_symmetry_Int_Tables_number        62
_refine_ls_R_factor_all            .022
loop_
_symmetry_equiv_pos_site_id
_symmetry_equiv_pos_as_xyz
  1	'x+.5, y, -z+.5'
  2	'x, -y+.5, z'
  3	'-x+.5, y+.5, z+.5'
  4	'-x, -y, -z'
  5	'-x+.5, -y, z+.5'
  6	'-x, y+.5, -z'
  7	'x+.5, -y+.5, -z+.5'
  8	'x, y, z'
loop_
_atom_type_symbol
_atom_type_oxidation_number
Cl1-	-1
K1+	1
N2+	2
O2-	-2
Ru3+	3
loop_
_atom_site_label
_atom_site_type_symbol
_atom_site_symmetry_multiplicity
_atom_site_Wyckoff_symbol
_atom_site_fract_x
_atom_site_fract_y
_atom_site_fract_z
_atom_site_occupancy
_atom_site_attached_hydrogens
_atom_site_B_iso_or_equiv
Ru1 Ru3+ 4 c 0.1065(5) 0.25 0.1668(7) 1. 0 0.26(10) 
N1 N2+ 4 c 0.0064(4) 0.25 0.0050(6) 1. 0 0.60(8) 
O1 O2- 4 c -.0544(6) 0.25 0.8876(9) 1. 0 0.91(14) 
Cl1 Cl1- 4 c 0.0017(5) 0.25 0.4569(5) 1. 0 0.74(9) 
Cl2 Cl1- 4 c 0.2524(4) 0.25 0.3787(6) 1. 0 0.52(10) 
Cl3 Cl1- 4 c 0.2233(3) 0.25 -.0977(5) 1. 0 0.52(9) 
Cl4 Cl1- 8 d 0.1114(2) 0.0203(3) 0.1802(4) 1. 0 0.57(6) 
K1 K1+ 8 d 0.1445(6) -.0003(10) 0.6481(9) 1. 0 0.80(15) 

#End of data_72617-ICSD


