data_68706-ICSD
#?2014 by Fachinformationszentrum Karlsruhe, and the U.S. Secretary of 
#Commerce on behalf of the United States.  All rights reserved.
_database_code_ICSD                68706
_audit_creation_date               1992/01/20
_audit_update_record               2012/08/01
_chemical_name_systematic
;
Potassium Tin(IV) Oxide Phosphate(V)
;
_chemical_formula_structural       'K Sn O (P O4)'
_chemical_formula_sum              'K1 O5 P1 Sn1'
_publ_section_title
;
Crystal structure and nonlinear optical properties of KSnOPO4 
andtheir comparison with K Ti O P O4
;
loop_
_citation_id
_citation_journal_abbrev
_citation_year
_citation_journal_volume
_citation_page_first
_citation_page_last
_citation_journal_id_ASTM
primary 'Acta Crystallographica, Section B: Structural Science'
 1990 46 333 343 ASBSDK
2 'Golden Book of Phase Transitions, Wroclaw' 2002 1 1 123 GBOPT5
_publ_author_name
;
Thomas, P.A.;Glazer, A.M.;Watts, B.E.
;
_cell_length_a                     13.145(3)
_cell_length_b                     6.526(2)
_cell_length_c                     10.378(3)
_cell_angle_alpha                  90.
_cell_angle_beta                   90.
_cell_angle_gamma                  90.
_cell_volume                       890.27
_cell_formula_units_Z              8
_symmetry_space_group_name_H-M     'P n a 21'
_symmetry_Int_Tables_number        33
_refine_ls_R_factor_all            .021
loop_
_symmetry_equiv_pos_site_id
_symmetry_equiv_pos_as_xyz
  1	'x+.5, -y+.5, z'
  2	'-x+.5, y+.5, z+.5'
  3	'-x, -y, z+.5'
  4	'x, y, z'
loop_
_atom_type_symbol
_atom_type_oxidation_number
K1+	1
O2-	-2
P5+	5
Sn4+	4
loop_
_atom_site_label
_atom_site_type_symbol
_atom_site_symmetry_multiplicity
_atom_site_Wyckoff_symbol
_atom_site_fract_x
_atom_site_fract_y
_atom_site_fract_z
_atom_site_occupancy
_atom_site_attached_hydrogens
K1 K1+ 4 a 0.3753(1) 0.7771(2) 0.6983 1. 0 
K2 K1+ 4 a 0.1089(1) 0.6930(3) 0.9393(2) 1. 0 
Sn1 Sn4+ 4 a 0.2487 0.2544(1) 0.7496(2) 1. 0 
Sn2 Sn4+ 4 a 0.3729 0.4976(1) 0.0002(2) 1. 0 
P1 P5+ 4 a 0.5012(1) 0.3411(2) 0.7520(3) 1. 0 
P2 P5+ 4 a 0.1758(1) 0.5017(3) 0.4970(4) 1. 0 
O1 O2- 4 a 0.4878(6) 0.4883(7) 0.8656(6) 1. 0 
O2 O2- 4 a 0.9856(6) 0.9782(7) 0.1371(6) 1. 0 
O3 O2- 4 a 0.4083(4) 0.2051(7) 0.7293(4) 1. 0 
O4 O2- 4 a 0.9086(4) 0.7030(7) 0.2734(4) 1. 0 
O5 O2- 4 a 0.1062(4) 0.3160(6) 0.4761(4) 1. 0 
O6 O2- 4 a 0.6074(4) 0.8137(7) 0.5233(4) 1. 0 
O7 O2- 4 a 0.2285(6) 0.9827(8) 0.3644(6) 1. 0 
O8 O2- 4 a 0.7347(6) 0.4659(9) 0.6266(6) 1. 0 
O9 O2- 4 a 0.2450(5) 0.5318(9) 0.3843(7) 1. 0 
O10 O2- 4 a 0.7485(5) 0.0282(9) 0.6085(7) 1. 0 

loop_
_atom_site_aniso_label
_atom_site_aniso_type_symbol
_atom_site_aniso_U_11
_atom_site_aniso_U_22
_atom_site_aniso_U_33
_atom_site_aniso_U_12
_atom_site_aniso_U_13
_atom_site_aniso_U_23
K1 K1+ 0.0171(9) 0.0089(7) 0.0243(8) -.0003(6) -.0038(5) 0.001(1)
K2 K1+ 0.0210(7) 0.008(1) 0.011(1) -.002(1) 0.0026(9) -.0016(9)
Sn1 Sn4+ 0.0025(2) 0.0033(2) 0.0038(2) -.0004(1) -.0006(1) -.0003(1)
Sn2 Sn4+ 0.0028(2) 0.0019(2) 0.0036(2) 0.0003(2) -.0003(3) -.0006(1)
P1 P5+ 0.0033(8) 0.008(1) 0.014(1) 0.001(1) 0.002(1) 0.001(1)
P2 P5+ 0.0038(8) 0.009(1) 0.010(1) 0.001(1) 0.0028(9) 0.001(1)
O1 O2- 0.009(1) 0.012(1) 0.009(1) -.004(1) -.003(1) 0.0035(9)
O2 O2- 0.009(1) 0.009(1) 0.010(1) -.004(1) -.0037(8) 0.0029(9)
O3 O2- 0.002(1) 0.010(1) 0.014(1) 0.001(1) -.0022(8) 0.003(1)
O4 O2- 0.002(1) 0.010(1) 0.014(1) 0.001(1) 0.0022(8) 0.003(1)
O5 O2- 0.011(1) 0.007(1) 0.008(1) 0.000(1) -.0031(7) -.001(1)
O6 O2- 0.011(11) 0.007(1) 0.008(1) 0.000(1) 0.0031(7) 0.001(1)
O7 O2- 0.009(1) 0.007(1) 0.011(1) 0.000(1) 0.0048(8) -.002(1)
O8 O2- 0.009(1) 0.007(1) 0.011(1) 0.000(1) -.0048(8) 0.002(2)
O9 O2- 0.010(1) 0.012(1) 0.012(1) 0.002(1) 0.0033(8) 0.006(1)
O10 O2- 0.010(1) 0.012(1) 0.012(1) 0.002(1) -.0033(8) -.006(1)
#End of data_68706-ICSD


