data_404250-ICSD
#?2014 by Fachinformationszentrum Karlsruhe, and the U.S. Secretary of 
#Commerce on behalf of the United States.  All rights reserved.
_database_code_ICSD                404250
_audit_creation_date               1996/10/14
_audit_update_record               2000/07/15
_chemical_name_systematic          'Potassium Strontium Vanadate(V)'
_chemical_formula_structural       'K Sr (V O4)'
_chemical_formula_sum              'K1 O4 Sr1 V1'
_publ_section_title
;
Geordnete Metallverteilung in K Ba V O4 und K Sr V O4 mit beta - K2 S 
O4 - Struktur
;
loop_
_citation_id
_citation_journal_abbrev
_citation_year
_citation_journal_volume
_citation_page_first
_citation_page_last
_citation_journal_id_ASTM
primary 'Zeitschrift fuer Naturforschung, B: Chemical Sciences'
 1996 51 477 480 ZNBSEN
_publ_author_name                  'Mueller Buschbaum, H.;Schrandt, O.'
_cell_length_a                     7.3997(11)
_cell_length_b                     5.8119(8)
_cell_length_c                     9.9614(9)
_cell_angle_alpha                  90.
_cell_angle_beta                   90.
_cell_angle_gamma                  90.
_cell_volume                       428.4
_cell_formula_units_Z              4
_symmetry_space_group_name_H-M     'P n m a'
_symmetry_Int_Tables_number        62
_refine_ls_R_factor_all            .1007
loop_
_symmetry_equiv_pos_site_id
_symmetry_equiv_pos_as_xyz
  1	'x+.5, y, -z+.5'
  2	'x, -y+.5, z'
  3	'-x+.5, y+.5, z+.5'
  4	'-x, -y, -z'
  5	'-x+.5, -y, z+.5'
  6	'-x, y+.5, -z'
  7	'x+.5, -y+.5, -z+.5'
  8	'x, y, z'
loop_
_atom_type_symbol
_atom_type_oxidation_number
K1+	1
O2-	-2
Sr2+	2
V5+	5
loop_
_atom_site_label
_atom_site_type_symbol
_atom_site_symmetry_multiplicity
_atom_site_Wyckoff_symbol
_atom_site_fract_x
_atom_site_fract_y
_atom_site_fract_z
_atom_site_occupancy
_atom_site_attached_hydrogens
Sr1 Sr2+ 4 c 1.00018(11) 0.25 0.69967(7) 1. 0 
V1 V5+ 4 c 0.7245(2) 0.25 0.08419(12) 1. 0 
K1 K1+ 4 c 0.1578(3) 0.25 0.0768(2) 1. 0 
O1 O2- 4 c -.0003(12) 0.25 0.4368(9) 1. 0 
O2 O2- 4 c 0.8199(9) 0.25 0.9278(5) 1. 0 
O3 O2- 8 d 0.7862(7) 0.0071(8) 0.1705(4) 1. 0 

loop_
_atom_site_aniso_label
_atom_site_aniso_type_symbol
_atom_site_aniso_U_11
_atom_site_aniso_U_22
_atom_site_aniso_U_33
_atom_site_aniso_U_12
_atom_site_aniso_U_13
_atom_site_aniso_U_23
Sr1 Sr2+ 0.0094(3) 0.0158(3) 0.0102(3) 0 -.0001(2) 0
V1 V5+ 0.0106(6) 0.0031(5) 0.0086(4) 0 0.0003(4) 0
K1 K1+ 0.0225(11) 0.0233(9) 0.0272(9) 0 -.0008(8) 0
O1 O2- 0.013(3) 0.156(13) 0.019(3) 0 -.003(3) 0
O2 O2- 0.023(3) 0.020(3) 0.012(2) 0 0.003(2) 0
O3 O2- 0.044(3) 0.006(2) 0.023(2) -.001(2) -.007(2) 0.0036(14)
#End of data_404250-ICSD


