data_189083-ICSD
#?2014 by Fachinformationszentrum Karlsruhe, and the U.S. Secretary of 
#Commerce on behalf of the United States.  All rights reserved.
_database_code_ICSD                189083
_audit_creation_date               2014/02/01
_chemical_name_systematic          'Copper Aluminium Disulfide'
_chemical_formula_structural       'Cu Al S2'
_chemical_formula_sum              'Al1 Cu1 S2'
_publ_section_title
;
Structural and band-edge properties of Cu (Alx In1-x) S2 (0 <= x <= 
1) series chalcopyrite semiconductors
;
loop_
_citation_id
_citation_journal_abbrev
_citation_year
_citation_journal_volume
_citation_page_first
_citation_page_last
_citation_journal_id_ASTM
primary 'Solid State Phenomena' 2013 194 133 138 SSPOC3
2 'Solid State Communications' 1973 12 481 483 SSCOA4
_publ_author_name
;
Ho, Ching-Hwa;Pan, Chia-Chi;Cai, Jian-Rong;Huang, Guan-Tzu;Dumcenco, 
Dumitru O.;Huang, Ying-Sheng;Tiong, Kwong-Kau;Wu, Ching-Cherng
;
_cell_length_a                     5.338(5)
_cell_length_b                     5.338(5)
_cell_length_c                     10.442(7)
_cell_angle_alpha                  90.
_cell_angle_beta                   90.
_cell_angle_gamma                  90.
_cell_volume                       297.54
_cell_formula_units_Z              4
_symmetry_space_group_name_H-M     'I -4 2 d'
_symmetry_Int_Tables_number        122
loop_
_symmetry_equiv_pos_site_id
_symmetry_equiv_pos_as_xyz
  1	'-y, -x+.5, z+.25'
  2	'y, -x, -z'
  3	'y, x+.5, z+.25'
  4	'-y, x, -z'
  5	'x, -y+.5, -z+.25'
  6	'-x, -y, z'
  7	'-x, y+.5, -z+.25'
  8	'x, y, z'
  9	'-y+.5, -x, z+.75'
 10	'y+.5, -x+.5, -z+.5'
 11	'y+.5, x, z+.75'
 12	'-y+.5, x+.5, -z+.5'
 13	'x+.5, -y, -z+.75'
 14	'-x+.5, -y+.5, z+.5'
 15	'-x+.5, y, -z+.75'
 16	'x+.5, y+.5, z+.5'
loop_
_atom_type_symbol
_atom_type_oxidation_number
Al3+	3
Cu1+	1
S2-	-2
loop_
_atom_site_label
_atom_site_type_symbol
_atom_site_symmetry_multiplicity
_atom_site_Wyckoff_symbol
_atom_site_fract_x
_atom_site_fract_y
_atom_site_fract_z
_atom_site_occupancy
_atom_site_attached_hydrogens
Cu1 Cu1+ 4 a 0 0 0 1. 0 
Al1 Al3+ 4 b 0 0 0.5 1. 0 
S1 S2- 8 d 0.268 0.250 0.125 1. 0 

#End of data_189083-ICSD


