data_40480-ICSD
#?2014 by Fachinformationszentrum Karlsruhe, and the U.S. Secretary of 
#Commerce on behalf of the United States.  All rights reserved.
_database_code_ICSD                40480
_audit_creation_date               1999/06/02
_audit_update_record               2007/08/01
_chemical_name_systematic          'Cesium Silver Bromide'
_chemical_formula_structural       'Cs Ag Br2'
_chemical_formula_sum              'Ag1 Br2 Cs1'
_publ_section_title
;
Ternaere Bromide mit Lithium und Silber: Rb Li Br2, Cs Li Br2 und Cs 
Ag Br2
;
loop_
_citation_id
_citation_journal_abbrev
_citation_year
_citation_journal_volume
_citation_page_first
_citation_page_last
_citation_journal_id_ASTM
primary 'Zeitschrift fuer Anorganische und Allgemeine Chemie (1950) (DE)'
 1984 513 15 21 ZAACAB
_publ_author_name                  'Gaebell, H.C.;Meyer, G.'
_cell_length_a                     19.9000(30)
_cell_length_b                     4.5767(7)
_cell_length_c                     5.9487(7)
_cell_angle_alpha                  90.
_cell_angle_beta                   90.
_cell_angle_gamma                  90.
_cell_volume                       541.79
_cell_formula_units_Z              4
_symmetry_space_group_name_H-M     'C c m m'
_symmetry_Int_Tables_number        63
loop_
_symmetry_equiv_pos_site_id
_symmetry_equiv_pos_as_xyz
  1	'x, -y, -z+.5'
  2	'-x, -y, z+.5'
  3	'x, -y, z'
  4	'-x, -y, -z'
  5	'-x, y, z+.5'
  6	'x, y, -z+.5'
  7	'-x, y, -z'
  8	'x, y, z'
  9	'x+.5, -y+.5, -z+.5'
 10	'-x+.5, -y+.5, z+.5'
 11	'x+.5, -y+.5, z'
 12	'-x+.5, -y+.5, -z'
 13	'-x+.5, y+.5, z+.5'
 14	'x+.5, y+.5, -z+.5'
 15	'-x+.5, y+.5, -z'
 16	'x+.5, y+.5, z'
loop_
_atom_type_symbol
_atom_type_oxidation_number
Ag1+	1
Br1-	-1
Cs1+	1
loop_
_atom_site_label
_atom_site_type_symbol
_atom_site_symmetry_multiplicity
_atom_site_Wyckoff_symbol
_atom_site_fract_x
_atom_site_fract_y
_atom_site_fract_z
_atom_site_occupancy
_atom_site_attached_hydrogens
Cs1 Cs1+ 4 c 0.583 0 0.25 1. 0 
Ag1 Ag1+ 4 c 0.2 0 0.75 1. 0 
Br1 Br1- 4 c 0.929 0 0.25 1. 0 
Br2 Br1- 4 c 0.22 0 0.25 1. 0 

#End of data_40480-ICSD


