data_154111-ICSD
#?2014 by Fachinformationszentrum Karlsruhe, and the U.S. Secretary of 
#Commerce on behalf of the United States.  All rights reserved.
_database_code_ICSD                154111
_audit_creation_date               2007/04/01
_chemical_name_systematic
;
Potassium Tetramagnesium Tris(phosphate(V))
;
_chemical_formula_structural       'K Mg4 (P O4)3'
_chemical_formula_sum              'K1 Mg4 O12 P3'
_publ_section_title
;
Crystal structure and vibrational properties of K Mg4 (P O4)3
;
loop_
_citation_id
_citation_journal_abbrev
_citation_year
_citation_journal_volume
_citation_page_first
_citation_page_last
_citation_journal_id_ASTM
primary 'Solid State Sciences' 2005 7 1201 1208 SSSCFJ
_publ_author_name
;
Tomaszewski, P.E.;Maczka, M.;Majchrowski, A.;Waskowska, A.;Hanuza, J.
;
_cell_length_a                     16.361(3)
_cell_length_b                     9.5620(19)
_cell_length_c                     6.1712(12)
_cell_angle_alpha                  90.
_cell_angle_beta                   90.
_cell_angle_gamma                  90.
_cell_volume                       965.45
_cell_formula_units_Z              4
_symmetry_space_group_name_H-M     'P n n m'
_symmetry_Int_Tables_number        58
_refine_ls_R_factor_all            .0233
loop_
_symmetry_equiv_pos_site_id
_symmetry_equiv_pos_as_xyz
  1	'x+.5, -y+.5, z+.5'
  2	'-x+.5, y+.5, z+.5'
  3	'x, y, -z'
  4	'-x, -y, -z'
  5	'-x+.5, y+.5, -z+.5'
  6	'x+.5, -y+.5, -z+.5'
  7	'-x, -y, z'
  8	'x, y, z'
loop_
_atom_type_symbol
_atom_type_oxidation_number
K1+	1
Mg2+	2
O2-	-2
P5+	5
loop_
_atom_site_label
_atom_site_type_symbol
_atom_site_symmetry_multiplicity
_atom_site_Wyckoff_symbol
_atom_site_fract_x
_atom_site_fract_y
_atom_site_fract_z
_atom_site_occupancy
_atom_site_attached_hydrogens
_atom_site_U_iso_or_equiv
P1 P5+ 4 g 0.2213(1) 0.9558(1) 0 1. 0 0.006(1) 
O1 O2- 4 g 0.2270(1) 0.1165(2) 0 1. 0 0.009(1) 
O2 O2- 8 h 0.1822(1) 0.8993(1) 0.2064(2) 1. 0 0.010(1) 
O3 O2- 4 g 0.3095(1) 0.8921(2) 0 1. 0 0.007(1) 
P2 P5+ 4 g 0.1664(1) 0.5447(1) 0 1. 0 0.006(1) 
O4 O2- 4 g 0.1799(1) 0.3839(2) 0 1. 0 0.009(1) 
O5 O2- 8 h 0.1219(1) 0.5904(1) 0.2028(2) 1. 0 0.010(1) 
O6 O2- 4 g 0.2542(1) 0.6155(2) 0 1. 0 0.008(1) 
P3 P5+ 4 g 0.4638(1) 0.7091(1) 0 1. 0 0.007(1) 
O7 O2- 4 g 0.4792(1) 0.8676(2) 0 1. 0 0.011(1) 
O8 O2- 8 h 0.4111(1) 0.6638(1) 0.1962(2) 1. 0 0.011(1) 
O9 O2- 4 g 0.5460(1) 0.6386(2) 0 1. 0 0.013(1) 
Mg1 Mg2+ 4 g 0.3578(1) 0.4791(1) 0 1. 0 0.008(1) 
Mg2 Mg2+ 8 h 0.2019(1) 0.2489(1) 0.2461(1) 1. 0 0.009(1) 
Mg3 Mg2+ 4 g 0.0919(1) 0.5374(1) 0.5 1. 0 0.007(1) 
K1 K1+ 4 g 0.0345(1) 0.7997(1) 0 1. 0 0.020(1) 

loop_
_atom_site_aniso_label
_atom_site_aniso_type_symbol
_atom_site_aniso_U_11
_atom_site_aniso_U_22
_atom_site_aniso_U_33
_atom_site_aniso_U_12
_atom_site_aniso_U_13
_atom_site_aniso_U_23
P1 P5+ 0.006(1) 0.005(1) 0.006(1) 0.000(1) 0.000 0.000
O1 O2- 0.013(1) 0.006(1) 0.009(1) 0.001(1) 0.000 0.000
O2 O2- 0.012(1) 0.009(1) 0.009(1) -0.001(1) 0.003(1) 0.000(1)
O3 O2- 0.006(1) 0.006(1) 0.010(1) 0.001(1) 0.000 0.000
P2 P5+ 0.006(1) 0.005(1) 0.006(1) 0.000(1) 0.000 0.000
O4 O2- 0.013(1) 0.005(1) 0.009(1) 0.000(1) 0.000 0.000
O5 O2- 0.012(1) 0.011(1) 0.008(1) 0.002(1) 0.003(1) 0.001(1)
O6 O2- 0.006(1) 0.007(1) 0.010(1) -0.001(1) 0.000 0.000
P3 P5+ 0.005(1) 0.006(1) 0.009(1) 0.000(1) 0.000 0.000
O7 O2- 0.008(1) 0.006(1) 0.018(1) -0.001(1) 0.000 0.000
O8 O2- 0.010(1) 0.012(1) 0.012(1) 0.000(1) 0.002(1) 0.003(1)
O9 O2- 0.007(1) 0.011(1) 0.020(1) 0.002(1) 0.000 0.000
Mg1 Mg2+ 0.007(1) 0.009(1) 0.009(1) 0.002(1) 0.000 0.000
Mg2 Mg2+ 0.011(1) 0.008(1) 0.007(1) 0.000(1) 0.001(1) 0.000(1)
Mg3 Mg2+ 0.007(1) 0.008(1) 0.007(1) 0.000(1) 0.000 0.000
K1 K1+ 0.015(1) 0.028(1) 0.016(1) 0.007(1) 0.000 0.000
#End of data_154111-ICSD


