data_380015-ICSD
#?2014 by Fachinformationszentrum Karlsruhe, and the U.S. Secretary of 
#Commerce on behalf of the United States.  All rights reserved.
_database_code_ICSD                380015
_audit_creation_date               1994/06/30
_audit_update_record               2000/07/15
_chemical_name_systematic
;
Potassium Copper(I) Diholmium Tetramolybdenum Oxide
;
_chemical_formula_structural       'K Cu Ho2 Mo4 O16'
_chemical_formula_sum              'Cu1 Ho2 K1 Mo4 O16'
_publ_section_title
;
Synthese und Kristallstruktur von K Cu Ho2 Mo4 O16
;
loop_
_citation_id
_citation_journal_abbrev
_citation_year
_citation_journal_volume
_citation_page_first
_citation_page_last
_citation_journal_id_ASTM
primary 'Zeitschrift fuer Naturforschung, B: Chemical Sciences'
 1994 49 350 354 ZNBSEN
_publ_author_name                  'Szillat, H.;Mueller Buschbaum, H.'
_cell_length_a                     5.216(1)
_cell_length_b                     12.513(2)
_cell_length_c                     19.5310(20)
_cell_angle_alpha                  90.
_cell_angle_beta                   92.903(18)
_cell_angle_gamma                  90.
_cell_volume                       1273.11
_cell_formula_units_Z              4
_symmetry_space_group_name_H-M     'C 1 2/c 1'
_symmetry_Int_Tables_number        15
_refine_ls_R_factor_all            .033
loop_
_symmetry_equiv_pos_site_id
_symmetry_equiv_pos_as_xyz
  1	'x, -y, z+.5'
  2	'-x, -y, -z'
  3	'-x, y, -z+.5'
  4	'x, y, z'
  5	'x+.5, -y+.5, z+.5'
  6	'-x+.5, -y+.5, -z'
  7	'-x+.5, y+.5, -z+.5'
  8	'x+.5, y+.5, z'
loop_
_atom_type_symbol
_atom_type_oxidation_number
Cu1+	1
Ho3+	3
K1+	1
Mo6+	6
O2-	-2
loop_
_atom_site_label
_atom_site_type_symbol
_atom_site_symmetry_multiplicity
_atom_site_Wyckoff_symbol
_atom_site_fract_x
_atom_site_fract_y
_atom_site_fract_z
_atom_site_occupancy
_atom_site_attached_hydrogens
Ho1 Ho3+ 8 f 0.9986(1) 0.8524 0.0314 1. 0 
Mo1 Mo6+ 8 f 0.0132(2) 0.5610(1) 0.0907 1. 0 
Mo2 Mo6+ 8 f 0.0084(2) 0.2586(1) 0.1465 1. 0 
Cu1 Cu1+ 4 e 0 0.691 0.25 1. 0 
K1 K1+ 4 e 0 0.9707(3) 0.25 1. 0 
O1 O2- 8 f 0.8223(8) 0.2378(5) 0.4326(4) 1. 0 
O2 O2- 8 f 0.1642(8) 0.3313(5) 0.5430(4) 1. 0 
O3 O2- 8 f 0.7389(8) 0.4806(6) 0.5368(4) 1. 0 
O4 O2- 8 f 0.1256(8) 0.1394(6) 0.3280(4) 1. 0 
O5 O2- 8 f 0.8951(8) 0.4105(6) 0.6692(4) 1. 0 
O6 O2- 8 f 0.7759(8) 0.2998(6) 0.2878(4) 1. 0 
O7 O2- 8 f 0.7760(8) 0.4527(5) 0.3997(4) 1. 0 
O8 O2- 8 f 0.2539(8) 0.3484(6) 0.3694(4) 1. 0 

loop_
_atom_site_aniso_label
_atom_site_aniso_type_symbol
_atom_site_aniso_B_11
_atom_site_aniso_B_22
_atom_site_aniso_B_33
_atom_site_aniso_B_12
_atom_site_aniso_B_13
_atom_site_aniso_B_23
Ho1 Ho3+ 0.624(8) 0.616(8) 0.647(8) 0.008(8) -.016(8) 0.016(8)
Mo1 Mo6+ 0.679(23) 0.764(23) 0.655(23) -.039(16) 0.008(16) 0.023(16)
Mo2 Mo6+ 0.679(23) 0.897(23) 0.647(23) 0.062(16) 0.000(16) 0.078(16)
Cu1 Cu1+ 2.395(47) 1.544(47) 1.685(47) 0 -.983(47) 0
K1 K1+ 2.769(55) 0.913(55) 2.168(55) 0 -.764(55) 0
O1 O2- 0.905(62) 0.998(62) 0.967(62) 0.554(55) 0.187(55) 0.023(55)
O2 O2- 0.959(62) 0.694(55) 1.139(62) 0.206(55) 0.203(55) 0.117(55)
O3 O2- 1.131(62) 0.772(62) 1.287(62) -.047(55) -.257(55) -.016(55)
O4 O2- 1.318(62) 1.412(62) 1.466(62) -.156(62) -.226(62) -.304(62)
O5 O2- 1.310(62) 1.435(62) 0.905(62) 0.390(62) 0.133(55) 0.484(55)
O6 O2- 1.318(62) 1.217(62) 0.827(78) -.523(55) -.234(55) -.312(55)
O7 O2- 0.827(62) 0.772(55) 1.186(62) 0.047(55) -.109(55) 0.031(55)
O8 O2- 1.045(62) 1.326(62) 0.889(62) -.016(62) -.172(55) 0.203(55)
#End of data_380015-ICSD


