data_39761-ICSD
#?2014 by Fachinformationszentrum Karlsruhe, and the U.S. Secretary of 
#Commerce on behalf of the United States.  All rights reserved.
_database_code_ICSD                39761
_audit_creation_date               1994/06/30
_audit_update_record               2013/08/01
_chemical_name_systematic
;
Lithium Titanium Oxide Phosphate(V) - Alpha, Ht
;
_chemical_formula_structural       'Li Ti O (P O4)'
_chemical_formula_sum              'Li1 O5 P1 Ti1'
_publ_section_title
;
Crystal structure and EPR V4(+) in lithium-titanium double 
oxiorthophosphate, alpha-Li Ti O P O4
;
loop_
_citation_id
_citation_journal_abbrev
_citation_year
_citation_journal_volume
_citation_journal_issue
_citation_page_first
_citation_page_last
_citation_journal_id_ASTM
primary Kristallografiya 1993 38 6 88 94 KRISAJ
2 'Crystallography Reports' 1993 38- 759 762 CYSTE3
_publ_author_name
;
Geifman, I.N.;Furmanova, N.G.;Nagornyi, P.G.;Li, D.Y.;Rotenfel'd, 
M.V.
;
_cell_length_a                     6.904(1)
_cell_length_b                     7.197(2)
_cell_length_c                     7.903(1)
_cell_angle_alpha                  90.45(2)
_cell_angle_beta                   91.31
_cell_angle_gamma                  117.19(2)
_cell_volume                       349.13
_cell_formula_units_Z              4
_symmetry_space_group_name_H-M     'P -1'
_symmetry_Int_Tables_number        2
_refine_ls_R_factor_all            .042
loop_
_symmetry_equiv_pos_site_id
_symmetry_equiv_pos_as_xyz
  1	'-x, -y, -z'
  2	'x, y, z'
loop_
_atom_type_symbol
_atom_type_oxidation_number
Li1+	1
O2-	-2
P5+	5
Ti4+	4
loop_
_atom_site_label
_atom_site_type_symbol
_atom_site_symmetry_multiplicity
_atom_site_Wyckoff_symbol
_atom_site_fract_x
_atom_site_fract_y
_atom_site_fract_z
_atom_site_occupancy
_atom_site_attached_hydrogens
_atom_site_B_iso_or_equiv
Ti1 Ti4+ 2 i 0.24990(5) 0.02592(5) 0.76389(4) 1. 0 0.32(1) 
Ti2 Ti4+ 2 i 0.75415(5) 0.47713(5) 0.26238(4) 1. 0 0.35(1) 
P1 P5+ 2 i 0.26526(7) 0.24153(7) 0.40733(6) 1. 0 0.34(1) 
P2 P5+ 2 i 0.76719(7) 0.24667(7) 0.90701(6) 1. 0 0.33(1) 
O1 O2- 2 i 0.3480(2) 0.1178(2) 0.5225(1) 1. 0 0.60(4) 
O2 O2- 2 i 0.2287(2) 0.4011(2) 0.5127(1) 1. 0 0.78(4) 
O3 O2- 2 i 0.4273(2) 0.3526(2) 0.2678(1) 1. 0 0.65(4) 
O4 O2- 2 i 0.0557(2) 0.0901(2) 0.3130(1) 1. 0 0.79(4) 
O5 O2- 2 i 0.7370(2) 0.4125(2) 0.0118(1) 1. 0 0.66(4) 
O6 O2- 2 i 0.8572(2) 0.1314(2) 0.0228(1) 1. 0 0.61(4) 
O7 O2- 2 i 0.5538(2) 0.0896(2) 0.8182(1) 1. 0 0.66(4) 
O8 O2- 2 i 0.9218(2) 0.3496(2) 0.7617(1) 1. 0 0.64(4) 
O9 O2- 2 i 0.2687(2) 0.2568(2) 0.8355(1) 1. 0 0.64(4) 
O10 O2- 2 i 0.7659(2) 0.2599(2) 0.3327(1) 1. 0 0.64(4) 
Li1 Li1+ 2 i 0.2094(9) 0.2917(9) 0.0697(6) 1. 0 2.2(2) 
Li2 Li1+ 2 i 0.6917(10) 0.1843(10) 0.5670(7) 1. 0 2.7(2) 

#End of data_39761-ICSD


