data_413884-ICSD
#?2014 by Fachinformationszentrum Karlsruhe, and the U.S. Secretary of 
#Commerce on behalf of the United States.  All rights reserved.
_database_code_ICSD                413884
_audit_creation_date               2005/04/01
_audit_update_record               2011/02/01
_chemical_name_systematic
;
Tripotassium Dihydroxooctaoxoeuropiotrisilicate
;
_chemical_formula_structural       'K3 (Eu Si3 O8 (O H)2)'
_chemical_formula_sum              'H2 Eu1 K3 O10 Si3'
_publ_section_title
;
Photoluminescent layered lanthanide silicates
;
loop_
_citation_id
_citation_journal_abbrev
_citation_year
_citation_journal_volume
_citation_page_first
_citation_page_last
_citation_journal_id_ASTM
primary 'Journal of the American Chemical Society' 2004 126 10410 10417 JACSAT
_publ_author_name
;
Ananias, D.;Kostova, M.;Paz, F.A.A.;Ferreira, A.;Carlos, 
L.D.;Klinowski, J.;Rocha, J.
;
_cell_length_a                     13.2462(2)
_cell_length_b                     13.6103(3)
_cell_length_c                     5.9436(2)
_cell_angle_alpha                  90
_cell_angle_beta                   90
_cell_angle_gamma                  90
_cell_volume                       1071.54
_cell_formula_units_Z              4
_symmetry_space_group_name_H-M     'P n m a'
_symmetry_Int_Tables_number        62
_refine_ls_R_factor_all            .144
loop_
_symmetry_equiv_pos_site_id
_symmetry_equiv_pos_as_xyz
  1	'x+.5, y, -z+.5'
  2	'x, -y+.5, z'
  3	'-x+.5, y+.5, z+.5'
  4	'-x, -y, -z'
  5	'-x+.5, -y, z+.5'
  6	'-x, y+.5, -z'
  7	'x+.5, -y+.5, -z+.5'
  8	'x, y, z'
loop_
_atom_type_symbol
_atom_type_oxidation_number
Eu3+	3
H1+	1
K1+	1
O2-	-2
Si4+	4
loop_
_atom_site_label
_atom_site_type_symbol
_atom_site_symmetry_multiplicity
_atom_site_Wyckoff_symbol
_atom_site_fract_x
_atom_site_fract_y
_atom_site_fract_z
_atom_site_occupancy
_atom_site_attached_hydrogens
_atom_site_U_iso_or_equiv
Eu1 Eu3+ 4 c 0.0415(1) 0.25000 0.0805(5) 1 0 0.0117(6) 
Si1 Si4+ 4 c 0.2507(5) 0.25000 0.437(2) 1 0 0.009(1) 
Si2 Si4+ 8 d 0.0977(4) 0.39661(5) 0.584(1) 1 0 0.009(1) 
K1 K1+ 4 c 0.3723(4) 0.25000 -0.079(2) 1 0 0.027(1) 
K2 K1+ 8 d 0.3622(3) 0.48564(4) 0.579(1) 1 0 0.027(1) 
O1 O2- 4 c 0.2066(9) 0.25000 0.180(2) 1 0 0.014(2) 
O2 O2- 8 d 0.2089(6) 0.34527(9) 0.574(3) 1 0 0.014(2) 
O3 O2- 8 d 0.1332(8) 0.51344(9) 0.578(1) 1 0 0.014(2) 
O4 O2- 8 d 0.0297(7) 0.36126(9) 0.386(2) 1 0 0.014(2) 
O5 O2- 8 d 0.0466(9) 0.36980(9) -0.191(2) 1 0 0.014(2) 
O6 O2- 4 c -0.1313(8) 0.25000 0.083(3) 1 0 0.014(2) 
H1 H1+ 8 d 0.11(1) 0.49(1) 0.72(1) 1 0 0.014 

#End of data_413884-ICSD


