data_61203-ICSD
#?2014 by Fachinformationszentrum Karlsruhe, and the U.S. Secretary of 
#Commerce on behalf of the United States.  All rights reserved.
_database_code_ICSD                61203
_audit_creation_date               1986/12/03
_audit_update_record               2004/10/01
_chemical_name_systematic          'Cesium Pentalithium Bis(borate)'
_chemical_formula_structural       'Cs Li5 (B O3)2'
_chemical_formula_sum              'B2 Cs1 Li5 O6'
_publ_section_title
;
Neue Borate der Alkalimetalle: Cs Li5 (B O3)2
;
loop_
_citation_id
_citation_journal_abbrev
_citation_year
_citation_journal_volume
_citation_page_first
_citation_page_last
_citation_journal_id_ASTM
primary 'Zeitschrift fuer Anorganische und Allgemeine Chemie (1950) (DE)'
 1986 536 92 100 ZAACAB
_publ_author_name                  'Miessen, M.;Hoppe, R.'
_cell_length_a                     11.795(2)
_cell_length_b                     9.433(2)
_cell_length_c                     8.096(3)
_cell_angle_alpha                  90.
_cell_angle_beta                   132.76(8)
_cell_angle_gamma                  90.
_cell_volume                       661.36
_cell_formula_units_Z              4
_symmetry_space_group_name_H-M     'C 1 2/c 1'
_symmetry_Int_Tables_number        15
_refine_ls_R_factor_all            .0566
loop_
_symmetry_equiv_pos_site_id
_symmetry_equiv_pos_as_xyz
  1	'x, -y, z+.5'
  2	'-x, -y, -z'
  3	'-x, y, -z+.5'
  4	'x, y, z'
  5	'x+.5, -y+.5, z+.5'
  6	'-x+.5, -y+.5, -z'
  7	'-x+.5, y+.5, -z+.5'
  8	'x+.5, y+.5, z'
loop_
_atom_type_symbol
_atom_type_oxidation_number
B3+	3
Cs1+	1
Li1+	1
O2-	-2
loop_
_atom_site_label
_atom_site_type_symbol
_atom_site_symmetry_multiplicity
_atom_site_Wyckoff_symbol
_atom_site_fract_x
_atom_site_fract_y
_atom_site_fract_z
_atom_site_occupancy
_atom_site_attached_hydrogens
Cs1 Cs1+ 4 e 0 0.3071 0.75 1. 0 
Li1 Li1+ 8 f 0.3859(6) 0.6824(5) 0.0375(9) 1. 0 
Li2 Li1+ 8 f 0.1014(6) 0.6310(6) 0.7269(9) 1. 0 
Li3 Li1+ 4 a 0.5 0.5 0 1. 0 
B1 B3+ 8 f 0.2596(4) 0.4284(3) 0.6888(5) 1. 0 
O1 O2- 8 f 0.6171(2) 0.8873(2) 0.4930(3) 1. 0 
O2 O2- 8 f 0.8896(2) 0.8458(2) 0.7844(4) 1. 0 
O3 O2- 8 f 0.2821(2) 0.5517(2) 0.7997(4) 1. 0 

loop_
_atom_site_aniso_label
_atom_site_aniso_type_symbol
_atom_site_aniso_U_11
_atom_site_aniso_U_22
_atom_site_aniso_U_33
_atom_site_aniso_U_12
_atom_site_aniso_U_13
_atom_site_aniso_U_23
Cs1 Cs1+ 0.0569(3) 0.0239(2) 0.0354(2) 0 0.0387(2) 0
Li1 Li1+ 0.0169(22) 0.0094(20) 0.0151(21) 0.0000(18) 0.0098(19) -.0004(18)
Li2 Li1+ 0.0124(23) 0.0133(21) 0.0153(22) 0.0023(18) 0.0075(20) 0.0010(18)
Li3 Li1+ 0.0150(28) 0.0211(30) 0.0167(30) 0 0.0078(25) 0
B1 B3+ 0.0087(13) 0.0110(12) 0.0087(13) -.0006(11) 0.0047(12) -.0012(10)
O1 O2- 0.0095(10) 0.0123(9) 0.0106(9) -.0022(7) 0.0044(9) -.0035(7)
O2 O2- 0.0112(10) 0.0122(9) 0.0122(9) 0.0016(7) 0.0066(9) -.0014(7)
O3 O2- 0.0091(10) 0.0133(11) 0.0117(10) 0.0002(9) 0.0034(10) -.0019(9)
#End of data_61203-ICSD


