data_87569-ICSD
#?2014 by Fachinformationszentrum Karlsruhe, and the U.S. Secretary of 
#Commerce on behalf of the United States.  All rights reserved.
_database_code_ICSD                87569
_audit_creation_date               2000/12/16
_chemical_name_systematic
;
Dipotassium Molybdenum Dioxide Bis(sulfate(VI))
;
_chemical_formula_structural       'K2 Mo O2 (S O4)2'
_chemical_formula_sum              'K2 Mo1 O10 S2'
_publ_section_title
;
The reaction between Mo O3 and molten K2 S2 O7 forming K2 Mo O2 (S 
O4)2, studied by Raman and IR spectroscopy and X-ray crystal 
structure determination
;
loop_
_citation_id
_citation_journal_abbrev
_citation_year
_citation_journal_volume
_citation_page_first
_citation_page_last
_citation_journal_id_ASTM
primary 'Electrochemical Society Proceedings' 1998 98 553 573 PESODO
_publ_author_name
;
Noerbygaard, T.;Berg, R.W.;Nielsen, K.
;
_cell_length_a                     9.0144(3)
_cell_length_b                     12.4540(4)
_cell_length_c                     8.8874(3)
_cell_angle_alpha                  90.
_cell_angle_beta                   112.194(1)
_cell_angle_gamma                  90.
_cell_volume                       923.82
_cell_formula_units_Z              4
_symmetry_space_group_name_H-M     'P 1 21/c 1'
_symmetry_Int_Tables_number        14
_refine_ls_R_factor_all            .083
loop_
_symmetry_equiv_pos_site_id
_symmetry_equiv_pos_as_xyz
  1	'x, -y+.5, z+.5'
  2	'-x, -y, -z'
  3	'-x, y+.5, -z+.5'
  4	'x, y, z'
loop_
_atom_type_symbol
_atom_type_oxidation_number
K1+	1
Mo6+	6
O2-	-2
S6+	6
loop_
_atom_site_label
_atom_site_type_symbol
_atom_site_symmetry_multiplicity
_atom_site_Wyckoff_symbol
_atom_site_fract_x
_atom_site_fract_y
_atom_site_fract_z
_atom_site_occupancy
_atom_site_attached_hydrogens
_atom_site_U_iso_or_equiv
Mo1 Mo6+ 4 e 0.22155(4) 0.16810(3) 0.34641(4) 1. 0 0.0161(1) 
S1 S6+ 4 e 0.43285(12) 0.35798(8) 0.62827(13) 1. 0 0.0159(2) 
S2 S6+ 4 e 0.96370(13) 0.30082(10) 0.02673(13) 1. 0 0.0190(2) 
K1 K1+ 4 e 0.67997(15) 0.12213(10) 0.7049(2) 1. 0 0.0355(3) 
K2 K1+ 4 e 0.8037(2) 0.01497(11) 0.1986(2) 1. 0 0.0409(3) 
O1 O2- 4 e 0.3002(4) 0.3208(3) 0.4778(4) 1. 0 0.0229(7) 
O2 O2- 4 e 0.1130(4) 0.2959(3) 0.1749(4) 1. 0 0.0220(6) 
O3 O2- 4 e 0.1402(4) 0.0687(3) 0.2111(4) 1. 0 0.0260(7) 
O4 O2- 4 e 0.4237(4) 0.4730(3) 0.6381(4) 1. 0 0.0257(7) 
O5 O2- 4 e 0.5859(4) 0.3196(3) 0.6359(4) 1. 0 0.0266(7) 
O6 O2- 4 e 0.3320(4) 0.1008(3) 0.5175(4) 1. 0 0.0310(8) 
O7 O2- 4 e 0.4037(4) 0.1931(3) 0.2718(4) 1. 0 0.0215(6) 
O8 O2- 4 e 0.0175(4) 0.1887(4) 0.3852(4) 1. 0 0.0308(9) 
O9 O2- 4 e 0.8698(5) 0.2052(4) 0.0030(5) 1. 0 0.0482(12) 
O10 O2- 4 e 0.8780(5) 0.3974(4) 0.0306(5) 1. 0 0.0472(12) 

#End of data_87569-ICSD


