data_425758-ICSD
#?2014 by Fachinformationszentrum Karlsruhe, and the U.S. Secretary of 
#Commerce on behalf of the United States.  All rights reserved.
_database_code_ICSD                425758
_audit_creation_date               2014/02/01
_chemical_name_systematic          'Hexasilver Divanado(V)diarsenate'
_chemical_formula_structural       'Ag6 (V2 As2 O13)'
_chemical_formula_sum              'Ag6 As2 O13 V2'
_publ_section_title
;
Novel polyanonic topologies in Ag2 V As O6 and Ag6 V2 As2 O13
;
loop_
_citation_id
_citation_journal_abbrev
_citation_year
_citation_journal_volume
_citation_journal_issue
_citation_page_first
_citation_page_last
_citation_journal_id_ASTM
primary 'Zeitschrift fuer Naturforschung, B: Chemical Sciences'
 2013 68 5-6 611 615 ZNBSEN
_publ_author_name                  'Nuss, J.;Curda, J.;Jansen. M.'
_cell_length_a                     18.959(2)
_cell_length_b                     5.3640(6)
_cell_length_c                     13.0847(15)
_cell_angle_alpha                  90.00
_cell_angle_beta                   113.578(2)
_cell_angle_gamma                  90.00
_cell_volume                       1219.57
_cell_formula_units_Z              4
_symmetry_space_group_name_H-M     'C 1 2/c 1'
_symmetry_Int_Tables_number        15
_refine_ls_R_factor_all            .0302
loop_
_symmetry_equiv_pos_site_id
_symmetry_equiv_pos_as_xyz
  1	'x, -y, z+.5'
  2	'-x, -y, -z'
  3	'-x, y, -z+.5'
  4	'x, y, z'
  5	'x+.5, -y+.5, z+.5'
  6	'-x+.5, -y+.5, -z'
  7	'-x+.5, y+.5, -z+.5'
  8	'x+.5, y+.5, z'
loop_
_atom_type_symbol
_atom_type_oxidation_number
Ag1+	1
As5+	5
O2-	-2
V5+	5
loop_
_atom_site_label
_atom_site_type_symbol
_atom_site_symmetry_multiplicity
_atom_site_Wyckoff_symbol
_atom_site_fract_x
_atom_site_fract_y
_atom_site_fract_z
_atom_site_occupancy
_atom_site_attached_hydrogens
_atom_site_U_iso_or_equiv
Ag1 Ag1+ 8 f 0.294735(16) 0.51895(5) 0.29434(2) 1 0 0.02336(8) 
Ag2 Ag1+ 8 f 0.302353(18) 0.50068(5) 0.54205(3) 1 0 0.02645(8) 
Ag3 Ag1+ 8 f 0.495224(17) 0.47712(5) 0.61078(3) 1 0 0.02921(9) 
As1 As5+ 8 f 0.121603(17) 0.49865(5) 0.04443(2) 1 0 0.01222(8) 
V1 V5+ 8 f 0.09147(3) 0.47457(8) -0.22522(4) 1 0 0.01245(9) 
O1 O2- 4 e 0.0000 0.3622(5) 0.2500 1 0 0.0141(5) 
O2 O2- 8 f 0.07228(12) 0.4012(4) 0.12023(17) 1 0 0.0177(4) 
O3 O2- 8 f 0.21358(12) 0.3965(4) 0.11056(18) 1 0 0.0190(4) 
O4 O2- 8 f 0.08501(13) 0.3496(4) -0.08048(16) 1 0 0.0173(4) 
O5 O2- 8 f 0.10141(14) 0.1775(4) -0.25418(18) 1 0 0.0200(4) 
O6 O2- 8 f 0.11822(13) 0.8110(4) 0.03030(18) 1 0 0.0188(4) 
O7 O2- 8 f 0.17610(13) 0.6108(4) -0.16227(19) 1 0 0.0228(4) 

loop_
_atom_site_aniso_label
_atom_site_aniso_type_symbol
_atom_site_aniso_U_11
_atom_site_aniso_U_22
_atom_site_aniso_U_33
_atom_site_aniso_U_12
_atom_site_aniso_U_13
_atom_site_aniso_U_23
Ag1 Ag1+ 0.02282(13) 0.02419(12) 0.02039(12) 0.00191(8) 0.00581(9) 
-0.00404(7)
Ag2 Ag1+ 0.02848(15) 0.02626(13) 0.03324(15) 0.00375(8) 0.02141(12) 
0.00131(8)
Ag3 Ag1+ 0.02278(14) 0.01938(12) 0.03433(16) 0.00272(8) -0.00025(11) 
-0.00201(8)
As1 As5+ 0.01302(14) 0.01299(13) 0.01118(13) -0.00052(8) 0.00541(10) 
0.00047(8)
V1 V5+ 0.0112(2) 0.01343(19) 0.01303(19) -0.00031(14) 0.00523(15) 
-0.00109(13)
O1 O2- 0.0127(11) 0.0159(11) 0.0152(11) 0.000 0.0071(9) 0.000
O2 O2- 0.0203(9) 0.0205(9) 0.0156(8) -0.0053(8) 0.0108(7) -0.0013(7)
O3 O2- 0.0136(8) 0.0235(10) 0.0186(9) 0.0014(7) 0.0052(7) 0.0049(8)
O4 O2- 0.0227(10) 0.0174(8) 0.0125(8) -0.0037(7) 0.0078(7) -0.0014(7)
O5 O2- 0.0249(11) 0.0157(9) 0.0188(9) 0.0023(8) 0.0083(8) -0.0013(7)
O6 O2- 0.0230(10) 0.0137(8) 0.0202(9) -0.0010(7) 0.0092(8) 0.0026(7)
O7 O2- 0.0186(10) 0.0247(10) 0.0245(10) -0.0049(8) 0.0081(8) -0.0027(8)
#End of data_425758-ICSD


