data_97250-ICSD
#?2014 by Fachinformationszentrum Karlsruhe, and the U.S. Secretary of 
#Commerce on behalf of the United States.  All rights reserved.
_database_code_ICSD                97250
_audit_creation_date               2004/10/01
_chemical_name_systematic          'Sodium Chromium Catena-disilicate'
_chemical_formula_structural       'Na Cr (Si2 O6)'
_chemical_formula_sum              'Cr1 Na1 O6 Si2'
_chemical_name_mineral             Kosmochlor
_publ_section_title
;
High-pressure crystal structure of kosmochlor, Na Cr Si2 O6, and 
systematics of anisotropic compression in pyroxenes
;
loop_
_citation_id
_citation_journal_abbrev
_citation_year
_citation_journal_volume
_citation_page_first
_citation_page_last
_citation_journal_id_ASTM
primary 'American Mineralogist' 2003 88 1025 1032 AMMIAY
_publ_author_name
;
Origlieri, M.;Downs, R.T.;Thompson, R.M.;Pommier, C.J.S.;Denton, 
M.B.;Harlow, G.E.
;
_cell_length_a                     9.5720(3)
_cell_length_b                     8.7094(2)
_cell_length_c                     5.2678(2)
_cell_angle_alpha                  90
_cell_angle_beta                   107.498(3)
_cell_angle_gamma                  90
_cell_volume                       418.84
_cell_formula_units_Z              4
_symmetry_space_group_name_H-M     'C 1 2/c 1'
_symmetry_Int_Tables_number        15
_refine_ls_R_factor_all            .031
loop_
_symmetry_equiv_pos_site_id
_symmetry_equiv_pos_as_xyz
  1	'x, -y, z+.5'
  2	'-x, -y, -z'
  3	'-x, y, -z+.5'
  4	'x, y, z'
  5	'x+.5, -y+.5, z+.5'
  6	'-x+.5, -y+.5, -z'
  7	'-x+.5, y+.5, -z+.5'
  8	'x+.5, y+.5, z'
loop_
_atom_type_symbol
_atom_type_oxidation_number
Cr3+	3
Na1+	1
O2-	-2
Si4+	4
loop_
_atom_site_label
_atom_site_type_symbol
_atom_site_symmetry_multiplicity
_atom_site_Wyckoff_symbol
_atom_site_fract_x
_atom_site_fract_y
_atom_site_fract_z
_atom_site_occupancy
_atom_site_attached_hydrogens
_atom_site_B_iso_or_equiv
Na1 Na1+ 4 e 0 0.2999(2) 0.250 1. 0 1.55(4) 
Cr1 Cr3+ 4 e 0 0.90769(9) 0.250 1. 0 0.91(2) 
Si1 Si4+ 8 f 0.29259(9) 0.0918(1) 0.2343(2) 1. 0 0.92(2) 
O1 O2- 8 f 0.1137(3) 0.0784(3) 0.1366(5) 1. 0 1.01(4) 
O2 O2- 8 f 0.3605(3) 0.2589(3) 0.3033(5) 1. 0 1.25(4) 
O3 O2- 8 f 0.3529(3) 0.0095(3) 0.0092(5) 1. 0 1.14(4) 

#End of data_97250-ICSD


