data_250042-ICSD
#?2014 by Fachinformationszentrum Karlsruhe, and the U.S. Secretary of 
#Commerce on behalf of the United States.  All rights reserved.
_database_code_ICSD                250042
_audit_creation_date               2003/10/01
_chemical_name_systematic
;
Tetrasilver Dirubidium Tris(tetranitropalladate)
;
_chemical_formula_structural       'Ag4 Rb2 (Pd (N O2)4)3'
_chemical_formula_sum              'Ag4 N12 O24 Pd3 Rb2'
_publ_section_title
;
Configurations of (Pd (N O2)4)2- complex anion. Crystal structure of 
Ag4 A2 (M (N O2)4)3 phases (M= Pd, Pt; A= K, Rb)
;
loop_
_citation_id
_citation_journal_abbrev
_citation_year
_citation_journal_volume
_citation_page_first
_citation_page_last
_citation_journal_id_ASTM
primary 'Zhurnal Strukturnoi Khimii (Issue-No. from 1981)'
 2003 44 90 98 ZSTKAI
_publ_author_name
;
Gromilov, S.A.;Baidina, I.A.;Khranenko, S.P.;Alekseev, V.I.;Belyaev, 
A.V.
;
_cell_length_a                     7.205(1)
_cell_length_b                     24.011(6)
_cell_length_c                     7.534(1)
_cell_angle_alpha                  90
_cell_angle_beta                   98.52(1)
_cell_angle_gamma                  90
_cell_volume                       1288.99
_cell_formula_units_Z              2
_symmetry_space_group_name_H-M     'P 1 21/n 1'
_symmetry_Int_Tables_number        14
_refine_ls_R_factor_all            .0246
loop_
_symmetry_equiv_pos_site_id
_symmetry_equiv_pos_as_xyz
  1	'-x+.5, y+.5, -z+.5'
  2	'-x, -y, -z'
  3	'x+.5, -y+.5, z+.5'
  4	'x, y, z'
loop_
_atom_type_symbol
_atom_type_oxidation_number
Ag1+	1
N3+	3
O2-	-2
Pd2+	2
Rb1+	1
loop_
_atom_site_label
_atom_site_type_symbol
_atom_site_symmetry_multiplicity
_atom_site_Wyckoff_symbol
_atom_site_fract_x
_atom_site_fract_y
_atom_site_fract_z
_atom_site_occupancy
_atom_site_attached_hydrogens
_atom_site_U_iso_or_equiv
Pd1 Pd2+ 2 c 0.5 0.0 0.5 1. 0 0.016(1) 
Pd2 Pd2+ 4 e 0.3895(1) 0.1750(1) 0.2229(1) 1. 0 0.018(1) 
Ag1 Ag1+ 4 e 0.3904(1) 0.1836(1) -0.1893(1) 1. 0 0.029(1) 
Ag2 Ag1+ 4 e 0.8691(1) 0.0281(1) 0.1127(1) 1. 0 0.034(1) 
Rb1 Rb1+ 4 e -0.0993(2) 0.1336(1) 0.5932(1) 1. 0 0.031(1) 
N1 N3+ 4 e 0.3875(12) 0.0673(3) 0.6023(10) 1. 0 0.023(2) 
N2 N3+ 4 e 0.3011(11) -0.0029(3) 0.2786(11) 1. 0 0.025(2) 
N3 N3+ 4 e 0.5687(11) 0.1170(3) 0.1502(11) 1. 0 0.025(2) 
N4 N3+ 4 e 0.6085(12) 0.2281(4) 0.2869(10) 1. 0 0.026(2) 
N5 N3+ 4 e 0.2128(11) 0.2316(3) 0.2984(11) 1. 0 0.021(2) 
N6 N3+ 4 e 0.1666(11) 0.1237(3) 0.1510(12) 1. 0 0.023(2) 
O1 O2- 4 e 0.2430(10) 0.0621(3) 0.6724(10) 1. 0 0.043(2) 
O2 O2- 4 e 0.4648(10) 0.1136(3) 0.5971(9) 1. 0 0.034(2) 
O3 O2- 4 e 0.1410(9) -0.0202(3) 0.2929(10) 1. 0 0.039(2) 
O4 O2- 4 e 0.3392(10) 0.0101(3) 0.1304(9) 1. 0 0.032(2) 
O5 O2- 4 e 0.5915(10) 0.1126(3) -0.0080(10) 1. 0 0.037(2) 
O6 O2- 4 e 0.6606(9) 0.0858(3) 0.2636(9) 1. 0 0.028(2) 
O7 O2- 4 e 0.1586(10) 0.2275(3) 0.4428(9) 1. 0 0.036(2) 
O8 O2- 4 e 0.7717(10) 0.2103(3) 0.2975(10) 1. 0 0.038(2) 
O9 O2- 4 e 0.5851(10) 0.2785(3) 0.3036(9) 1. 0 0.029(2) 
O10 O2- 4 e 0.1574(10) 0.2719(3) 0.1986(10) 1. 0 0.039(2) 
O11 O2- 4 e 0.0879(10) 0.1027(3) 0.2700(10) 1. 0 0.034(2) 
O12 O2- 4 e 0.1125(11) 0.1124(3) -0.0051(10) 1. 0 0.038(2) 

#End of data_250042-ICSD


