data_159339-ICSD
#?2014 by Fachinformationszentrum Karlsruhe, and the U.S. Secretary of 
#Commerce on behalf of the United States.  All rights reserved.
_database_code_ICSD                159339
_audit_creation_date               2008/08/01
_chemical_name_systematic          'Calcium Oxotitanium Silicate'
_chemical_formula_structural       'Ca (Ti O) (Si O4)'
_chemical_formula_sum              'Ca1 O5 Si1 Ti1'
_chemical_name_mineral             Titanite
_publ_section_title                'Alpha-decay damage in titanite'
loop_
_citation_id
_citation_journal_abbrev
_citation_year
_citation_journal_volume
_citation_page_first
_citation_page_last
_citation_journal_id_ASTM
primary 'American Mineralogist' 1991 76 370 396 AMMIAY
_publ_author_name
;
Hawthorne, F.C.;Groat, L.A.;Raudsepp, M.;Ball, N.A.;Kimata, M.;Spike, 
F.D.;Gaba, R.;Halden, N.M.;Lumpkin, G.R.;Ewing, R.C.;Greegor, 
R.B.;Lytle, F.W.;Ercit, T.S.;Rossman, G.R.;Wicks, F.J.;Ramik, 
R.A.;Sherriff, B.L.;Fleet, M.E.;McCammon, C.
;
_cell_length_a                     6.554(1)
_cell_length_b                     8.708(1)
_cell_length_c                     7.069(1)
_cell_angle_alpha                  90.
_cell_angle_beta                   113.93(1)
_cell_angle_gamma                  90.
_cell_volume                       368.76
_cell_formula_units_Z              4
_symmetry_space_group_name_H-M     'C 1 2/c 1'
_symmetry_Int_Tables_number        15
_refine_ls_R_factor_all            .021
loop_
_symmetry_equiv_pos_site_id
_symmetry_equiv_pos_as_xyz
  1	'x, -y, z+.5'
  2	'-x, -y, -z'
  3	'-x, y, -z+.5'
  4	'x, y, z'
  5	'x+.5, -y+.5, z+.5'
  6	'-x+.5, -y+.5, -z'
  7	'-x+.5, y+.5, -z+.5'
  8	'x+.5, y+.5, z'
loop_
_atom_type_symbol
_atom_type_oxidation_number
Ca2+	2
O2-	-2
Si4+	4
Ti4+	4
loop_
_atom_site_label
_atom_site_type_symbol
_atom_site_symmetry_multiplicity
_atom_site_Wyckoff_symbol
_atom_site_fract_x
_atom_site_fract_y
_atom_site_fract_z
_atom_site_occupancy
_atom_site_attached_hydrogens
_atom_site_U_iso_or_equiv
Ca1 Ca2+ 4 e 0 0.1675(1) 0.750 1. 0 0.0187(2) 
Ti1 Ti4+ 4 b 0 0.5 0 1. 0 0.0119(2) 
Si1 Si4+ 4 e 0 0.1830(2) 0.250 1. 0 0.0070(3) 
O1 O2- 4 e 0 0.5719(2) 0.250 1. 0 0.0097(7) 
O2 O2- 8 f 0.1855(2) 0.0665(2) 0.4104(2) 1. 0 0.0113(5) 
O3 O2- 8 f 0.1027(2) 0.2897(2) 0.1186(2) 1. 0 0.0105(5) 

loop_
_atom_site_aniso_label
_atom_site_aniso_type_symbol
_atom_site_aniso_U_11
_atom_site_aniso_U_22
_atom_site_aniso_U_33
_atom_site_aniso_U_12
_atom_site_aniso_U_13
_atom_site_aniso_U_23
Ca1 Ca2+ 0.0090(3) 0.0072(3) 0.0309(4) 0. -0.0013(4) 0.
Ti1 Ti4+ 0.0072(2) 0.0087(3) 0.0174(3) 0.0000(2) 0.0025(2) 0.0041(2)
Si1 Si4+ 0.0065(3) 0.0064(4) 0.0078(3) 0. 0.0025(3) 0.
O1 O2- 0.0127(9) 0.0081(9) 0.0087(9) 0. 0.0047(8) 0.
O2 O2- 0.0082(7) 0.0107(7) 0.0126(7) 0.0006(6) 0.0015(5) 0.0018(5)
O3 O2- 0.0098(7) 0.0093(6) 0.0128(7) 0.0009(6) 0.0052(6) 0.0018(6)
#End of data_159339-ICSD


