data_290491-ICSD
#?2014 by Fachinformationszentrum Karlsruhe, and the U.S. Secretary of 
#Commerce on behalf of the United States.  All rights reserved.
_database_code_ICSD                290491
_audit_creation_date               2014/02/01
_chemical_name_systematic
;
Lithiun Dirutenium(III,IV) Tetraoxide
;
_chemical_formula_structural       'Li Ru2 O4'
_chemical_formula_sum              'Li1 O4 Ru2'
_publ_section_title
;
Synthesis, structure, and electrochemical Li-ion intercalation of Li 
Ru2 O4 with Ca Fe2 O4-type structure
;
loop_
_citation_id
_citation_journal_abbrev
_citation_year
_citation_journal_volume
_citation_page_first
_citation_page_last
_citation_journal_id_ASTM
primary 'Journal of Power Sources' 2013 233 285 289 JPSODZ
_publ_author_name
;
Jung, Young Hwa;Kim, Do Kyung;Hong, Seung-Tae
;
_cell_length_a                     9.13940(5)
_cell_length_b                     2.80070(9)
_cell_length_c                     11.0017(1)
_cell_angle_alpha                  90.
_cell_angle_beta                   90.
_cell_angle_gamma                  90.
_cell_volume                       281.61
_cell_formula_units_Z              4
_symmetry_space_group_name_H-M     'P n m a'
_symmetry_Int_Tables_number        62
_refine_ls_R_factor_all            .053
loop_
_symmetry_equiv_pos_site_id
_symmetry_equiv_pos_as_xyz
  1	'x+.5, y, -z+.5'
  2	'x, -y+.5, z'
  3	'-x+.5, y+.5, z+.5'
  4	'-x, -y, -z'
  5	'-x+.5, -y, z+.5'
  6	'-x, y+.5, -z'
  7	'x+.5, -y+.5, -z+.5'
  8	'x, y, z'
loop_
_atom_type_symbol
_atom_type_oxidation_number
Li1+	1
O2-	-2
Ru3+	3
Ru4+	4
loop_
_atom_site_label
_atom_site_type_symbol
_atom_site_symmetry_multiplicity
_atom_site_Wyckoff_symbol
_atom_site_fract_x
_atom_site_fract_y
_atom_site_fract_z
_atom_site_occupancy
_atom_site_attached_hydrogens
_atom_site_U_iso_or_equiv
Li1 Li1+ 4 c 0.725 0.25 0.642 1. 0 0.0125 
Ru1 Ru4+ 4 c 0.44539(12) 0.25 0.61818(12) 1. 0 0.00117(3) 
Ru2 Ru3+ 4 c 0.41052(11) 0.25 0.10191(11) 1. 0 0.00117(3) 
O1 O2- 4 c 0.5395(7) 0.25 0.7773(8) 1. 0 0.024(2) 
O2 O2- 4 c 0.4041(8) 0.25 0.4417(7) 1. 0 0.024(2) 
O3 O2- 4 c 0.2006(8) 0.25 0.1824(6) 1. 0 0.024(2) 
O4 O2- 4 c 0.6237(8) 0.25 0.0292(8) 1. 0 0.024(2) 

#End of data_290491-ICSD


