data_166830-ICSD
#?2014 by Fachinformationszentrum Karlsruhe, and the U.S. Secretary of 
#Commerce on behalf of the United States.  All rights reserved.
_database_code_ICSD                166830
_audit_creation_date               2010/08/01
_audit_update_record               2013/08/01
_chemical_name_systematic
;
Dipotassium Trizinc Bis(diphosphate(V))
;
_chemical_formula_structural       'K2 Zn3 (P2 O7)2'
_chemical_formula_sum              'K2 O14 P4 Zn3'
_publ_section_title
;
Crystal structure and thermal properties of compound K2 Zn3 (P2 O7)2
;
loop_
_citation_id
_citation_journal_abbrev
_citation_year
_citation_journal_volume
_citation_journal_issue
_citation_page_first
_citation_page_last
_citation_journal_id_ASTM
primary 'Powder Diffraction' 2008 23 4 317 322 PODIE2
_publ_author_name
;
Ji, L.-N.;Cai, G.-M.;Li, J.-B.;Luo, J.;Liang, J.-K.;Zhang, J.-Y.;Liu, 
Y.-H.;Rao, G.H.;Chen, X.-L.
;
_cell_length_a                     12.901(8)
_cell_length_b                     10.102(6)
_cell_length_c                     9.958(1)
_cell_angle_alpha                  90.
_cell_angle_beta                   90.
_cell_angle_gamma                  90.
_cell_volume                       1297.79
_cell_formula_units_Z              4
_symmetry_space_group_name_H-M     'P 21 21 21'
_symmetry_Int_Tables_number        19
_refine_ls_R_factor_all            .0315
loop_
_symmetry_equiv_pos_site_id
_symmetry_equiv_pos_as_xyz
  1	'-x, y+.5, -z+.5'
  2	'x+.5, -y+.5, -z'
  3	'-x+.5, -y, z+.5'
  4	'x, y, z'
loop_
_atom_type_symbol
_atom_type_oxidation_number
K1+	1
O2-	-2
P5+	5
Zn2+	2
loop_
_atom_site_label
_atom_site_type_symbol
_atom_site_symmetry_multiplicity
_atom_site_Wyckoff_symbol
_atom_site_fract_x
_atom_site_fract_y
_atom_site_fract_z
_atom_site_occupancy
_atom_site_attached_hydrogens
_atom_site_B_iso_or_equiv
Zn1 Zn2+ 4 a 0.547(5) 0.263(9) 0.098(3) 1. 0 0.49(1) 
Zn2 Zn2+ 4 a 0.170(8) 0.347(6) 0.548(8) 1. 0 0.49(9) 
Zn3 Zn2+ 4 a 0.114(7) -0.064(8) 0.228(5) 1. 0 0.73(0) 
K1 K1+ 4 a 0.246(5) 0.269(4) 0.154(7) 1. 0 1.12(7) 
K2 K1+ 4 a 0.527(7) -0.093(1) 0.024(2) 1. 0 1.18(1) 
P1 P5+ 4 a 0.452(3) 0.337(5) -0.194(0) 1. 0 0.91(6) 
P2 P5+ 4 a 0.248(0) 0.047(4) 0.473(3) 1. 0 0.73(6) 
P3 P5+ 4 a 0.552(8) 0.578(7) 0.177(5) 1. 0 0.52(5) 
P4 P5+ 4 a 0.744(1) 0.058(0) 0.155(9) 1. 0 0.36(0) 
O1 O2- 4 a 0.526(1) 0.273(9) -0.096(0) 1. 0 0.20(0) 
O2 O2- 4 a 0.423(1) 0.243(3) -0.307(6) 1. 0 0.20(0) 
O3 O2- 4 a 0.547(6) 0.427(1) 0.190(1) 1. 0 0.20(0) 
O4 O2- 4 a 0.662(3) 0.138(7) 0.089(3) 1. 0 0.20(0) 
O5 O2- 4 a 0.175(4) 0.160(4) 0.513(7) 1. 0 0.20(0) 
O6 O2- 4 a 0.740(4) 0.061(8) 0.309(5) 1. 0 0.20(0) 
O7 O2- 4 a 0.490(3) 0.470(1) -0.255(3) 1. 0 0.20(0) 
O8 O2- 4 a 0.193(5) -0.055(3) 0.394(7) 1. 0 0.20(0) 
O9 O2- 4 a 0.848(7) 0.135(0) 0.109(8) 1. 0 0.20(0) 
O10 O2- 4 a 0.558(6) 0.648(2) 0.316(7) 1. 0 0.20(0) 
O11 O2- 4 a 0.479(6) 0.629(7) 0.073(0) 1. 0 0.20(0) 
O12 O2- 4 a 0.744(6) -0.084(8) 0.101(9) 1. 0 0.20(0) 
O13 O2- 4 a 0.302(5) -0.019(5) 0.588(6) 1. 0 0.20(0) 
O14 O2- 4 a 0.335(5) 0.113(5) 0.376(7) 1. 0 0.20(0) 

#End of data_166830-ICSD


