data_73402-ICSD
#?2014 by Fachinformationszentrum Karlsruhe, and the U.S. Secretary of 
#Commerce on behalf of the United States.  All rights reserved.
_database_code_ICSD                73402
_audit_creation_date               1994/06/30
_audit_update_record               2008/02/01
_chemical_name_systematic          'Disilver Telluride - Iii'
_chemical_formula_structural       'Ag2 Te'
_chemical_formula_sum              'Ag2 Te1'
_chemical_name_mineral             Hessite
_publ_section_title
;
Redetermination of the structure of hessite, Ag2 Te-III
;
loop_
_citation_id
_citation_journal_abbrev
_citation_year
_citation_journal_volume
_citation_page_first
_citation_page_last
_citation_journal_id_ASTM
primary 'Acta Crystallographica, Section C: Crystal Structure Communications'
 1993 49 1444 1446 ACSCEE
2 'Phase Transition' 1992 38 127 220 PHTRDP
_publ_author_name                  'van der Lee, A.;de Boer, J.L.'
_cell_length_a                     8.164(1)
_cell_length_b                     4.468(1)
_cell_length_c                     8.977(1)
_cell_angle_alpha                  90.
_cell_angle_beta                   124.16(1)
_cell_angle_gamma                  90.
_cell_volume                       270.96
_cell_formula_units_Z              4
_symmetry_space_group_name_H-M     'P 1 21/c 1'
_symmetry_Int_Tables_number        14
_refine_ls_R_factor_all            .057
loop_
_symmetry_equiv_pos_site_id
_symmetry_equiv_pos_as_xyz
  1	'x, -y+.5, z+.5'
  2	'-x, -y, -z'
  3	'-x, y+.5, -z+.5'
  4	'x, y, z'
loop_
_atom_type_symbol
_atom_type_oxidation_number
Ag1+	1
Te2-	-2
loop_
_atom_site_label
_atom_site_type_symbol
_atom_site_symmetry_multiplicity
_atom_site_Wyckoff_symbol
_atom_site_fract_x
_atom_site_fract_y
_atom_site_fract_z
_atom_site_occupancy
_atom_site_attached_hydrogens
Ag1 Ag1+ 4 e 0.01880(9) 0.1507(2) 0.37099(7) 1. 0 
Ag2 Ag1+ 4 e 0.3327(1) 0.8383(2) 0.99566(9) 1. 0 
Te1 Te2- 4 e 0.27179(6) 0.1584(1) 0.24247(5) 1. 0 

loop_
_atom_site_aniso_label
_atom_site_aniso_type_symbol
_atom_site_aniso_U_11
_atom_site_aniso_U_22
_atom_site_aniso_U_33
_atom_site_aniso_U_12
_atom_site_aniso_U_13
_atom_site_aniso_U_23
Ag1 Ag1+ 0.0300(3) 0.0261(3) 0.0220(2) -0.0045(3) 0.0151(2) -0.0010(3)
Ag2 Ag1+ 0.0290(3) 0.0390(4) 0.0286(3) 0.0093(3) 0.0083(2) -0.0055(3)
Te1 Te2- 0.0160(2) 0.0157(2) 0.0164(2) -0.0002(2) 0.0088(1) 0.0002(2)
#End of data_73402-ICSD


