data_20223-ICSD
#?2014 by Fachinformationszentrum Karlsruhe, and the U.S. Secretary of 
#Commerce on behalf of the United States.  All rights reserved.
_database_code_ICSD                20223
_audit_creation_date               1981/12/31
_chemical_name_systematic          'Yttrium Trialuminium Borate'
_chemical_formula_structural       'Y Al3 (B O3)4'
_chemical_formula_sum              'Al3 B4 O12 Y1'
_publ_section_title
;
The crystal structure of Y Al3 (B O3)4
;
loop_
_citation_id
_citation_journal_abbrev
_citation_year
_citation_journal_volume
_citation_page_first
_citation_page_last
_citation_journal_id_ASTM
primary 'Zhurnal Strukturnoi Khimii (Issue-No. from 1981)'
 1981 22 196 198 ZSTKAI
_publ_author_name
;
Belokoneva, E.L.;Azizov, A.V.;Leonjuk, N.I.;Simonov, M.A.;Belov, N.V.
;
_cell_length_a                     9.295(3)
_cell_length_b                     9.295(3)
_cell_length_c                     7.243(2)
_cell_angle_alpha                  90.
_cell_angle_beta                   90.
_cell_angle_gamma                  120.
_cell_volume                       541.94
_cell_formula_units_Z              3
_symmetry_space_group_name_H-M     'R 3 2 H'
_symmetry_Int_Tables_number        155
_refine_ls_R_factor_all            .037
loop_
_symmetry_equiv_pos_site_id
_symmetry_equiv_pos_as_xyz
  1	'-x, -x+y, -z'
  2	'x-y, -y, -z'
  3	'y, x, -z'
  4	'-x+y, -x, z'
  5	'-y, x-y, z'
  6	'x, y, z'
  7	'-x+.6666, -x+y+.3333, -z+.3333'
  8	'-x+.3333, -x+y+.6666, -z+.6666'
  9	'x-y+.6666, -y+.3333, -z+.3333'
 10	'x-y+.3333, -y+.6666, -z+.6666'
 11	'y+.6666, x+.3333, -z+.3333'
 12	'y+.3333, x+.6666, -z+.6666'
 13	'-x+y+.6666, -x+.3333, z+.3333'
 14	'-x+y+.3333, -x+.6666, z+.6666'
 15	'-y+.6666, x-y+.3333, z+.3333'
 16	'-y+.3333, x-y+.6666, z+.6666'
 17	'x+.6666, y+.3333, z+.3333'
 18	'x+.3333, y+.6666, z+.6666'
loop_
_atom_type_symbol
_atom_type_oxidation_number
Al3+	3
B3+	3
O2-	-2
Y3+	3
loop_
_atom_site_label
_atom_site_type_symbol
_atom_site_symmetry_multiplicity
_atom_site_Wyckoff_symbol
_atom_site_fract_x
_atom_site_fract_y
_atom_site_fract_z
_atom_site_occupancy
_atom_site_attached_hydrogens
_atom_site_B_iso_or_equiv
Y1 Y3+ 3 a 0 0 0 1. 0 0.58 
Al1 Al3+ 9 d 0.5554(2) 0 0 1. 0 0.13 
B1 B3+ 3 b 0 0 0.5 1. 0 0.39 
B2 B3+ 9 e 0.4436(6) 0 0.5 1. 0 0.34 
O1 O2- 9 e 0.8512(5) 0 0.5 1. 0 0.3 
O2 O2- 9 e 0.5907(5) 0 0.5 1. 0 0.35 
O3 O2- 18 f 0.4499(4) 0.1498(4) 0.4786(4) 1. 0 0.42 

#End of data_20223-ICSD


