data_188111-ICSD
#?2014 by Fachinformationszentrum Karlsruhe, and the U.S. Secretary of 
#Commerce on behalf of the United States.  All rights reserved.
_database_code_ICSD                188111
_audit_creation_date               2014/02/01
_chemical_name_systematic          'Lithium Copper Oxide (1/2/2)'
_chemical_formula_structural       'Li Cu2 O2'
_chemical_formula_sum              'Cu2 Li1 O2'
_publ_section_title
;
Thermodynamic investigations of copper oxides used as conversion type 
electrodes in lithium ion batteries
;
loop_
_citation_id
_citation_journal_abbrev
_citation_year
_citation_journal_volume
_citation_journal_issue
_citation_page_first
_citation_page_last
_citation_journal_id_ASTM
primary 'Journal of Materials Science' 2013 48 17 5818 5826 JMTSAS
2 'Journal of Alloys and Compounds' 1992 184- 315 322 JALCEU
_publ_author_name
;
Lepple, Maren;Adam, Robert;Cupid, Damian M.;Franke, Peter;Bergfeldt, 
Thomas;Wadewitz, Daniel;Rafaja, David;Seifert, Hans J.
;
_cell_length_a                     5.7330(2)
_cell_length_b                     2.8591(1)
_cell_length_c                     12.417(1)
_cell_angle_alpha                  90.
_cell_angle_beta                   90.
_cell_angle_gamma                  90.
_cell_volume                       203.53
_cell_formula_units_Z              4
_symmetry_space_group_name_H-M     'P n m a'
_symmetry_Int_Tables_number        62
loop_
_symmetry_equiv_pos_site_id
_symmetry_equiv_pos_as_xyz
  1	'x+.5, y, -z+.5'
  2	'x, -y+.5, z'
  3	'-x+.5, y+.5, z+.5'
  4	'-x, -y, -z'
  5	'-x+.5, -y, z+.5'
  6	'-x, y+.5, -z'
  7	'x+.5, -y+.5, -z+.5'
  8	'x, y, z'
loop_
_atom_type_symbol
_atom_type_oxidation_number
Cu1.5+	1.5
Li1+	1
O2-	-2
loop_
_atom_site_label
_atom_site_type_symbol
_atom_site_symmetry_multiplicity
_atom_site_Wyckoff_symbol
_atom_site_fract_x
_atom_site_fract_y
_atom_site_fract_z
_atom_site_occupancy
_atom_site_attached_hydrogens
Li1 Li1+ 4 c 0.130 0.250 0.572 1. 0 
Cu1 Cu1.5+ 4 c 0.119 0.250 0.255 1. 0 
Cu2 Cu1.5+ 4 c 0.124 0.250 0.905 1. 0 
O1 O2- 4 c 0.137 0.250 0.405 1. 0 
O2 O2- 4 c 0.115 0.250 0.105 1. 0 

#End of data_188111-ICSD


