data_632405-ICSD
#?2014 by Fachinformationszentrum Karlsruhe, and the U.S. Secretary of 
#Commerce on behalf of the United States.  All rights reserved.
_database_code_ICSD                632405
_audit_creation_date               2012/02/01
_chemical_name_systematic          'Potassium Iron Selenide (1/1/2)'
_chemical_formula_structural       'K Fe Se2'
_chemical_formula_sum              'Fe1 K1 Se2'
_publ_section_title
;
Structure and magnetic properties of alkalichalcogenoferrates
;
loop_
_citation_id
_citation_journal_abbrev
_citation_year
_citation_journal_volume
_citation_page_first
_citation_page_last
_citation_journal_id_ASTM
primary 'Studies in Inorganic Chemistry' 1983 3 601 604 SINCDO
_publ_author_name                  'Bronger, W.;Mueller, P.'
_cell_length_a                     7.342(2)
_cell_length_b                     11.746(2)
_cell_length_c                     5.629(1)
_cell_angle_alpha                  90.0
_cell_angle_beta                   113.52(2)
_cell_angle_gamma                  90.0
_cell_volume                       445.11
_cell_formula_units_Z              4
_symmetry_space_group_name_H-M     'C 1 2/c 1'
_symmetry_Int_Tables_number        15
loop_
_symmetry_equiv_pos_site_id
_symmetry_equiv_pos_as_xyz
  1	'x, -y, z+.5'
  2	'-x, -y, -z'
  3	'-x, y, -z+.5'
  4	'x, y, z'
  5	'x+.5, -y+.5, z+.5'
  6	'-x+.5, -y+.5, -z'
  7	'-x+.5, y+.5, -z+.5'
  8	'x+.5, y+.5, z'
loop_
_atom_type_symbol
_atom_type_oxidation_number
Fe3+	3
K1+	1
Se2-	-2
loop_
_atom_site_label
_atom_site_type_symbol
_atom_site_symmetry_multiplicity
_atom_site_Wyckoff_symbol
_atom_site_fract_x
_atom_site_fract_y
_atom_site_fract_z
_atom_site_occupancy
_atom_site_attached_hydrogens
K1 K1+ 4 e 0 0.139 0.25 1. 0 
Fe1 Fe3+ 4 e 0 0.503 0.25 1. 0 
Se1 Se2- 8 f 0.201 0.386 0.110 1. 0 

#End of data_632405-ICSD


