data_190165-ICSD
#?2014 by Fachinformationszentrum Karlsruhe, and the U.S. Secretary of 
#Commerce on behalf of the United States.  All rights reserved.
_database_code_ICSD                190165
_audit_creation_date               2014/08/01
_chemical_name_systematic          'Sodium Niobate'
_chemical_formula_structural       'Na (Nb O3)'
_chemical_formula_sum              'Na1 Nb1 O3'
_publ_section_title
;
Structural and dielectric properties of solid solutions of sodium 
niobate in lanthanum and neodymium niobates
;
loop_
_citation_id
_citation_journal_abbrev
_citation_year
_citation_journal_volume
_citation_journal_issue
_citation_page_first
_citation_page_last
_citation_journal_id_ASTM
primary 'Inorganic Materials' 2004 40 12 1324 1330 INOMAF
_publ_author_name
;
Mishchuk, D.O.;V'yunov, O.I.;Ovchar, O.V.;Belous, A.G.
;
_cell_length_a                     5.5007(2)
_cell_length_b                     5.5621(2)
_cell_length_c                     15.5373(5)
_cell_angle_alpha                  90.
_cell_angle_beta                   90.
_cell_angle_gamma                  90.
_cell_volume                       475.37
_cell_formula_units_Z              8
_symmetry_space_group_name_H-M     'P b c m'
_symmetry_Int_Tables_number        57
_refine_ls_R_factor_all            .0574
loop_
_symmetry_equiv_pos_site_id
_symmetry_equiv_pos_as_xyz
  1	'x, -y+.5, z+.5'
  2	'-x, y+.5, z'
  3	'x, y, -z+.5'
  4	'-x, -y, -z'
  5	'-x, y+.5, -z+.5'
  6	'x, -y+.5, -z'
  7	'-x, -y, z+.5'
  8	'x, y, z'
loop_
_atom_type_symbol
_atom_type_oxidation_number
Na1+	1
Nb5+	5
O2-	-2
loop_
_atom_site_label
_atom_site_type_symbol
_atom_site_symmetry_multiplicity
_atom_site_Wyckoff_symbol
_atom_site_fract_x
_atom_site_fract_y
_atom_site_fract_z
_atom_site_occupancy
_atom_site_attached_hydrogens
Na1 Na1+ 4 c 0.229(5) 0.250 0 1. 0 
Na2 Na1+ 4 d 0.229(5) 0.217(4) 0.250 1. 0 
Nb1 Nb5+ 8 e 0.2531(9) 0.7344(6) 0.1251(6) 1. 0 
O1 O2- 4 c 0.678(7) 0.250 0 1. 0 
O2 O2- 4 d 0.213(7) 0.778(6) 0.250 1. 0 
O3 O2- 8 e 0.477(4) 0.449(4) 0.151(1) 1. 0 
O4 O2- 8 e 0.035(4) 0.022(4) 0.113(2) 1. 0 

#End of data_190165-ICSD


