data_155126-ICSD
#?2014 by Fachinformationszentrum Karlsruhe, and the U.S. Secretary of 
#Commerce on behalf of the United States.  All rights reserved.
_database_code_ICSD                155126
_audit_creation_date               2007/04/01
_audit_update_record               2012/02/01
_chemical_name_systematic          'Trilithium Dinitridoborate'
_chemical_formula_structural       'Li3 (B N2)'
_chemical_formula_sum              'B1 Li3 N2'
_publ_section_title
;
Tetragonal I41/amd crystal structure of Li3 B N2 from dehydrogenated 
Li - B - N - H
;
loop_
_citation_id
_citation_journal_abbrev
_citation_year
_citation_journal_volume
_citation_page_first
_citation_page_last
_citation_journal_id_ASTM
primary 'Journal of Applied Physics' 2006 99 113523-1 113523-5 JAPIAU
_publ_author_name                  'Pinkerton, F.E.;Herbst, J.F.'
_cell_length_a                     6.5992(2)
_cell_length_b                     6.5992(2)
_cell_length_c                     10.3483(7)
_cell_angle_alpha                  90.
_cell_angle_beta                   90.
_cell_angle_gamma                  90.
_cell_volume                       450.66
_cell_formula_units_Z              8
_symmetry_space_group_name_H-M     'I 41/a m d S'
_symmetry_Int_Tables_number        141
_refine_ls_R_factor_all            .0556
loop_
_symmetry_equiv_pos_site_id
_symmetry_equiv_pos_as_xyz
  1	'y, -x+.5, z+.25'
  2	'-y, x+.5, z+.25'
  3	'y, -x, -z'
  4	'-y, x, -z'
  5	'-y, -x+.5, z+.25'
  6	'y, x+.5, z+.25'
  7	'-y, -x, -z'
  8	'y, x, -z'
  9	'x, -y+.5, -z+.25'
 10	'-x, y+.5, -z+.25'
 11	'x, -y, z'
 12	'-x, y, z'
 13	'-x, -y+.5, -z+.25'
 14	'x, y+.5, -z+.25'
 15	'-x, -y, z'
 16	'x, y, z'
 17	'y+.5, -x, z+.75'
 18	'-y+.5, x, z+.75'
 19	'y+.5, -x+.5, -z+.5'
 20	'-y+.5, x+.5, -z+.5'
 21	'-y+.5, -x, z+.75'
 22	'y+.5, x, z+.75'
 23	'-y+.5, -x+.5, -z+.5'
 24	'y+.5, x+.5, -z+.5'
 25	'x+.5, -y, -z+.75'
 26	'-x+.5, y, -z+.75'
 27	'x+.5, -y+.5, z+.5'
 28	'-x+.5, y+.5, z+.5'
 29	'-x+.5, -y, -z+.75'
 30	'x+.5, y, -z+.75'
 31	'-x+.5, -y+.5, z+.5'
 32	'x+.5, y+.5, z+.5'
loop_
_atom_type_symbol
_atom_type_oxidation_number
B3+	3
Li1+	1
N3-	-3
loop_
_atom_site_label
_atom_site_type_symbol
_atom_site_symmetry_multiplicity
_atom_site_Wyckoff_symbol
_atom_site_fract_x
_atom_site_fract_y
_atom_site_fract_z
_atom_site_occupancy
_atom_site_attached_hydrogens
_atom_site_B_iso_or_equiv
Li1 Li1+ 8 e 0 0 0.1204(7) 1. 0 2.66(22) 
Li2 Li1+ 16 g 0.2707(6) 0.2707(6) 0 1. 0 1.55(13) 
B1 B3+ 8 e 0 0 0.3530(6) 1. 0 3.09(24) 
N1 N3- 16 h 0 0.2090(3) 0.3446(2) 1. 0 1.03(11) 

#End of data_155126-ICSD


