data_20133-ICSD
#?2014 by Fachinformationszentrum Karlsruhe, and the U.S. Secretary of 
#Commerce on behalf of the United States.  All rights reserved.
_database_code_ICSD                20133
_audit_creation_date               1980/01/01
_audit_update_record               1987/10/02
_chemical_name_systematic          'Potassium Dimolybdate'
_chemical_formula_structural       'K2 Mo2 O7'
_chemical_formula_sum              'K2 Mo2 O7'
_publ_section_title
;
The crystal structure of potassium bimolybdate K2 Mo2 O7
;
loop_
_citation_id
_citation_journal_abbrev
_citation_year
_citation_journal_volume
_citation_page_first
_citation_page_last
_citation_journal_id_ASTM
primary Kristallografiya 1971 16 742 745 KRISAJ
2 'Soviet Physics, Crystallography (= Kristallografiya)'
 1971 16 645 648 SPHCA6
_publ_author_name                  'Magarill, S.A.;Klevtsova, R.F.'
_cell_length_a                     7.51
_cell_length_b                     7.24
_cell_length_c                     6.95
_cell_angle_alpha                  92.
_cell_angle_beta                   112.
_cell_angle_gamma                  82.5
_cell_volume                       347.33
_cell_formula_units_Z              2
_symmetry_space_group_name_H-M     'P -1'
_symmetry_Int_Tables_number        2
_refine_ls_R_factor_all            .117
loop_
_symmetry_equiv_pos_site_id
_symmetry_equiv_pos_as_xyz
  1	'-x, -y, -z'
  2	'x, y, z'
loop_
_atom_type_symbol
_atom_type_oxidation_number
K1+	1
Mo6+	6
O2-	-2
loop_
_atom_site_label
_atom_site_type_symbol
_atom_site_symmetry_multiplicity
_atom_site_Wyckoff_symbol
_atom_site_fract_x
_atom_site_fract_y
_atom_site_fract_z
_atom_site_occupancy
_atom_site_attached_hydrogens
_atom_site_B_iso_or_equiv
Mo1 Mo6+ 2 i 0.05277(47) 0.34964(64) 0.17202(63) 1. 0 0.53 
Mo2 Mo6+ 2 i 0.30447(42) 0.91220(58) 0.24502(55) 1. 0 0.24 
K1 K1+ 2 i 0.4373(15) 0.6184(20) 0.7627(20) 1. 0 1.28 
K2 K1+ 2 i 0.1533(15) 0.1658(20) 0.691(2) 1. 0 1.11 
O1 O2- 2 i 0.2686(33) 0.1463(47) 0.1616(44) 1. 0 0.13 
O2 O2- 2 i 0.0513(39) 0.7928(56) 0.7110(52) 1. 0 1.23 
O3 O2- 2 i 0.2163(39) 0.4584(55) 0.3789(53) 1. 0 1.56 
O4 O2- 2 i 0.5183(34) 0.2251(49) 0.8221(46) 1. 0 0.85 
O5 O2- 2 i 0.0852(34) -.1835(48) 0.1171(46) 1. 0 0.65 
O6 O2- 2 i 0.1450(34) 0.4635(49) 0.9449(46) 1. 0 0.52 
O7 O2- 2 i 0.3512(51) -.0869(72) 0.5159(67) 1. 0 1.19 

#End of data_20133-ICSD


