data_245516-ICSD
#?2014 by Fachinformationszentrum Karlsruhe, and the U.S. Secretary of 
#Commerce on behalf of the United States.  All rights reserved.
_database_code_ICSD                245516
_audit_creation_date               2008/02/01
_chemical_name_systematic
;
Dilithium Closo-heptaoxotrisilicate
;
_chemical_formula_structural       'Li2 (Si3 O7)'
_chemical_formula_sum              'Li2 O7 Si3'
_publ_section_title
;
Li2 Si3 O7: Crystal structure and Raman spectroscopy
;
loop_
_citation_id
_citation_journal_abbrev
_citation_year
_citation_journal_volume
_citation_journal_issue
_citation_page_first
_citation_page_last
_citation_journal_id_ASTM
primary 'Journal of Solid State Chemistry' 2007 180 3 922 928 JSSCBI
_publ_author_name
;
Krueger, H.;Kahlenberg, V.;Kaindl, R.
;
_cell_length_a                     19.648(3)
_cell_length_b                     5.9969(8)
_cell_length_c                     4.8691(6)
_cell_angle_alpha                  90.
_cell_angle_beta                   90.
_cell_angle_gamma                  90.
_cell_volume                       573.71
_cell_formula_units_Z              4
_symmetry_space_group_name_H-M     'P m c a'
_symmetry_Int_Tables_number        57
_refine_ls_R_factor_all            .035
loop_
_symmetry_equiv_pos_site_id
_symmetry_equiv_pos_as_xyz
  1	'x+.5, y, -z+.5'
  2	'x, -y, z+.5'
  3	'-x+.5, y, z'
  4	'-x, -y, -z'
  5	'-x+.5, -y, z+.5'
  6	'-x, y, -z+.5'
  7	'x+.5, -y, -z'
  8	'x, y, z'
loop_
_atom_type_symbol
_atom_type_oxidation_number
Li1+	1
O2-	-2
Si4+	4
loop_
_atom_site_label
_atom_site_type_symbol
_atom_site_symmetry_multiplicity
_atom_site_Wyckoff_symbol
_atom_site_fract_x
_atom_site_fract_y
_atom_site_fract_z
_atom_site_occupancy
_atom_site_attached_hydrogens
_atom_site_U_iso_or_equiv
Si1 Si4+ 4 d 0.25 0.34929(15) 0.57981(18) 1. 0 0.0123(2) 
Si2 Si4+ 8 e 0.104440(3) 0.14615(10) 0.55364(12) 1. 0 0.01098(16) 
O1 O2- 8 e 0.05547(8) 0.3389(3) 0.4566(3) 1. 0 0.0156(4) 
O2 O2- 8 e 0.18419(9) 0.2016(3) 0.5144(4) 1. 0 0.0194(5) 
O3 O2- 4 d 0.25 0.4260(4) 0.8970(5) 1. 0 0.0206(7) 
O4 O2- 8 e 0.096068(8) 0.0865(3) 0.8801(3) 1. 0 0.0141(4) 
Li1 Li1+ 8 e 0.0440(2) 0.3535(7) 0.0567(9) 1. 0 0.0190(11) 

#End of data_245516-ICSD


