data_75217-ICSD
#?2014 by Fachinformationszentrum Karlsruhe, and the U.S. Secretary of 
#Commerce on behalf of the United States.  All rights reserved.
_database_code_ICSD                75217
_audit_creation_date               1995/10/17
_chemical_name_systematic
;
Potassium Dihydrogentrioxothiophosphate
;
_chemical_formula_structural       'K (H2 S P O3)'
_chemical_formula_sum              'H2 K1 O3 P1 S1'
_publ_section_title
;
The dihydrogenmonothiophosphate and trihydrogendisulfanediphosphonate 
anions. Crystal structures of KH2SPO3 and (Co(en)2Cl2)H3S2P2O6
;
loop_
_citation_id
_citation_journal_abbrev
_citation_year
_citation_journal_volume
_citation_page_first
_citation_page_last
_citation_journal_id_ASTM
primary 'Acta Chemica Scandinavica (43,1989-)' 1994 48 461 464 ACHSE7
_publ_author_name                  'Janickis, V.;Maroy, K.'
_cell_length_a                     6.549(1)
_cell_length_b                     6.317(1)
_cell_length_c                     5.894(1)
_cell_angle_alpha                  90.
_cell_angle_beta                   109.13(1)
_cell_angle_gamma                  90.
_cell_volume                       230.37
_cell_formula_units_Z              2
_symmetry_space_group_name_H-M     'C 1 m 1'
_symmetry_Int_Tables_number        8
_refine_ls_R_factor_all            .015
loop_
_symmetry_equiv_pos_site_id
_symmetry_equiv_pos_as_xyz
  1	'x, -y, z'
  2	'x, y, z'
  3	'x+.5, -y+.5, z'
  4	'x+.5, y+.5, z'
loop_
_atom_type_symbol
_atom_type_oxidation_number
H1+	1
K1+	1
O2-	-2
P5+	5
S2-	-2
loop_
_atom_site_label
_atom_site_type_symbol
_atom_site_symmetry_multiplicity
_atom_site_Wyckoff_symbol
_atom_site_fract_x
_atom_site_fract_y
_atom_site_fract_z
_atom_site_occupancy
_atom_site_attached_hydrogens
_atom_site_B_iso_or_equiv
K1 K1+ 2 a 0.1525 0 0.3917 1. 0 1.964(8) 
S1 S2- 2 a 0.60808(1) 0 0.20729(11) 1. 0 1.589(9) 
P1 P5+ 2 a 0.65164(9) 0 0.89235(10) 1. 0 0.961(7) 
O1 O2- 2 a 0.88779(24) 0 0.90453(28) 1. 0 1.29(2) 
O2 O2- 4 b 0.53991(19) 0.19382(19) 0.73107(18) 1. 0 1.64(2) 
H1 H1+ 4 b 0.493(4) 0.275(5) 0.800(4) 1. 0 3.4(6) 

#End of data_75217-ICSD


