data_157832-ICSD
#?2014 by Fachinformationszentrum Karlsruhe, and the U.S. Secretary of 
#Commerce on behalf of the United States.  All rights reserved.
_database_code_ICSD                157832
_audit_creation_date               2008/02/01
_audit_update_record               2011/02/01
_chemical_name_systematic          'Potassium Erbium Bis(tungstate)'
_chemical_formula_structural       'K Er (W O4)2'
_chemical_formula_sum              'Er1 K1 O8 W2'
_publ_section_title
;
Crystal structure and magnetic properties of potassium erbium double 
tungstate K Er (W O4)2
;
loop_
_citation_id
_citation_journal_abbrev
_citation_year
_citation_journal_volume
_citation_page_first
_citation_page_last
_citation_journal_id_ASTM
primary 'Journal of Physics: Condensed Matter' 2007 19 056206-1 056206-16 JCOMEL
_publ_author_name
;
Borowiec, M.T.;Dyakonov, V.P.;Wozniak, K.;Dobrzycki, L.;Berkowski, 
M.;Zubov, E.E.;Michalski, E.;Szewczyk, A.;Gutowska, M.U.;Zayarnyuk, 
T.;Szymczak, H.
;
_cell_length_a                     10.615(2)
_cell_length_b                     10.316(2)
_cell_length_c                     7.534(2)
_cell_angle_alpha                  90.
_cell_angle_beta                   130.73(3)
_cell_angle_gamma                  90.
_cell_volume                       625.18
_cell_formula_units_Z              4
_symmetry_space_group_name_H-M     'C 1 2/c 1'
_symmetry_Int_Tables_number        15
_refine_ls_R_factor_all            .0288
loop_
_symmetry_equiv_pos_site_id
_symmetry_equiv_pos_as_xyz
  1	'x, -y, z+.5'
  2	'-x, -y, -z'
  3	'-x, y, -z+.5'
  4	'x, y, z'
  5	'x+.5, -y+.5, z+.5'
  6	'-x+.5, -y+.5, -z'
  7	'-x+.5, y+.5, -z+.5'
  8	'x+.5, y+.5, z'
loop_
_atom_type_symbol
_atom_type_oxidation_number
Er3+	3
K1+	1
O2-	-2
W6+	6
loop_
_atom_site_label
_atom_site_type_symbol
_atom_site_symmetry_multiplicity
_atom_site_Wyckoff_symbol
_atom_site_fract_x
_atom_site_fract_y
_atom_site_fract_z
_atom_site_occupancy
_atom_site_attached_hydrogens
_atom_site_U_iso_or_equiv
Er1 Er3+ 4 e 0 0.7718(1) 0.750 1. 0 0.009(1) 
W1 W6+ 8 f 0.8035(1) 0.5000(1) 0.7642(1) 1. 0 0.008(1) 
K1 K1+ 4 e 0 0.7990(2) 0.250 1. 0 0.016(1) 
O1 O2- 8 f 0.9766(5) 0.3914(4) 0.0308(8) 1. 0 0.011(1) 
O2 O2- 8 f 0.8108(5) 0.4246(5) 0.5596(8) 1. 0 0.011(1) 
O3 O2- 8 f 0.6262(5) 0.4193(5) 0.6885(8) 1. 0 0.014(1) 
O4 O2- 8 f 0.7242(6) 0.6584(4) 0.6258(8) 1. 0 0.013(1) 

loop_
_atom_site_aniso_label
_atom_site_aniso_type_symbol
_atom_site_aniso_U_11
_atom_site_aniso_U_22
_atom_site_aniso_U_33
_atom_site_aniso_U_12
_atom_site_aniso_U_13
_atom_site_aniso_U_23
Er1 Er3+ 0.010(1) 0.008(1) 0.008(1) 0. 0.005(1) 0.
W1 W6+ 0.007(1) 0.008(1) 0.007(1) 0.000(1) 0.004(1) 0.001(1)
K1 K1+ 0.014(1) 0.019(1) 0.015(1) 0. 0.009(1) 0.
O1 O2- 0.009(2) 0.011(2) 0.012(2) -0.002(1) 0.007(2) 0.000(2)
O2 O2- 0.012(2) 0.010(2) 0.012(2) 0.000(1) 0.008(2) 0.001(2)
O3 O2- 0.011(2) 0.015(2) 0.014(2) 0.000(1) 0.007(2) 0.003(2)
O4 O2- 0.015(2) 0.007(2) 0.011(2) 0.000(1) 0.006(2) 0.000(1)
#End of data_157832-ICSD


