data_261619-ICSD
#?2014 by Fachinformationszentrum Karlsruhe, and the U.S. Secretary of 
#Commerce on behalf of the United States.  All rights reserved.
_database_code_ICSD                261619
_audit_creation_date               2011/08/01
_audit_update_record               2012/08/01
_chemical_name_systematic          'Magnesium Bis(chlorate(VII))'
_chemical_formula_structural       'Mg (Cl O4)2'
_chemical_formula_sum              'Cl2 Mg1 O8'
_publ_section_title
;
Magnesium perchlorate anhydrate, Mg (Cl O4)2, from laboratory X-ray 
powder data
;
loop_
_citation_id
_citation_journal_abbrev
_citation_year
_citation_journal_volume
_citation_journal_issue
_citation_page_first
_citation_page_last
_citation_journal_id_ASTM
primary 'Acta Crystallographica, Section C: Crystal Structure Communications'
 2011 67 6 i36 i38 ACSCEE
_publ_author_name
;
Lim Hyung-Kyu;Choi Young Sun;Hong Seung-Tae
;
_cell_length_a                     4.85705(10)
_cell_length_b                     8.41719(16)
_cell_length_c                     7.87301(16)
_cell_angle_alpha                  90.0
_cell_angle_beta                   118.7704(11)
_cell_angle_gamma                  90.0
_cell_volume                       282.14
_cell_formula_units_Z              2
_symmetry_space_group_name_H-M     'P 1 21/c 1'
_symmetry_Int_Tables_number        14
_refine_ls_R_factor_all            .102
loop_
_symmetry_equiv_pos_site_id
_symmetry_equiv_pos_as_xyz
  1	'x, -y+.5, z+.5'
  2	'-x, -y, -z'
  3	'-x, y+.5, -z+.5'
  4	'x, y, z'
loop_
_atom_type_symbol
_atom_type_oxidation_number
Cl7+	7
Mg2+	2
O2-	-2
loop_
_atom_site_label
_atom_site_type_symbol
_atom_site_symmetry_multiplicity
_atom_site_Wyckoff_symbol
_atom_site_fract_x
_atom_site_fract_y
_atom_site_fract_z
_atom_site_occupancy
_atom_site_attached_hydrogens
_atom_site_U_iso_or_equiv
Mg1 Mg2+ 2 a 0.0 0.0 0.0 1.0 0 0.0144(10) 
Cl1 Cl7+ 4 e 0.3101(5) 0.3330(2) 0.2442(3) 1.0 0 0.0164(4) 
O1 O2- 4 e 0.2717(10) 0.1649(5) 0.2119(6) 1.0 0 0.0131(12) 
O2 O2- 4 e 0.0640(10) 0.3853(5) 0.2817(7) 1.0 0 0.0220(16) 
O3 O2- 4 e 0.6143(9) 0.3493(5) 0.4192(6) 1.0 0 0.0219(15) 
O4 O2- 4 e 0.3005(10) 0.4203(5) 0.0882(6) 1.0 0 0.0184(15) 

#End of data_261619-ICSD


