data_262616-ICSD
#?2014 by Fachinformationszentrum Karlsruhe, and the U.S. Secretary of 
#Commerce on behalf of the United States.  All rights reserved.
_database_code_ICSD                262616
_audit_creation_date               2012/08/01
_chemical_name_systematic
;
Hexaaquazinc(II) Tetrafluoroaquaoxovanadate(IV)
;
_chemical_formula_structural       '(Zn (H2 O)6) (V O F4 (H2 O))'
_chemical_formula_sum              'H14 F4 O8 V1 Zn1'
_publ_section_title
;
The role of polar, lamdba (^) - shaped building units in 
noncentrosymmetric inorganic structures
;
loop_
_citation_id
_citation_journal_abbrev
_citation_year
_citation_journal_volume
_citation_journal_issue
_citation_page_first
_citation_page_last
_citation_journal_id_ASTM
primary 'Journal of the American Chemical Society' 2012 134 18 7679 7689 JACSAT
_publ_author_name
;
Donakowski, M.D.;Gautier, R.;Yeon Jeongho;Moore, D.T.;Nino, J.C.;Shiv 
Halasyamani, P.;Poeppelmeier, K.R.
;
_cell_length_a                     6.4670(2)
_cell_length_b                     10.9809(3)
_cell_length_c                     13.9850(4)
_cell_angle_alpha                  88.3500(10)
_cell_angle_beta                   88.2160(10)
_cell_angle_gamma                  79.9730(10)
_cell_volume                       977.2
_cell_formula_units_Z              4
_symmetry_space_group_name_H-M     'P -1'
_symmetry_Int_Tables_number        2
_refine_ls_R_factor_all            .0229
loop_
_symmetry_equiv_pos_site_id
_symmetry_equiv_pos_as_xyz
  1	'-x, -y, -z'
  2	'x, y, z'
loop_
_atom_type_symbol
_atom_type_oxidation_number
F1-	-1
H1+	1
O2-	-2
V4+	4
Zn2+	2
loop_
_atom_site_label
_atom_site_type_symbol
_atom_site_symmetry_multiplicity
_atom_site_Wyckoff_symbol
_atom_site_fract_x
_atom_site_fract_y
_atom_site_fract_z
_atom_site_occupancy
_atom_site_attached_hydrogens
_atom_site_U_iso_or_equiv
Zn1 Zn2+ 1 a 0.0000 0.0000 0.0000 1 0 0.00798(4) 
Zn2 Zn2+ 1 c 0.0000 0.5000 1.0000 1 0 0.00841(4) 
Zn3 Zn2+ 1 g 0.0000 0.5000 0.5000 1 0 0.00785(4) 
Zn4 Zn2+ 1 b 1.0000 1.0000 0.5000 1 0 0.00814(4) 
V1 V4+ 2 i 0.50457(3) 0.761717(16) 0.736178(13) 1 0 0.01006(4) 
V2 V4+ 2 i 0.51182(3) 0.265047(16) 0.758172(12) 1 0 0.00879(4) 
F1 F1- 2 i 0.55573(10) 0.85299(6) 0.84381(5) 1 0 0.01519(13) 
F2 F1- 2 i 0.21137(10) 0.81161(6) 0.75935(5) 1 0 0.01391(13) 
F3 F1- 2 i 0.44108(10) 0.63581(6) 0.65404(5) 1 0 0.01421(13) 
F4 F1- 2 i 0.78331(10) 0.67232(6) 0.74352(5) 1 0 0.01377(13) 
F5 F1- 2 i 0.23056(10) 0.35280(6) 0.74509(5) 1 0 0.01385(13) 
F6 F1- 2 i 0.57284(10) 0.30348(6) 0.62486(4) 1 0 0.01156(12) 
F7 F1- 2 i 0.75546(10) 0.13727(6) 0.75550(5) 1 0 0.01420(13) 
F8 F1- 2 i 0.42121(10) 0.19367(6) 0.87686(4) 1 0 0.01149(12) 
H1 H1+ 2 i 0.379(3) -0.0904(15) -0.0544(13) 1 0 0.041(5) 
H2 H1+ 2 i 0.389(2) -0.1070(14) 0.0418(12) 1 0 0.030(4) 
O1 O2- 2 i 0.31312(13) -0.07302(8) -0.00610(6) 1 0 0.01432(16) 
H3 H1+ 2 i -0.019(2) 0.1535(13) 0.1360(11) 1 0 0.026(4) 
H4 H1+ 2 i 0.177(3) 0.1403(14) 0.1120(11) 1 0 0.036(5) 
O2 O2- 2 i 0.05624(14) 0.13917(7) 0.09216(6) 1 0 0.01254(15) 
H5 H1+ 2 i 0.147(3) 0.1367(15) -0.1271(11) 1 0 0.034(5) 
H6 H1+ 2 i -0.031(2) 0.1248(13) -0.1622(11) 1 0 0.027(4) 
O3 O2- 2 i 0.04269(14) 0.12082(8) -0.11324(6) 1 0 0.01350(16) 
H7 H1+ 2 i 0.317(2) 0.3275(15) 0.9656(12) 1 0 0.031(4) 
H8 H1+ 2 i 0.378(2) 0.3767(13) 1.0446(11) 1 0 0.027(4) 
O4 O2- 2 i 0.28400(13) 0.37909(8) 0.99927(6) 1 0 0.01458(16) 
H9 H1+ 2 i 0.214(3) 0.6451(15) 1.0774(14) 1 0 0.041(5) 
H10 H1+ 2 i 0.090(3) 0.7131(17) 1.0217(13) 1 0 0.048(5) 
O5 O2- 2 i 0.15938(13) 0.64598(7) 1.02436(6) 1 0 0.01390(16) 
H11 H1+ 2 i -0.046(3) 0.5845(15) 0.8243(12) 1 0 0.037(5) 
O6 O2- 2 i 0.05060(13) 0.53495(8) 0.85505(5) 1 0 0.01260(15) 
H12 H1+ 2 i 0.178(3) 0.6305(14) 0.6179(12) 1 0 0.041(5) 
H13 H1+ 2 i -0.024(3) 0.6422(14) 0.6421(12) 1 0 0.032(4) 
O7 O2- 2 i 0.05466(14) 0.62922(7) 0.59813(6) 1 0 0.01259(15) 
H14 H1+ 2 i 0.387(3) 0.3924(15) 0.5443(13) 1 0 0.039(5) 
H15 H1+ 2 i 0.387(3) 0.4117(15) 0.4468(13) 1 0 0.040(5) 
O8 O2- 2 i 0.31317(13) 0.42741(8) 0.49418(6) 1 0 0.01417(16) 
H16 H1+ 2 i 0.149(3) 0.6443(14) 0.3792(11) 1 0 0.025(4) 
H17 H1+ 2 i -0.023(2) 0.6386(14) 0.3405(11) 1 0 0.029(4) 
O9 O2- 2 i 0.04074(14) 0.63424(7) 0.39349(6) 1 0 0.01229(15) 
H18 H1+ 2 i 1.059(3) 0.9172(15) 0.6781(11) 1 0 0.034(4) 
O10 O2- 2 i 0.98734(13) 0.97606(8) 0.64456(6) 1 0 0.01468(16) 
H19 H1+ 2 i 0.898(3) 0.7861(16) 0.4810(12) 1 0 0.041(5) 
O11 O2- 2 i 0.82380(13) 0.85321(7) 0.48684(6) 1 0 0.01220(15) 
H20 H1+ 2 i 0.636(2) 1.1283(14) 0.4592(12) 1 0 0.029(4) 
H21 H1+ 2 i 0.677(3) 1.1697(15) 0.5471(12) 1 0 0.038(5) 
O12 O2- 2 i 0.71542(13) 1.11838(8) 0.50809(6) 1 0 0.01407(16) 
H22 H1+ 2 i 0.433(3) 0.0472(16) 0.7008(12) 1 0 0.037(5) 
H23 H1+ 2 i 0.303(3) 0.1238(14) 0.6410(13) 1 0 0.044(5) 
O13 O2- 2 i 0.36967(13) 0.11560(8) 0.69686(6) 1 0 0.01430(16) 
H24 H1+ 2 i 0.342(3) 0.6101(15) 0.8623(12) 1 0 0.038(5) 
H25 H1+ 2 i 0.505(3) 0.5452(16) 0.8257(12) 1 0 0.043(5) 
O14 O2- 2 i 0.45912(13) 0.61510(7) 0.84867(6) 1 0 0.01164(15) 
O15 O2- 2 i 0.61960(12) 0.37271(7) 0.80439(5) 1 0 0.01289(15) 
O16 O2- 2 i 0.54039(12) 0.86164(7) 0.64959(5) 1 0 0.01233(15) 
H26 H1+ 2 i 0.909(3) 1.0248(15) 0.6781(11) 1 0 0.034(4) 
H27 H1+ 2 i 0.103(3) 0.4772(15) 0.8217(11) 1 0 0.035(4) 
H28 H1+ 2 i 0.757(3) 0.8543(14) 0.5343(12) 1 0 0.037(5) 

loop_
_atom_site_aniso_label
_atom_site_aniso_type_symbol
_atom_site_aniso_U_11
_atom_site_aniso_U_22
_atom_site_aniso_U_33
_atom_site_aniso_U_12
_atom_site_aniso_U_13
_atom_site_aniso_U_23
Zn1 Zn2+ 0.00705(8) 0.00838(8) 0.00828(8) -0.00079(6) -0.00035(6) 
0.00038(6)
Zn2 Zn2+ 0.00926(8) 0.00825(8) 0.00720(8) -0.00008(6) -0.00021(6) 
-0.00006(6)
Zn3 Zn2+ 0.00666(8) 0.00849(8) 0.00819(8) -0.00070(6) -0.00042(6) 
0.00007(6)
Zn4 Zn2+ 0.00800(8) 0.00852(8) 0.00746(8) -0.00003(6) -0.00071(6) 
-0.00079(6)
V1 V4+ 0.01036(9) 0.01048(8) 0.00912(9) -0.00093(6) -0.00134(6) -0.00070(6)
V2 V4+ 0.00878(8) 0.00940(8) 0.00785(8) -0.00065(6) -0.00013(6) -0.00032(6)
F1 F1- 0.0141(3) 0.0180(3) 0.0141(3) -0.0038(3) 0.0007(2) -0.0062(2)
F2 F1- 0.0102(3) 0.0173(3) 0.0128(3) 0.0011(2) 0.0008(2) 0.0015(2)
F3 F1- 0.0121(3) 0.0181(3) 0.0130(3) -0.0035(2) 0.0003(2) -0.0064(2)
F4 F1- 0.0101(3) 0.0176(3) 0.0124(3) 0.0006(2) 0.0004(2) 0.0010(2)
F5 F1- 0.0113(3) 0.0154(3) 0.0131(3) 0.0032(2) -0.0025(2) -0.0018(2)
F6 F1- 0.0122(3) 0.0132(3) 0.0087(3) -0.0007(2) -0.0001(2) 0.0006(2)
F7 F1- 0.0125(3) 0.0146(3) 0.0133(3) 0.0044(2) -0.0022(2) -0.0021(2)
F8 F1- 0.0122(3) 0.0135(3) 0.0085(3) -0.0018(2) -0.0001(2) 0.0007(2)
O1 O2- 0.0085(4) 0.0219(4) 0.0108(4) 0.0022(3) 0.0001(3) 0.0009(3)
O2 O2- 0.0106(4) 0.0165(4) 0.0111(4) -0.0035(3) 0.0011(3) -0.0047(3)
O3 O2- 0.0107(4) 0.0194(4) 0.0113(4) -0.0055(3) -0.0024(3) 0.0051(3)
O4 O2- 0.0135(4) 0.0150(4) 0.0131(4) 0.0047(3) -0.0035(3) -0.0051(3)
O5 O2- 0.0151(4) 0.0101(4) 0.0164(4) -0.0011(3) -0.0037(3) -0.0015(3)
O6 O2- 0.0145(4) 0.0132(4) 0.0082(3) 0.0033(3) -0.0009(3) -0.0003(3)
O7 O2- 0.0100(4) 0.0174(4) 0.0109(4) -0.0034(3) 0.0011(3) -0.0052(3)
O8 O2- 0.0085(4) 0.0222(4) 0.0101(4) 0.0019(3) 0.0003(3) 0.0012(3)
O9 O2- 0.0102(4) 0.0177(4) 0.0096(4) -0.0046(3) -0.0018(3) 0.0038(3)
O10 O2- 0.0174(4) 0.0156(4) 0.0079(3) 0.0058(3) 0.0001(3) 0.0001(3)
O11 O2- 0.0115(4) 0.0103(3) 0.0145(4) -0.0011(3) 0.0009(3) -0.0008(3)
O12 O2- 0.0120(4) 0.0163(4) 0.0118(4) 0.0045(3) -0.0031(3) -0.0044(3)
O13 O2- 0.0164(4) 0.0113(4) 0.0157(4) -0.0025(3) -0.0041(3) -0.0026(3)
O14 O2- 0.0100(4) 0.0117(4) 0.0128(4) -0.0011(3) 0.0011(3) 0.0010(3)
O15 O2- 0.0151(4) 0.0118(3) 0.0124(4) -0.0037(3) -0.0023(3) -0.0014(3)
O16 O2- 0.0107(4) 0.0145(4) 0.0114(4) -0.0018(3) 0.0000(3) 0.0038(3)
#End of data_262616-ICSD


