data_421736-ICSD
#?2014 by Fachinformationszentrum Karlsruhe, and the U.S. Secretary of 
#Commerce on behalf of the United States.  All rights reserved.
_database_code_ICSD                421736
_audit_creation_date               2011/02/01
_chemical_name_systematic
;
Potassium Aluminium Oxide Fluoride (2/2/3/2)
;
_chemical_formula_structural       'K2 Al2 O3 F2'
_chemical_formula_sum              'Al2 F2 K2 O3'
_publ_section_title
;
Ab-initio structure determination of the new ion conductor K2 Al2 O3 
F2 from powder diffraction data
;
loop_
_citation_id
_citation_journal_abbrev
_citation_year
_citation_journal_volume
_citation_journal_issue
_citation_page_first
_citation_page_last
_citation_journal_id_ASTM
primary 'Zeitschrift fuer Anorganische und Allgemeine Chemie (1950) (DE)'
 2011 637 1 41 45 ZAACAB
_publ_author_name
;
Kubel, F.;Fleig, J.;Pantazi, M.;Januschewsky, J.
;
_cell_length_a                     11.21675(8)
_cell_length_b                     8.16351(6)
_cell_length_c                     6.12301(5)
_cell_angle_alpha                  90.00000
_cell_angle_beta                   88.8108(6)
_cell_angle_gamma                  90.00000
_cell_volume                       560.55
_cell_formula_units_Z              4
_symmetry_space_group_name_H-M     'C 1 2/m 1'
_symmetry_Int_Tables_number        12
_refine_ls_R_factor_all            .035
loop_
_symmetry_equiv_pos_site_id
_symmetry_equiv_pos_as_xyz
  1	'-x, y, -z'
  2	'-x, -y, -z'
  3	'x, -y, z'
  4	'x, y, z'
  5	'-x+.5, y+.5, -z'
  6	'-x+.5, -y+.5, -z'
  7	'x+.5, -y+.5, z'
  8	'x+.5, y+.5, z'
loop_
_atom_type_symbol
_atom_type_oxidation_number
Al3+	3
F1-	-1
K1+	1
O2-	-2
loop_
_atom_site_label
_atom_site_type_symbol
_atom_site_symmetry_multiplicity
_atom_site_Wyckoff_symbol
_atom_site_fract_x
_atom_site_fract_y
_atom_site_fract_z
_atom_site_occupancy
_atom_site_attached_hydrogens
_atom_site_U_iso_or_equiv
K1 K1+ 4 i .65702(12) .50000 .3326(2) 1.00000 0 .0299(4) 
K2 K1+ 4 i .09945(12) .50000 .2622(2) 1.00000 0 .0246(5) 
Al1 Al3+ 8 j .37428(13) .69999(15) .14556(19) 1.00000 0 .0198(4) 
F1 F1- 8 j .12945(19) .3137(3) .6181(3) 1.00000 0 .0313(7) 
O1 O2- 4 i .1236(4) .00000 .7695(6) 1.00000 0 .0250(7) 
O2 O2- 4 g .50000 .2410(4) .00000 1.00000 0 .0250(7) 
O3 O2- 4 e .25000 .75000 .00000 1.00000 0 .0250(7) 

#End of data_421736-ICSD


