data_280927-ICSD
#?2014 by Fachinformationszentrum Karlsruhe, and the U.S. Secretary of 
#Commerce on behalf of the United States.  All rights reserved.
_database_code_ICSD                280927
_audit_creation_date               2003/04/01
_audit_update_record               2005/10/01
_chemical_name_systematic          'Dilithium Barium Diphosphate(V)'
_chemical_formula_structural       'Li2 Ba (P2 O7)'
_chemical_formula_sum              'Ba1 Li2 O7 P2'
_publ_section_title                'Dilithium barium diphosphate'
loop_
_citation_id
_citation_journal_abbrev
_citation_year
_citation_journal_volume
_citation_page_first
_citation_page_last
_citation_journal_id_ASTM
primary 'Acta Crystallographica, Section C: Crystal Structure Communications'
 2002 58 i74 i75 ACSCEE
_publ_author_name
;
Dridi, N.;Arbib, E.;Boukhari, A.;Holt, E.M.
;
_cell_length_a                     7.147(8)
_cell_length_b                     12.283(14)
_cell_length_c                     14.016(16)
_cell_angle_alpha                  90.
_cell_angle_beta                   90.49(7)
_cell_angle_gamma                  90.
_cell_volume                       1230.37
_cell_formula_units_Z              8
_symmetry_space_group_name_H-M     'C 1 2/c 1'
_symmetry_Int_Tables_number        15
_refine_ls_R_factor_all            .062
loop_
_symmetry_equiv_pos_site_id
_symmetry_equiv_pos_as_xyz
  1	'x, -y, z+.5'
  2	'-x, -y, -z'
  3	'-x, y, -z+.5'
  4	'x, y, z'
  5	'x+.5, -y+.5, z+.5'
  6	'-x+.5, -y+.5, -z'
  7	'-x+.5, y+.5, -z+.5'
  8	'x+.5, y+.5, z'
loop_
_atom_type_symbol
_atom_type_oxidation_number
Ba2+	2
Li1+	1
O2-	-2
P5+	5
loop_
_atom_site_label
_atom_site_type_symbol
_atom_site_symmetry_multiplicity
_atom_site_Wyckoff_symbol
_atom_site_fract_x
_atom_site_fract_y
_atom_site_fract_z
_atom_site_occupancy
_atom_site_attached_hydrogens
_atom_site_U_iso_or_equiv
Ba1 Ba2+ 8 f 0.18368(5) 0.47348(5) 0.12094(3) 1. 0 0.0155(3) 
P1 P5+ 8 f 0.6788(2) 0.3963(2) 0.11960(12) 1. 0 0.0119(5) 
P2 P5+ 8 f 0.7188(3) 0.63112(19) 0.13469(15) 1. 0 0.0127(5) 
O1 O2- 8 f 0.5043(8) 0.3262(6) 0.1341(4) 1. 0 0.0165(12) 
O2 O2- 8 f 0.7612(8) 0.3761(6) 0.0211(4) 1. 0 0.0187(13) 
O3 O2- 8 f 0.8270(7) 0.3908(6) 0.1996(4) 1. 0 0.0168(12) 
O4 O2- 8 f 0.5897(8) 0.5199(5) 0.1230(5) 1. 0 0.0196(16) 
O5 O2- 8 f 0.5861(7) 0.7251(6) 0.1115(4) 1. 0 0.0193(13) 
O6 O2- 8 f 0.8774(8) 0.6132(6) 0.0647(5) 1. 0 0.0206(13) 
O7 O2- 8 f 0.7808(8) 0.6350(6) 0.2403(4) 1. 0 0.0208(14) 
Li1 Li1+ 4 e 0 0.270(2) 0.25 1. 0 0.025(5) 
Li2 Li1+ 4 e 0 0.264(2) 0.75 1. 0 0.017(5) 
Li3 Li1+ 8 f -.0289(18) 0.2659(16) -.0086(10) 1. 0 0.021(3) 

loop_
_atom_site_aniso_label
_atom_site_aniso_type_symbol
_atom_site_aniso_U_11
_atom_site_aniso_U_22
_atom_site_aniso_U_33
_atom_site_aniso_U_12
_atom_site_aniso_U_13
_atom_site_aniso_U_23
Ba1 Ba2+ 0.0126(4) 0.0218(6) 0.0120(4) 0.00131(12) -0.0013(2) 0.00076(15)
P1 P5+ 0.0106(9) 0.0157(15) 0.0093(10) 0.0006(5) -0.0009(6) -0.0001(7)
P2 P5+ 0.0088(7) 0.0157(13) 0.0136(9) 0.0012(6) -0.0023(6) 0.0002(8)
O1 O2- 0.016(2) 0.020(4) 0.014(2) -0.007(2) 0.0012(17) 0.003(2)
O2 O2- 0.016(2) 0.020(4) 0.020(3) 0.0018(19) 0.004(2) -0.002(3)
O3 O2- 0.012(2) 0.025(4) 0.013(3) 0.0017(18) -0.0070(17) -0.002(2)
O4 O2- 0.009(2) 0.027(5) 0.022(3) 0.0008(18) -0.005(2) -0.015(3)
O5 O2- 0.012(2) 0.027(4) 0.019(3) 0.008(2) -0.0033(17) -0.005(3)
O6 O2- 0.015(2) 0.019(4) 0.028(3) -0.0020(19) 0.006(2) -0.003(3)
O7 O2- 0.022(3) 0.025(4) 0.015(3) -0.002(2) -0.007(2) 0.003(3)
Li1 Li1+ 0.034(11) 0.022(16) 0.019(10) 0 0.000(7) 0
Li2 Li1+ 0.005(6) 0.023(14) 0.024(10) 0 -0.001(6) 0
Li3 Li1+ 0.014(4) 0.041(11) 0.009(5) 0.011(5) -0.005(4) -0.014(6)
#End of data_280927-ICSD


