data_92627-ICSD
#?2014 by Fachinformationszentrum Karlsruhe, and the U.S. Secretary of 
#Commerce on behalf of the United States.  All rights reserved.
_database_code_ICSD                92627
_audit_creation_date               2003/04/01
_audit_update_record               2006/04/01
_chemical_name_systematic
;
Dipotassium Tetrachlorozincate - Ferroelectric
;
_chemical_formula_structural       'K2 (Zn Cl4)'
_chemical_formula_sum              'Cl4 K2 Zn1'
_publ_section_title
;
Interatomic potential parameters for potassium tetrachlorozincate and 
their application to modelling its phase transformations
;
loop_
_citation_id
_citation_journal_abbrev
_citation_year
_citation_journal_volume
_citation_page_first
_citation_page_last
_citation_journal_id_ASTM
primary 'Acta Crystallographica. Section A: Foundations of Crystallography'
 2001 57 264 271 ACACEQ
2 'Golden Book of Phase Transitions, Wroclaw' 2002 1 1 123 GBOPT5
_publ_author_name
;
Ferrari, E.S.;Roberts, K.J.;Thomson, G.B.;Gale, J.D.;Catlow, C.R.A.
;
_cell_length_a                     27.251
_cell_length_b                     12.578
_cell_length_c                     7.239
_cell_angle_alpha                  90
_cell_angle_beta                   90
_cell_angle_gamma                  90
_cell_volume                       2481.26
_cell_formula_units_Z              12
_symmetry_space_group_name_H-M     'P n a 21'
_symmetry_Int_Tables_number        33
loop_
_symmetry_equiv_pos_site_id
_symmetry_equiv_pos_as_xyz
  1	'x+.5, -y+.5, z'
  2	'-x+.5, y+.5, z+.5'
  3	'-x, -y, z+.5'
  4	'x, y, z'
loop_
_atom_type_symbol
_atom_type_oxidation_number
Cl1-	-1
K1+	1
Zn2+	2
loop_
_atom_site_label
_atom_site_type_symbol
_atom_site_symmetry_multiplicity
_atom_site_Wyckoff_symbol
_atom_site_fract_x
_atom_site_fract_y
_atom_site_fract_z
_atom_site_occupancy
_atom_site_attached_hydrogens
K1 K1+ 4 a 0.0452 0.0876 0.7866 1. 0 
K2 K1+ 4 a 0.3819 0.0874 0.7646 1. 0 
Zn1 Zn2+ 4 a 0.0734 0.4228 0.7498 1. 0 
Cl1 Cl1- 4 a 0.9931 0.4452 0.6707 1. 0 
Cl2 Cl1- 4 a 0.1125 0.5796 0.8148 1. 0 
Cl3 Cl1- 4 a 0.0851 0.3014 0.9791 1. 0 
Cl4 Cl1- 4 a 0.1121 0.3608 0.4930 1. 0 
K3 K1+ 4 a 0.7128 0.0825 0.7296 1. 0 
K4 K1+ 4 a 0.3321 0.6914 0.7284 1. 0 
Zn2 Zn2+ 4 a 0.4071 0.4208 0.7751 1. 0 
Cl5 Cl1- 4 a 0.3249 0.4396 0.8150 1. 0 
Cl6 Cl1- 4 a 0.4475 0.5760 0.8332 1. 0 
Cl7 Cl1- 4 a 0.4355 0.2989 0.9771 1. 0 
Cl8 Cl1- 4 a 0.4300 0.3637 0.4909 1. 0 
K5 K1+ 4 a 0.6661 0.6849 0.7403 1. 0 
K6 K1+ 4 a 0.9996 0.6906 0.7896 1. 0 
Zn3 Zn2+ 4 a 0.7415 0.4162 0.7441 1. 0 
Cl9 Cl1- 4 a 0.6605 0.4328 0.8180 1. 0 
Cl10 Cl1- 4 a 0.7787 0.5746 0.6741 1. 0 
Cl11 Cl1- 4 a 0.7802 0.3617 0.0040 1. 0 
Cl12 Cl1- 4 a 0.7560 0.2915 0.5221 1. 0 

#End of data_92627-ICSD


