data_200051-ICSD
#?2014 by Fachinformationszentrum Karlsruhe, and the U.S. Secretary of 
#Commerce on behalf of the United States.  All rights reserved.
_database_code_ICSD                200051
_audit_creation_date               1980/01/01
_audit_update_record               2000/07/15
_chemical_name_systematic          'Tetraaluminium Dibismuth Oxide'
_chemical_formula_structural       'Al4 Bi2 O9'
_chemical_formula_sum              'Al4 Bi2 O9'
_publ_section_title
;
Zur Kristallstruktur von Al4 Bi2 O9
;
loop_
_citation_id
_citation_journal_abbrev
_citation_year
_citation_journal_volume
_citation_page_first
_citation_page_last
_citation_journal_id_ASTM
primary 'Journal of Inorganic and Nuclear Chemistry' 1977 39 233 235 JINCAO
_publ_author_name                  'Arpe, R.;Mueller Buschbaum, H.'
_cell_length_a                     7.722
_cell_length_b                     8.112
_cell_length_c                     5.703
_cell_angle_alpha                  90.
_cell_angle_beta                   90.
_cell_angle_gamma                  90.
_cell_volume                       357.24
_cell_formula_units_Z              2
_symmetry_space_group_name_H-M     'P b a m'
_symmetry_Int_Tables_number        55
_refine_ls_R_factor_all            .047
loop_
_symmetry_equiv_pos_site_id
_symmetry_equiv_pos_as_xyz
  1	'x+.5, -y+.5, z'
  2	'-x+.5, y+.5, z'
  3	'x, y, -z'
  4	'-x, -y, -z'
  5	'-x+.5, y+.5, -z'
  6	'x+.5, -y+.5, -z'
  7	'-x, -y, z'
  8	'x, y, z'
loop_
_atom_type_symbol
_atom_type_oxidation_number
Al3+	3
Bi3+	3
O2-	-2
loop_
_atom_site_label
_atom_site_type_symbol
_atom_site_symmetry_multiplicity
_atom_site_Wyckoff_symbol
_atom_site_fract_x
_atom_site_fract_y
_atom_site_fract_z
_atom_site_occupancy
_atom_site_attached_hydrogens
Al1 Al3+ 4 e 0 0 0.2606 1. 0 
Al2 Al3+ 4 h 0.3526 0.1596 0.5 1. 0 
Bi1 Bi3+ 4 g 0.1711 0.3321 0 1. 0 
O1 O2- 4 g 0.143 0.071 0 1. 0 
O2 O2- 4 h 0.139 0.087 0.5 1. 0 
O3 O2- 8 i 0.372 0.294 0.251 1. 0 
O4 O2- 2 d 0.5 0 0.5 1. 0 

#End of data_200051-ICSD


