data_62783-ICSD
#?2014 by Fachinformationszentrum Karlsruhe, and the U.S. Secretary of 
#Commerce on behalf of the United States.  All rights reserved.
_database_code_ICSD                62783
_audit_creation_date               1988/07/15
_chemical_name_systematic
;
Silver Potassium Dichromate(VI) - Prepared At 623 K
;
_chemical_formula_structural       'Ag K Cr2 O7'
_chemical_formula_sum              'Ag1 Cr2 K1 O7'
_publ_section_title
;
Caracterisation et etude structurale du bichromate mixte Ag K Cr2 O7.
;
loop_
_citation_id
_citation_journal_abbrev
_citation_year
_citation_journal_volume
_citation_page_first
_citation_page_last
_citation_journal_id_ASTM
primary 'Journal of Solid State Chemistry' 1985 57 338 342 JSSCBI
_publ_author_name                  'Mnasser, S.;Bois, C.;Papin, G.'
_cell_length_a                     15.175(7)
_cell_length_b                     7.414(4)
_cell_length_c                     6.014(2)
_cell_angle_alpha                  90.
_cell_angle_beta                   90.
_cell_angle_gamma                  90.
_cell_volume                       676.62
_cell_formula_units_Z              4
_symmetry_space_group_name_H-M     'P n a m'
_symmetry_Int_Tables_number        62
_refine_ls_R_factor_all            .072
loop_
_symmetry_equiv_pos_site_id
_symmetry_equiv_pos_as_xyz
  1	'x+.5, -y+.5, z'
  2	'x, y, -z+.5'
  3	'-x+.5, y+.5, z+.5'
  4	'-x, -y, -z'
  5	'-x+.5, y+.5, -z'
  6	'-x, -y, z+.5'
  7	'x+.5, -y+.5, -z+.5'
  8	'x, y, z'
loop_
_atom_type_symbol
_atom_type_oxidation_number
Ag1+	1
Cr6+	6
K1+	1
O2-	-2
loop_
_atom_site_label
_atom_site_type_symbol
_atom_site_symmetry_multiplicity
_atom_site_Wyckoff_symbol
_atom_site_fract_x
_atom_site_fract_y
_atom_site_fract_z
_atom_site_occupancy
_atom_site_attached_hydrogens
Ag1 Ag1+ 4 c 0.54928(5) 0.15475(2) 0.25 1. 0 
K1 K1+ 4 c 0.29083(14) 0.1435(3) 0.25 1. 0 
Cr1 Cr6+ 4 c 0.64697(9) 0.3265(2) 0.75 1. 0 
Cr2 Cr6+ 4 c 0.44137(9) 0.3075(2) 0.75 1. 0 
O1 O2- 4 c 0.54084(40) 0.4306(9) 0.75 1. 0 
O2 O2- 8 d 0.43938(28) 0.1818(7) 0.5282(9) 1. 0 
O3 O2- 4 c 0.72225(46) 0.4762(10) 0.75 1. 0 
O4 O2- 4 c 0.36146(46) 0.4505(12) 0.75 1. 0 
O5 O2- 8 d 0.65462(29) 0.2000(7) 0.5304(9) 1. 0 

#End of data_62783-ICSD


