data_1698-ICSD
#?2014 by Fachinformationszentrum Karlsruhe, and the U.S. Secretary of 
#Commerce on behalf of the United States.  All rights reserved.
_database_code_ICSD                1698
_audit_creation_date               1980/01/01
_audit_update_record               2010/02/01
_chemical_name_systematic
;
Disodium Closo-dihydroxohexaoxotetraborate
;
_chemical_formula_structural       'Na2 (B4 O6 (O H)2)'
_chemical_formula_sum              'H2 B4 Na2 O8'
_publ_section_title
;
The crystal structure of  Na2 (B4 O6 (O H)2)
;
loop_
_citation_id
_citation_journal_abbrev
_citation_year
_citation_journal_volume
_citation_page_first
_citation_page_last
_citation_journal_id_ASTM
primary 'Acta Crystallographica B (24,1968-38,1982)' 1978 34 1080 1084 ACBCAR
_publ_author_name                  'Menchetti, S.;Sabelli, C.'
_cell_length_a                     8.540(4)
_cell_length_b                     10.263(4)
_cell_length_c                     14.547(6)
_cell_angle_alpha                  90.
_cell_angle_beta                   90.
_cell_angle_gamma                  90.
_cell_volume                       1274.99
_cell_formula_units_Z              8
_symmetry_space_group_name_H-M     'P b c a'
_symmetry_Int_Tables_number        61
_refine_ls_R_factor_all            .056
loop_
_symmetry_equiv_pos_site_id
_symmetry_equiv_pos_as_xyz
  1	'x+.5, y, -z+.5'
  2	'x, -y+.5, z+.5'
  3	'-x+.5, y+.5, z'
  4	'-x, -y, -z'
  5	'-x+.5, -y, z+.5'
  6	'-x, y+.5, -z+.5'
  7	'x+.5, -y+.5, -z'
  8	'x, y, z'
loop_
_atom_type_symbol
_atom_type_oxidation_number
B3+	3
H1+	1
Na1+	1
O2-	-2
loop_
_atom_site_label
_atom_site_type_symbol
_atom_site_symmetry_multiplicity
_atom_site_Wyckoff_symbol
_atom_site_fract_x
_atom_site_fract_y
_atom_site_fract_z
_atom_site_occupancy
_atom_site_attached_hydrogens
_atom_site_B_iso_or_equiv
Na1 Na1+ 8 c 0.9187(2) 0.5444(1) 0.3200(1) 1. 0 0 
Na2 Na1+ 8 c 0.7931(1) 0.4834(1) 0.0607(1) 1. 0 0 
O1 O2- 8 c 0.4836(2) 0.3315(2) 0.2373(1) 1. 0 0 
O2 O2- 8 c 0.7488(2) 0.3179(2) 0.1819(1) 1. 0 0 
O3 O2- 8 c 0.5657(2) 0.1405(2) 0.1526(1) 1. 0 0 
O4 O2- 8 c 0.5458(2) 0.3523(2) 0.0774(1) 1. 0 0 
O5 O2- 8 c 0.2974(2) 0.1686(2) 0.1964(1) 1. 0 0 
O6 O2- 8 c 0.3721(2) 0.1794(2) 0.0365(1) 1. 0 0 
O7 O2- 8 c 0.3682(2) -.0217(2) 0.1089(2) 1. 0 0 
O8 O2- 8 c 0.4164(3) 0.3520(2) -.0665(1) 1. 0 0 
B1 B3+ 8 c 0.5862(4) 0.2802(3) 0.1623(2) 1. 0 0 
B2 B3+ 8 c 0.4055(4) 0.1156(3) 0.1242(2) 1. 0 0 
B3 B3+ 8 c 0.3411(4) 0.2720(3) 0.2491(3) 1. 0 0 
B4 B3+ 8 c 0.4462(4) 0.2938(3) 0.0180(2) 1. 0 0 
H1 H1+ 8 c 0.413(3) -.077(3) 0.0160(2) 1. 0 6.56 
H2 H1+ 8 c 0.354(3) 0.296(3) -.097(2) 1. 0 4.28 

#End of data_1698-ICSD


