data_167809-ICSD
#?2014 by Fachinformationszentrum Karlsruhe, and the U.S. Secretary of 
#Commerce on behalf of the United States.  All rights reserved.
_database_code_ICSD                167809
_audit_creation_date               2011/02/01
_chemical_name_systematic          'Calcium Titanate - Pbnm'
_chemical_formula_structural       'Ca (Ti O3)'
_chemical_formula_sum              'Ca1 O3 Ti1'
_publ_section_title
;
Calculation of structural, elastic, electronic and thermal properties 
of orthorhombic Ca Ti O3
;
loop_
_citation_id
_citation_journal_abbrev
_citation_year
_citation_journal_volume
_citation_page_first
_citation_page_last
_citation_journal_id_ASTM
primary 'Physica B, Condensed Matter' 2010 405 3879 3884 PHYBE3
_publ_author_name
;
Boudali, A.;Abada, A.;Driss Khodja, M.;Amrani, B.;Amara, K.;Driss 
Khodja, F.;Elias, A.
;
_cell_length_a                     5.4117
_cell_length_b                     5.5111
_cell_length_c                     7.7016
_cell_angle_alpha                  90.
_cell_angle_beta                   90.
_cell_angle_gamma                  90.
_cell_volume                       229.7
_cell_formula_units_Z              4
_symmetry_space_group_name_H-M     'P b n m'
_symmetry_Int_Tables_number        62
loop_
_symmetry_equiv_pos_site_id
_symmetry_equiv_pos_as_xyz
  1	'-x+.5, y+.5, z'
  2	'x, y, -z+.5'
  3	'x+.5, -y+.5, z+.5'
  4	'-x, -y, -z'
  5	'x+.5, -y+.5, -z'
  6	'-x, -y, z+.5'
  7	'-x+.5, y+.5, -z+.5'
  8	'x, y, z'
loop_
_atom_type_symbol
_atom_type_oxidation_number
Ca2+	2
O2-	-2
Ti4+	4
loop_
_atom_site_label
_atom_site_type_symbol
_atom_site_symmetry_multiplicity
_atom_site_Wyckoff_symbol
_atom_site_fract_x
_atom_site_fract_y
_atom_site_fract_z
_atom_site_occupancy
_atom_site_attached_hydrogens
O1 O2- 8 d 0.209249 0.290263 0.040277 1. 0 
O2 O2- 4 c -0.07672 0.980510 0.250 1. 0 
Ca1 Ca2+ 4 c 0.008909 0.542629 0.250 1. 0 
Ti1 Ti4+ 4 a 0 0 0 1. 0 

#End of data_167809-ICSD


