data_413168-ICSD
#?2014 by Fachinformationszentrum Karlsruhe, and the U.S. Secretary of 
#Commerce on behalf of the United States.  All rights reserved.
_database_code_ICSD                413168
_audit_creation_date               2004/10/01
_chemical_name_systematic
;
Dipotassium Magnesium Hexaselenidodiphosphate(IV)
;
_chemical_formula_structural       'K2 Mg (P2 Se6)'
_chemical_formula_sum              'K2 Mg1 P2 Se6'
_publ_section_title
;
Die Kristallstrukturen von Hexachalcogeno-Hypodiphosphaten des 
Magnesiums und Zinks
;
loop_
_citation_id
_citation_journal_abbrev
_citation_year
_citation_journal_volume
_citation_page_first
_citation_page_last
_citation_journal_id_ASTM
primary 'Zeitschrift fuer Anorganische und Allgemeine Chemie (1950) (DE)'
 2004 630 51 57 ZAACAB
_publ_author_name                  'Joergens, S.;Mewis, A.'
_cell_length_a                     6.546(1)
_cell_length_b                     12.724(3)
_cell_length_c                     7.599(2)
_cell_angle_alpha                  90.
_cell_angle_beta                   103.02(3)
_cell_angle_gamma                  90.
_cell_volume                       616.66
_cell_formula_units_Z              2
_symmetry_space_group_name_H-M     'P 1 21/n 1'
_symmetry_Int_Tables_number        14
_refine_ls_R_factor_all            .047
loop_
_symmetry_equiv_pos_site_id
_symmetry_equiv_pos_as_xyz
  1	'-x+.5, y+.5, -z+.5'
  2	'-x, -y, -z'
  3	'x+.5, -y+.5, z+.5'
  4	'x, y, z'
loop_
_atom_type_symbol
_atom_type_oxidation_number
K1+	1
Mg2+	2
P4+	4
Se2-	-2
loop_
_atom_site_label
_atom_site_type_symbol
_atom_site_symmetry_multiplicity
_atom_site_Wyckoff_symbol
_atom_site_fract_x
_atom_site_fract_y
_atom_site_fract_z
_atom_site_occupancy
_atom_site_attached_hydrogens
_atom_site_U_iso_or_equiv
K1 K1+ 4 e 0.2217(3) 0.30874(19) 0.5429(3) 1. 0 0.0497(6) 
Mg1 Mg2+ 2 c 0 0.5 0 1. 0 0.0250(9) 
P1 P4+ 4 e 0.5123(3) 0.53249(17) 0.8663(3) 1. 0 0.0189(4) 
Se1 Se2- 4 e 0.18697(12) 0.55860(8) 0.72906(12) 1. 0 0.0325(3) 
Se2 Se2- 4 e 0.32175(13) 0.58681(8) 0.25415(12) 1. 0 0.0316(3) 
Se3 Se2- 4 e 0.28639(13) 0.32963(7) 0.07373(15) 1. 0 0.0345(3) 

loop_
_atom_site_aniso_label
_atom_site_aniso_type_symbol
_atom_site_aniso_U_11
_atom_site_aniso_U_22
_atom_site_aniso_U_33
_atom_site_aniso_U_12
_atom_site_aniso_U_13
_atom_site_aniso_U_23
K1 K1+ 0.0368(12) 0.0435(15) 0.0611(17) -.0076(10) -.0055(11) -.0034(12)
Mg1 Mg2+ 0.0129(17) 0.033(2) 0.029(2) 0.0013(16) 0.0048(16) 0.0011(19)
P1 P4+ 0.0132(8) 0.0243(11) 0.020(1) 0.0011(8) 0.0056(8) 0.0024(9)
Se1 Se2- 0.0159(4) 0.0539(7) 0.0273(5) 0.0065(4) 0.0038(3) 0.0118(5)
Se2 Se2- 0.0176(4) 0.0451(6) 0.0329(5) 0.0006(4) 0.0077(4) -.0171(5)
Se3 Se2- 0.0220(4) 0.0212(4) 0.0626(7) -.0025(4) 0.0143(4) 0.0058(5)
#End of data_413168-ICSD


