data_61176-ICSD
#?2014 by Fachinformationszentrum Karlsruhe, and the U.S. Secretary of 
#Commerce on behalf of the United States.  All rights reserved.
_database_code_ICSD                61176
_audit_creation_date               1986/12/03
_audit_update_record               2006/04/01
_chemical_name_systematic          'Potassium Iodate(V)'
_chemical_formula_structural       'K (I O3)'
_chemical_formula_sum              'I1 K1 O3'
_publ_section_title
;
Structure (neutron) of potassium iodate at 100 and 10 K
;
loop_
_citation_id
_citation_journal_abbrev
_citation_year
_citation_journal_volume
_citation_page_first
_citation_page_last
_citation_journal_id_ASTM
primary 'Acta Crystallographica, Section C: Crystal Structure Communications'
 1985 41 1388 1391 ACSCEE
2 'Golden Book of Phase Transitions, Wroclaw' 2002 1 1 123 GBOPT5
_publ_author_name                  'Lucas, B.W.'
_cell_length_a                     7.6982(4)
_cell_length_b                     7.6597(2)
_cell_length_c                     7.6912(5)
_cell_angle_alpha                  108.999(5)
_cell_angle_beta                   109.745(2)
_cell_angle_gamma                  109.085(5)
_cell_volume                       351.6
_cell_formula_units_Z              4
_symmetry_space_group_name_H-M     'P 1'
_symmetry_Int_Tables_number        1
_refine_ls_R_factor_all            .0812
loop_
_symmetry_equiv_pos_site_id
_symmetry_equiv_pos_as_xyz
  1	'x, y, z'
loop_
_atom_type_symbol
_atom_type_oxidation_number
I5+	5
K1+	1
O2-	-2
loop_
_atom_site_label
_atom_site_type_symbol
_atom_site_symmetry_multiplicity
_atom_site_Wyckoff_symbol
_atom_site_fract_x
_atom_site_fract_y
_atom_site_fract_z
_atom_site_occupancy
_atom_site_attached_hydrogens
_atom_site_B_iso_or_equiv
K1 K1+ 1 a -.0063(51) 0.0266(45) 0.4832(59) 1. 0 0.52(13) 
K2 K1+ 1 a -.0135(68) 0.4926(61) 0.0022(70) 1. 0 0.52(13) 
K3 K1+ 1 a 0.5117(48) -.0027(34) 0.0277(53) 1. 0 0.52(13) 
K4 K1+ 1 a 0.5014(56) 0.5131(62) 0.5435(66) 1. 0 0.52(13) 
I1 I5+ 1 a 0 0 0 1. 0 0.33(6) 
I2 I5+ 1 a -.0128(44) 0.5109(35) 0.5060(46) 1. 0 0.33(6) 
I3 I5+ 1 a 0.4898(49) 0.0002(50) 0.5208(50) 1. 0 0.33(6) 
I4 I5+ 1 a 0.5032(45) 0.4879(36) 0.0096(42) 1. 0 0.33(6) 
O1 O2- 1 a 0.0697(52) -.1727(41) -.1360(46) 1. 0 0.94(3) 
O2 O2- 1 a 0.7789(44) -.1952(39) 0.0040(45) 1. 0 0.94(3) 
O3 O2- 1 a 0.8567(46) 0.0379(47) -.2163(50) 1. 0 0.94(3) 
O4 O2- 1 a 0.0308(40) 0.3478(36) 0.3028(45) 1. 0 0.94(3) 
O5 O2- 1 a 0.7896(46) 0.3167(38) 0.5014(42) 1. 0 0.94(3) 
O6 O2- 1 a 0.8542(41) 0.6065(35) 0.3518(43) 1. 0 0.94(3) 
O7 O2- 1 a 0.4987(45) -.1746(39) 0.2867(45) 1. 0 0.94(3) 
O8 O2- 1 a 0.3648(48) -.1920(45) 0.5799(51) 1. 0 0.94(3) 
O9 O2- 1 a 0.2909(46) 0.0333(38) 0.3685(41) 1. 0 0.94(3) 
O10 O2- 1 a 0.3535(55) 0.3207(48) 0.0935(50) 1. 0 0.94(3) 
O11 O2- 1 a 0.2839(38) 0.4591(31) -.200(4) 1. 0 0.94(3) 
O12 O2- 1 a 0.5678(44) 0.3078(40) -.1335(45) 1. 0 0.94(3) 

#End of data_61176-ICSD


