data_34190-ICSD
#?2014 by Fachinformationszentrum Karlsruhe, and the U.S. Secretary of 
#Commerce on behalf of the United States.  All rights reserved.
_database_code_ICSD                34190
_audit_creation_date               1980/01/01
_audit_update_record               1997/11/10
_chemical_name_systematic          'Magnesium Hexaborate Hydrate *'
_chemical_formula_structural       'Mg O (B2 O3)3 (H2 O)7'
_chemical_formula_sum              'H14 B6 Mg1 O17'
_chemical_name_mineral             Admontite
_publ_section_title
;
The crystal structure of synthetic hydrated borates: (II) Mg O (B2 
O3)3 (H2 O)7
;
loop_
_citation_id
_citation_journal_abbrev
_citation_year
_citation_journal_volume
_citation_page_first
_citation_page_last
_citation_journal_id_ASTM
primary 'Crystal Structure Communications' 1976 5 433 436 CSCMCS
_publ_author_name
;
dal Negro, A.;Ungaretti, L.;Basso, R.
;
_cell_length_a                     12.664(1)
_cell_length_b                     10.091(2)
_cell_length_c                     11.322(1)
_cell_angle_alpha                  90.
_cell_angle_beta                   109.6(1)
_cell_angle_gamma                  90.
_cell_volume                       1363.03
_cell_formula_units_Z              4
_symmetry_space_group_name_H-M     'P 1 21/c 1'
_symmetry_Int_Tables_number        14
_refine_ls_R_factor_all            .047
loop_
_symmetry_equiv_pos_site_id
_symmetry_equiv_pos_as_xyz
  1	'x, -y+.5, z+.5'
  2	'-x, -y, -z'
  3	'-x, y+.5, -z+.5'
  4	'x, y, z'
loop_
_atom_type_symbol
_atom_type_oxidation_number
B3+	3
H1+	1
Mg2+	2
O2-	-2
loop_
_atom_site_label
_atom_site_type_symbol
_atom_site_symmetry_multiplicity
_atom_site_Wyckoff_symbol
_atom_site_fract_x
_atom_site_fract_y
_atom_site_fract_z
_atom_site_occupancy
_atom_site_attached_hydrogens
_atom_site_B_iso_or_equiv
Mg1 Mg2+ 2 a 0 0 0 1. 0 1. 
Mg2 Mg2+ 2 d 0.5 0 0.5 1. 0 1.2 
O1 O2- 4 e 0.1421(2) 0.1117(3) 0.0779(2) 1. 0 1.3 
O2 O2- 4 e 0.1015(2) 0.8682(3) 0.9529(3) 1. 0 1.4 
O3 O2- 4 e 0.9798(2) 0.0974(3) 0.8248(2) 1. 0 1.2 
O4 O2- 4 e 0.4764(2) 0.9064(3) 0.1152(3) 1. 0 2.1 
O5 O2- 4 e 0.1761(2) 0.4612(3) 0.8752(3) 1. 0 1.7 
O6 O2- 4 e 0.0850(3) 0.8642(3) 0.5542(3) 1. 0 2.9 
O7 O2- 4 e 0.1797(2) 0.0553(3) 0.8913(2) 1. 0 0.9 
O8 O2- 4 e 0.2406(2) 0.2673(3) 0.9912(2) 1. 0 1.2 
O9 O2- 4 e 0.1056(2) 0.2567(3) 0.7836(2) 1. 0 1.3 
O10 O2- 4 e 0.0697(2) 0.0521(2) 0.6715(2) 1. 0 1.2 
O11 O2- 4 e 0.1616(2) 0.8533(3) 0.7702(2) 1. 0 1.2 
O12 O2- 4 e 0.2983(2) 0.8656(3) 0.9710(3) 1. 0 1.4 
O13 O2- 4 e 0.3336(2) 0.0703(3) 0.0864(3) 1. 0 1.4 
O14 O2- 4 e 0.6440(2) 0.1024(3) 0.5113(3) 1. 0 2.2 
O15 O2- 4 e 0.5424(2) 0.8570(3) 0.3938(3) 1. 0 2.2 
O16 O2- 4 e 0.5848(2) 0.8735(3) 0.6527(3) 1. 0 2.1 
O17 O2- 4 e 0.6029(3) 0.3612(4) 0.7347(3) 1. 0 3.1 
B1 B3+ 4 e 0.2252(4) 0.1277(5) 0.0160(4) 1. 0 1. 
B2 B3+ 4 e 0.0821(4) 0.1174(5) 0.7903(4) 1. 0 0.9 
B3 B3+ 4 e 0.1852(4) 0.9046(5) 0.8985(5) 1. 0 1. 
B4 B3+ 4 e 0.3693(4) 0.9487(5) 0.0580(5) 1. 0 1.3 
B5 B3+ 4 e 0.1052(4) 0.9254(5) 0.6670(5) 1. 0 1.3 
B6 B3+ 4 e 0.1735(4) 0.3252(5) 0.8832(5) 1. 0 1.2 
H1 H1+ 4 e 0.144(4) 0.170(5) 0.130(5) 1. 0 6. 
H2 H1+ 4 e 0.115(4) 0.802(5) 0.980(5) 1. 0 5. 
H3 H1+ 4 e 0.934(4) 0.165(6) 0.800(5) 1. 0 4. 
H4 H1+ 4 e 0.513(4) 0.979(6) 0.151(5) 1. 0 6. 
H5 H1+ 4 e 0.132(4) 0.496(5) 0.812(5) 1. 0 6. 
H6 H1+ 4 e 0.042(4) 0.896(5) 0.481(5) 1. 0 7. 
H7 H1+ 4 e 0.659(4) 0.189(6) 0.525(5) 1. 0 4. 
H8 H1+ 4 e 0.713(4) 0.046(5) 0.551(5) 1. 0 5. 
H9 H1+ 4 e 0.615(4) 0.888(5) 0.736(5) 1. 0 6. 
H10 H1+ 4 e 0.546(4) 0.793(6) 0.643(5) 1. 0 6. 
H11 H1+ 4 e 0.629(4) 0.825(5) 0.445(5) 1. 0 7. 
H12 H1+ 4 e 0.509(4) 0.775(6) 0.369(5) 1. 0 6. 
H13 H1+ 4 e 0.614(4) 0.359(5) 0.813(5) 1. 0 9. 
H14 H1+ 4 e 0.677(4) 0.355(5) 0.723(5) 1. 0 6. 

#End of data_34190-ICSD


