data_72364-ICSD
#?2014 by Fachinformationszentrum Karlsruhe, and the U.S. Secretary of 
#Commerce on behalf of the United States.  All rights reserved.
_database_code_ICSD                72364
_audit_creation_date               1994/01/19
_audit_update_record               2010/02/01
_chemical_name_systematic
;
Disodium Barium Copper Bis(vanadate)
;
_chemical_formula_structural       'Na2 Ba Cu (V O4)2'
_chemical_formula_sum              'Ba1 Cu1 Na2 O8 V2'
_publ_section_title
;
Na2 Ba Cu V2 O8: ein neuer Strukturtyp der Alkali-Erdalkalimetall 
Kupfer-Oxovanadate
;
loop_
_citation_id
_citation_journal_abbrev
_citation_year
_citation_journal_volume
_citation_page_first
_citation_page_last
_citation_journal_id_ASTM
primary 'Zeitschrift fuer Anorganische und Allgemeine Chemie (1950) (DE)'
 1992 618 107 110 ZAACAB
_publ_author_name
;
von Postel, M.;Mueller Buschbaum, H.
;
_cell_length_a                     9.4329(32)
_cell_length_b                     5.6858(52)
_cell_length_c                     14.0488(32)
_cell_angle_alpha                  90.
_cell_angle_beta                   92.344(27)
_cell_angle_gamma                  90.
_cell_volume                       752.86
_cell_formula_units_Z              4
_symmetry_space_group_name_H-M     'C 1 2/c 1'
_symmetry_Int_Tables_number        15
_refine_ls_R_factor_all            .066
loop_
_symmetry_equiv_pos_site_id
_symmetry_equiv_pos_as_xyz
  1	'x, -y, z+.5'
  2	'-x, -y, -z'
  3	'-x, y, -z+.5'
  4	'x, y, z'
  5	'x+.5, -y+.5, z+.5'
  6	'-x+.5, -y+.5, -z'
  7	'-x+.5, y+.5, -z+.5'
  8	'x+.5, y+.5, z'
loop_
_atom_type_symbol
_atom_type_oxidation_number
Ba2+	2
Cu2+	2
Na1+	1
O2-	-2
V5+	5
loop_
_atom_site_label
_atom_site_type_symbol
_atom_site_symmetry_multiplicity
_atom_site_Wyckoff_symbol
_atom_site_fract_x
_atom_site_fract_y
_atom_site_fract_z
_atom_site_occupancy
_atom_site_attached_hydrogens
_atom_site_B_iso_or_equiv
Na1 Na1+ 8 f 0.8394(6) 0.558(1) 0.4135(4) 1. 0 1.56(9) 
Ba1 Ba2+ 4 e 0 0.0987(2) 0.25 1. 0 0.97(2) 
Cu1 Cu2+ 4 a 0 0 0.5 1. 0 0.92(3) 
V1 V5+ 8 f 0.3246(2) 0.0686(4) 0.1294(1) 1. 0 0.77(2) 
O1 O2- 8 f 0.121(1) 0.317(2) 0.4219(6) 1. 0 1.3(1) 
O2 O2- 8 f 0.321(1) 0.023(2) 0.2476(6) 1. 0 1.3(1) 
O3 O2- 8 f 0.1548(9) 0.127(2) 0.0854(6) 1. 0 1.2(1) 
O4 O2- 8 f 0.4403(9) 0.298(2) 0.1037(6) 1. 0 1.0(1) 

#End of data_72364-ICSD


