data_202712-ICSD
#?2014 by Fachinformationszentrum Karlsruhe, and the U.S. Secretary of 
#Commerce on behalf of the United States.  All rights reserved.
_database_code_ICSD                202712
_audit_creation_date               1989/12/04
_audit_update_record               2012/02/01
_chemical_name_systematic          'Calcium Tecto-dialumodisilicate'
_chemical_formula_structural       'Ca (Al2 Si2 O8)'
_chemical_formula_sum              'Al2 Ca1 O8 Si2'
_chemical_name_mineral             Anorthite
_publ_section_title
;
High-pressure structure of anorthite
;
loop_
_citation_id
_citation_journal_abbrev
_citation_year
_citation_journal_volume
_citation_page_first
_citation_page_last
_citation_journal_id_ASTM
primary 'American Mineralogist' 1988 73 1114 1119 AMMIAY
_publ_author_name                  'Angel, R.J.'
_cell_length_a                     8.041(1)
_cell_length_b                     12.748(1)
_cell_length_c                     13.964(2)
_cell_angle_alpha                  92.20(1)
_cell_angle_beta                   115.27(1)
_cell_angle_gamma                  92.65(1)
_cell_volume                       1290.36
_cell_formula_units_Z              8
_symmetry_space_group_name_H-M     'I -1'
_symmetry_Int_Tables_number        2
_refine_ls_R_factor_all            .0117
loop_
_symmetry_equiv_pos_site_id
_symmetry_equiv_pos_as_xyz
  1	'-x, -y, -z'
  2	'x, y, z'
  3	'-x+.5, -y+.5, -z+.5'
  4	'x+.5, y+.5, z+.5'
loop_
_atom_type_symbol
_atom_type_oxidation_number
Al3+	3
Ca2+	2
O2-	-2
Si4+	4
loop_
_atom_site_label
_atom_site_type_symbol
_atom_site_symmetry_multiplicity
_atom_site_Wyckoff_symbol
_atom_site_fract_x
_atom_site_fract_y
_atom_site_fract_z
_atom_site_occupancy
_atom_site_attached_hydrogens
_atom_site_B_iso_or_equiv
Ca1 Ca2+ 4 i 0.2682(4) 0.0348(4) 0.0401(3) 1. 0 0.44(6) 
Ca2 Ca2+ 4 i 0.2653(5) 0.0055(4) 0.5767(3) 1. 0 0.80(7) 
Si1 Si4+ 4 i 0.0050(6) 0.1565(6) 0.1033(3) 1. 0 0.31(8) 
Al1 Al3+ 4 i 0.9966(7) 0.1601(6) 0.6136(4) 1. 0 0.6(1) 
Al2 Al3+ 4 i 0.9988(7) 0.8106(7) 0.1209(4) 1. 0 0.4(1) 
Si2 Si4+ 4 i 0.0036(7) 0.8163(6) 0.6111(4) 1. 0 0.63(9) 
Al3 Al3+ 4 i 0.6862(7) 0.1108(6) 0.1673(4) 1. 0 0.39(7) 
Si3 Si4+ 4 i 0.6700(6) 0.1027(6) 0.6498(4) 1. 0 0.39(9) 
Si4 Si4+ 4 i 0.6685(6) 0.8789(6) 0.1739(4) 1. 0 0.38(8) 
Al4 Al3+ 4 i 0.6815(7) 0.8731(6) 0.6842(4) 1. 0 0.5(1) 
O1 O2- 4 i 0.982(1) 0.126(1) 0.9838(9) 1. 0 0.4(2) 
O2 O2- 4 i 0.023(1) 0.126(1) 0.4966(8) 1. 0 0.4(2) 
O3 O2- 4 i 0.564(1) 0.985(1) 0.1346(9) 1. 0 0.4(2) 
O4 O2- 4 i 0.574(1) 0.991(1) 0.6454(9) 1. 0 0.3(2) 
O5 O2- 4 i 0.833(1) 0.092(1) 0.1071(9) 1. 0 0.7(2) 
O6 O2- 4 i 0.782(1) 0.097(1) 0.5762(9) 1. 0 0.4(2) 
O7 O2- 4 i 0.787(1) 0.858(1) 0.1081(8) 1. 0 0.3(2) 
O8 O2- 4 i 0.840(1) 0.848(1) 0.6372(9) 1. 0 0.6(2) 
O9 O2- 4 i 0.006(1) 0.282(1) 0.135(1) 1. 0 1.1(2) 
O10 O2- 4 i 0.015(1) 0.288(1) 0.6534(9) 1. 0 0.9(2) 
O11 O2- 4 i 0.996(1) 0.676(1) 0.1061(9) 1. 0 0.9(2) 
O12 O2- 4 i 0.006(1) 0.691(1) 0.601(1) 1. 0 1.0(2) 
O13 O2- 4 i 0.201(1) 0.110(1) 0.1750(9) 1. 0 0.7(2) 
O14 O2- 4 i 0.188(1) 0.094(1) 0.6974(9) 1. 0 0.5(2) 
O15 O2- 4 i 0.179(1) 0.862(1) 0.234(1) 1. 0 1.2(2) 
O16 O2- 4 i 0.207(1) 0.868(1) 0.698(1) 1. 0 0.9(2) 

#End of data_202712-ICSD


