data_421252-ICSD
#?2014 by Fachinformationszentrum Karlsruhe, and the U.S. Secretary of 
#Commerce on behalf of the United States.  All rights reserved.
_database_code_ICSD                421252
_audit_creation_date               2010/08/01
_audit_update_record               2013/08/01
_chemical_name_systematic          'Lithium Selenide Nitride (8/1/2)'
_chemical_formula_structural       'Li8 Se N2'
_chemical_formula_sum              'Li8 N2 Se1'
_publ_section_title
;
Synthesis, crystal structure and lithium motion of Li8 Se N2 and Li8 
Te N2
;
loop_
_citation_id
_citation_journal_abbrev
_citation_year
_citation_journal_volume
_citation_journal_issue
_citation_page_first
_citation_page_last
_citation_journal_id_ASTM
primary 'Zeitschrift fuer Anorganische und Allgemeine Chemie (1950) (DE)'
 2010 636 6 936 946 ZAACAB
_publ_author_name
;
Braeunling, D.;Pecher, O.;Trots, D.M.;Senyshyn, A.;Zherebtsov, 
D.A.;Haarmann, F.;Niewa, R.
;
_cell_length_a                     7.060(2)
_cell_length_b                     7.060(2)
_cell_length_c                     9.9689(7)
_cell_angle_alpha                  90.00
_cell_angle_beta                   90.00
_cell_angle_gamma                  90.00
_cell_volume                       496.89
_cell_formula_units_Z              4
_symmetry_space_group_name_H-M     'I 41 m d'
_symmetry_Int_Tables_number        109
_refine_ls_R_factor_all            .0429
loop_
_symmetry_equiv_pos_site_id
_symmetry_equiv_pos_as_xyz
  1	'y, -x+.5, z+.25'
  2	'-y, x+.5, z+.25'
  3	'x, -y, z'
  4	'-x, y, z'
  5	'-y, -x+.5, z+.25'
  6	'y, x+.5, z+.25'
  7	'-x, -y, z'
  8	'x, y, z'
  9	'y+.5, -x, z+.75'
 10	'-y+.5, x, z+.75'
 11	'x+.5, -y+.5, z+.5'
 12	'-x+.5, y+.5, z+.5'
 13	'-y+.5, -x, z+.75'
 14	'y+.5, x, z+.75'
 15	'-x+.5, -y+.5, z+.5'
 16	'x+.5, y+.5, z+.5'
loop_
_atom_type_symbol
_atom_type_oxidation_number
Li1+	1
N3-	-3
Se2-	-2
loop_
_atom_site_label
_atom_site_type_symbol
_atom_site_symmetry_multiplicity
_atom_site_Wyckoff_symbol
_atom_site_fract_x
_atom_site_fract_y
_atom_site_fract_z
_atom_site_occupancy
_atom_site_attached_hydrogens
_atom_site_U_iso_or_equiv
Se1 Se2- 4 a 0.0000 0.0000 0.89813(9) 1 0 0.01318(14) 
N1 N3- 8 b 0.5000 0.2670(6) 0.0003(3) 1 0 0.0079(7) 
Li1 Li1+ 16 c 0.7644(9) 0.1876(10) 0.0773(6) 1 0 0.0209(12) 
Li2 Li1+ 8 b 0.5000 0.1513(15) 0.1908(10) 1 0 0.025(2) 
Li3 Li1+ 4 a 0.5000 0.0000 0.962(2) 1 0 0.026(3) 
Li4 Li1+ 4 a 0.5000 0.0000 0.3833(17) 1 0 0.029(4) 

loop_
_atom_site_aniso_label
_atom_site_aniso_type_symbol
_atom_site_aniso_U_11
_atom_site_aniso_U_22
_atom_site_aniso_U_33
_atom_site_aniso_U_12
_atom_site_aniso_U_13
_atom_site_aniso_U_23
Se1 Se2- 0.0093(4) 0.0193(5) 0.0109(2) 0.000 0.000 0.000
N1 N3- 0.0107(13) 0.0073(18) 0.0056(17) 0.000 0.000 0.0026(15)
Li1 Li1+ 0.021(3) 0.024(3) 0.018(3) 0.002(2) -0.002(2) 0.003(2)
Li2 Li1+ 0.013(4) 0.032(5) 0.029(4) 0.000 0.000 0.018(4)
Li3 Li1+ 0.029(8) 0.019(7) 0.030(8) 0.000 0.000 0.000
Li4 Li1+ 0.022(6) 0.048(10) 0.016(7) 0.000 0.000 0.000
#End of data_421252-ICSD


