data_172559-ICSD
#?2014 by Fachinformationszentrum Karlsruhe, and the U.S. Secretary of 
#Commerce on behalf of the United States.  All rights reserved.
_database_code_ICSD                172559
_audit_creation_date               2007/04/01
_audit_update_record               2011/02/01
_chemical_name_systematic          'Disilver Nickel Oxide'
_chemical_formula_structural       'Ag2 Ni O2'
_chemical_formula_sum              'Ag2 Ni1 O2'
_chemical_name_mineral             Delafossite
_publ_section_title
;
Studies on the electronic structure of Ag2 Ni O2, an intercalated 
delafossite containing subvalent silver
;
loop_
_citation_id
_citation_journal_abbrev
_citation_year
_citation_journal_volume
_citation_journal_issue
_citation_page_first
_citation_page_last
_citation_journal_id_ASTM
primary 'Solid State Sciences' 2006 8 7 753 763 SSSCFJ
_publ_author_name
;
Wedig, U.;Adler, P.;Nuss, J.;Modrow, H.;Jansen, M.
;
_cell_length_a                     5.0674(9)
_cell_length_b                     2.9257(6)
_cell_length_c                     8.2020(24)
_cell_angle_alpha                  90
_cell_angle_beta                   101.885(6)
_cell_angle_gamma                  90
_cell_volume                       118.99
_cell_formula_units_Z              2
_symmetry_space_group_name_H-M     'C 1 2/m 1'
_symmetry_Int_Tables_number        12
_refine_ls_R_factor_all            .024
loop_
_symmetry_equiv_pos_site_id
_symmetry_equiv_pos_as_xyz
  1	'-x, y, -z'
  2	'-x, -y, -z'
  3	'x, -y, z'
  4	'x, y, z'
  5	'-x+.5, y+.5, -z'
  6	'-x+.5, -y+.5, -z'
  7	'x+.5, -y+.5, z'
  8	'x+.5, y+.5, z'
loop_
_atom_type_symbol
_atom_type_oxidation_number
Ag1+	1
Ni2+	2
O2-	-2
loop_
_atom_site_label
_atom_site_type_symbol
_atom_site_symmetry_multiplicity
_atom_site_Wyckoff_symbol
_atom_site_fract_x
_atom_site_fract_y
_atom_site_fract_z
_atom_site_occupancy
_atom_site_attached_hydrogens
_atom_site_U_iso_or_equiv
Ag1 Ag1+ 4 i -0.2111(5) 0 0.35822(7) 1 0 .0132(2) 
Ni1 Ni2+ 2 a 0 0 0 1 0 .0091(3) 
O1 O2- 4 i 0.3779(68) 0 0.1288(6) 1 0 .0140(14) 

loop_
_atom_site_aniso_label
_atom_site_aniso_type_symbol
_atom_site_aniso_U_11
_atom_site_aniso_U_22
_atom_site_aniso_U_33
_atom_site_aniso_U_12
_atom_site_aniso_U_13
_atom_site_aniso_U_23
Ag1 Ag1+ 0.0148(14) 0.0139(12) 0.0128(3) 0 0.0068(15) 0
Ni1 Ni2+ 0.0085(23) 0.0102(23) 0.0110(6) 0 0.0074(23) 0
O1 O2- 0.0218(116) 0.0099(97) 0.0128(22) 0 0.0090(108) 0
#End of data_172559-ICSD


