data_36202-ICSD
#?2014 by Fachinformationszentrum Karlsruhe, and the U.S. Secretary of 
#Commerce on behalf of the United States.  All rights reserved.
_database_code_ICSD                36202
_audit_creation_date               1980/01/01
_audit_update_record               2006/04/01
_chemical_name_systematic          'Potassium Nitrate(III)'
_chemical_formula_structural       'K (N O2)'
_chemical_formula_sum              'K1 N1 O2'
_publ_section_title
;
The use of composite reciprocal-lattice theory to investigate the 
transition in potassium nitrite at about 40 degrees C
;
loop_
_citation_id
_citation_journal_abbrev
_citation_year
_citation_journal_volume
_citation_page_first
_citation_page_last
_citation_journal_id_ASTM
primary 'Acta Crystallographica (1,1948-23,1967)' 1966 21 303 310 ACCRA9
2 'Golden Book of Phase Transitions, Wroclaw' 2002 1 1 123 GBOPT5
_publ_author_name                  'Parry, G.S.;Schuyff, A.'
_cell_length_a                     4.464
_cell_length_b                     5.007
_cell_length_c                     7.383
_cell_angle_alpha                  90.
_cell_angle_beta                   116.73
_cell_angle_gamma                  90.
_cell_volume                       147.38
_cell_formula_units_Z              2
_symmetry_space_group_name_H-M     'C 1 m 1'
_symmetry_Int_Tables_number        8
loop_
_symmetry_equiv_pos_site_id
_symmetry_equiv_pos_as_xyz
  1	'x, -y, z'
  2	'x, y, z'
  3	'x+.5, -y+.5, z'
  4	'x+.5, y+.5, z'
loop_
_atom_type_symbol
_atom_type_oxidation_number
K1+	1
N3+	3
O2-	-2
loop_
_atom_site_label
_atom_site_type_symbol
_atom_site_symmetry_multiplicity
_atom_site_Wyckoff_symbol
_atom_site_fract_x
_atom_site_fract_y
_atom_site_fract_z
_atom_site_occupancy
_atom_site_attached_hydrogens
K1 K1+ 2 a 0 0 0 1. 0 
N1 N3+ 2 a 0.5 0 0.5 1. 0 
O1 O2- 4 b 0.416 0.181 0.403 1. 0 

#End of data_36202-ICSD


