data_85456-ICSD
#?2014 by Fachinformationszentrum Karlsruhe, and the U.S. Secretary of 
#Commerce on behalf of the United States.  All rights reserved.
_database_code_ICSD                85456
_audit_creation_date               1999/06/02
_audit_update_record               2005/10/01
_chemical_name_systematic          'Cesium Zinc Phosphate(V) - Ii, Ht'
_chemical_formula_structural       'Cs Zn (P O4)'
_chemical_formula_sum              'Cs1 O4 P1 Zn1'
_publ_section_title
;
Crystal structures of the three forms of Cs Zn P O4
;
loop_
_citation_id
_citation_journal_abbrev
_citation_year
_citation_journal_volume
_citation_page_first
_citation_page_last
_citation_journal_id_ASTM
primary Ferroelectrics 1986 69 283 292 FEROA8
2 'Phase Transition' 1992 38 127 220 PHTRDP
_publ_author_name
;
Blum, D.;Durif, A.;Averbuch-Pouchot, M.T.
;
_cell_length_a                     9.236(6)
_cell_length_b                     5.462(3)
_cell_length_c                     9.342(7)
_cell_angle_alpha                  90.
_cell_angle_beta                   90.
_cell_angle_gamma                  90.
_cell_volume                       471.28
_cell_formula_units_Z              4
_symmetry_space_group_name_H-M     'P n 21 a'
_symmetry_Int_Tables_number        33
_refine_ls_R_factor_all            .041
loop_
_symmetry_equiv_pos_site_id
_symmetry_equiv_pos_as_xyz
  1	'x+.5, y, -z+.5'
  2	'-x+.5, y+.5, z+.5'
  3	'-x, y+.5, -z'
  4	'x, y, z'
loop_
_atom_type_symbol
_atom_type_oxidation_number
Cs1+	1
O2-	-2
P5+	5
Zn2+	2
loop_
_atom_site_label
_atom_site_type_symbol
_atom_site_symmetry_multiplicity
_atom_site_Wyckoff_symbol
_atom_site_fract_x
_atom_site_fract_y
_atom_site_fract_z
_atom_site_occupancy
_atom_site_attached_hydrogens
Cs1 Cs1+ 4 a 0.00250(9) 0.2529(7) 0.19869(9) 1. 0 
Zn1 Zn2+ 4 a 0.1714(1) 0.25 0.5838(1) 1. 0 
P1 P5+ 4 a 0.8065(2) 0.250(1) 0.5885(3) 1. 0 
O1 O2- 4 a -.0367(9) 0.265(5) 0.601(2) 1. 0 
O2 O2- 4 a 0.7378(15) 0.176(2) 0.728(1) 1. 0 
O3 O2- 4 a 0.2513(11) 0.007(2) 0.455(1) 1. 0 
O4 O2- 4 a 0.7598(14) 0.071(2) 0.475(1) 1. 0 

#End of data_85456-ICSD


