data_247817-ICSD
#?2014 by Fachinformationszentrum Karlsruhe, and the U.S. Secretary of 
#Commerce on behalf of the United States.  All rights reserved.
_database_code_ICSD                247817
_audit_creation_date               2013/08/01
_chemical_name_systematic
;
Disodium Strontium Magnesium Bis(orthophosphate)
;
_chemical_formula_structural       'Na2 Sr Mg (P O4)2'
_chemical_formula_sum              'Mg1 Na2 O8 P2 Sr1'
_publ_section_title
;
Correlation between structure and photoluminescence of the europium 
doped glaserite-type phosphate Na2 Sr Mg(P O4)2
;
loop_
_citation_id
_citation_journal_abbrev
_citation_year
_citation_journal_volume
_citation_journal_issue
_citation_page_first
_citation_page_last
_citation_journal_id_ASTM
primary 'Materials Chemistry and Physics' 2012 137 1 26 33 MCHPDR
_publ_author_name
;
Boukhris, A.;Hidouri, M.;Glorieux, B.;Amara, M.B.
;
_cell_length_a                     9.158(1)
_cell_length_b                     5.267(1)
_cell_length_c                     13.498(1)
_cell_angle_alpha                  90
_cell_angle_beta                   90.01(1)
_cell_angle_gamma                  90
_cell_volume                       651.08
_cell_formula_units_Z              4
_symmetry_space_group_name_H-M     'P 1 21/a 1'
_symmetry_Int_Tables_number        14
_refine_ls_R_factor_all            .046
loop_
_symmetry_equiv_pos_site_id
_symmetry_equiv_pos_as_xyz
  1	'x+.5, -y+.5, z'
  2	'-x, -y, -z'
  3	'-x+.5, y+.5, -z'
  4	'x, y, z'
loop_
_atom_type_symbol
_atom_type_oxidation_number
Mg2+	2
Na1+	1
O2-	-2
P5+	5
Sr2+	2
loop_
_atom_site_label
_atom_site_type_symbol
_atom_site_symmetry_multiplicity
_atom_site_Wyckoff_symbol
_atom_site_fract_x
_atom_site_fract_y
_atom_site_fract_z
_atom_site_occupancy
_atom_site_attached_hydrogens
_atom_site_B_iso_or_equiv
Na1 Na1+ 4 e 0.179(1) 0.510(2) 0.911(1) 1. 0 1.018(5) 
Na2 Na1+ 4 e 0.158(1) 0.515(2) 0.411(1) 1. 0 1.018(5) 
Sr1 Sr2+ 4 e 0.028(1) 0.029(1) 0.750(1) 1. 0 0.841(2) 
Mg1 Mg2+ 2 d 0 0 0.5 1. 0 0.787(6) 
Mg2 Mg2+ 2 a 0 0 0 1. 0 0.787(6) 
P1 P5+ 4 e 0.176(1) 0.516(2) 0.631(1) 1. 0 0.876(3) 
O1 O2- 4 e 0.148(1) 0.518(2) 0.741(1) 1. 0 0.656(9) 
O2 O2- 4 e 0.340(2) 0.503(2) 0.609(1) 1. 0 0.15(2) 
O3 O2- 4 e 0.100(1) 0.284(2) 0.577(1) 1. 0 0.37(2) 
O4 O2- 4 e 0.113(1) 0.770(2) 0.591(1) 1. 0 0.42(2) 
P2 P5+ 4 e 0.156(1) 0.491(2) 0.134(1) 1. 0 0.876(3) 
O5 O2- 4 e 0.181(1) 0.534(2) 0.243(1) 1. 0 0.656(9) 
O6 O2- 4 e 0.307(1) 0.501(2) 0.078(1) 1. 0 0.15(2) 
O7 O2- 4 e 0.086(1) 0.241(2) 0.107(1) 1. 0 0.37(2) 
O8 O2- 4 e 0.057(1) 0.709(3) 0.096(1) 1. 0 0.42(2) 

#End of data_247817-ICSD


