data_61400-ICSD
#?2014 by Fachinformationszentrum Karlsruhe, and the U.S. Secretary of 
#Commerce on behalf of the United States.  All rights reserved.
_database_code_ICSD                61400
_audit_creation_date               1988/02/22
_chemical_name_systematic
;
Hexasodiumhexaselenidogermanate(III)
;
_chemical_formula_structural       'Na6 Ge2 Se6'
_chemical_formula_sum              'Ge2 Na6 Se6'
_publ_section_title
;
Oligoselenidogermanate(III): Zur Kenntnis von Na6 Ge2 Se6 und Na8 Ge4 
Se10
;
loop_
_citation_id
_citation_journal_abbrev
_citation_year
_citation_journal_volume
_citation_page_first
_citation_page_last
_citation_journal_id_ASTM
primary 'Materials Research Bulletin' 1985 20 1339 1346 MRBUAC
_publ_author_name
;
Eisenmann, B.;Hansa, J.;Schaefer, H.
;
_cell_length_a                     8.367(5)
_cell_length_b                     11.924(8)
_cell_length_c                     8.158(5)
_cell_angle_alpha                  90.
_cell_angle_beta                   118.63(15)
_cell_angle_gamma                  90.
_cell_volume                       714.39
_cell_formula_units_Z              2
_symmetry_space_group_name_H-M     'P 1 21/c 1'
_symmetry_Int_Tables_number        14
_refine_ls_R_factor_all            .078
loop_
_symmetry_equiv_pos_site_id
_symmetry_equiv_pos_as_xyz
  1	'x, -y+.5, z+.5'
  2	'-x, -y, -z'
  3	'-x, y+.5, -z+.5'
  4	'x, y, z'
loop_
_atom_type_symbol
_atom_type_oxidation_number
Ge3+	3
Na1+	1
Se2-	-2
loop_
_atom_site_label
_atom_site_type_symbol
_atom_site_symmetry_multiplicity
_atom_site_Wyckoff_symbol
_atom_site_fract_x
_atom_site_fract_y
_atom_site_fract_z
_atom_site_occupancy
_atom_site_attached_hydrogens
Se1 Se2- 4 e 0.2472(3) 0.8075(2) 0.3863(3) 1. 0 
Se2 Se2- 4 e 0.3354(3) 0.0297(2) 0.0936(3) 1. 0 
Se3 Se2- 4 e 0.1696(3) 0.1239(2) 0.4366(3) 1. 0 
Ge1 Ge3+ 4 e 0.3430(3) 0.9914(2) 0.3776(3) 1. 0 
Na1 Na1+ 4 e 0.9984(13) 0.3375(9) 0.5154(13) 1. 0 
Na2 Na1+ 4 e 0.2550(14) 0.9313(9) 0.7108(13) 1. 0 
Na3 Na1+ 4 e 0.4552(18) 0.2170(11) 0.7838(19) 1. 0 

loop_
_atom_site_aniso_label
_atom_site_aniso_type_symbol
_atom_site_aniso_U_11
_atom_site_aniso_U_22
_atom_site_aniso_U_33
_atom_site_aniso_U_12
_atom_site_aniso_U_13
_atom_site_aniso_U_23
Se1 Se2- 0.0298(12) 0.0153(10) 0.0269(11) -.0061(9) 0.0132(10) -.0005(9)
Se2 Se2- 0.0380(13) 0.0290(12) 0.0207(11) -.0018(10) 0.0178(10) 0.0025(9)
Se3 Se2- 0.0223(11) 0.0268(12) 0.0297(12) 0.0073(9) 0.0102(9) -.0045(9)
Ge1 Ge3+ 0.0174(11) 0.0157(10) 0.0177(10) 0.0006(8) 0.0085(9) 0.0007(8)
Na1 Na1+ 0.0306(48) 0.0472(59) 0.0241(45) -.0114(44) 0.0048(38) -.0042(42)
Na2 Na1+ 0.0441(56) 0.0432(57) 0.0333(50) -.0105(47) 0.0222(46) -.0016(44)
Na3 Na1+ 0.0589(82) 0.0495(75) 0.0650(85) -.0047(62) -.0243(67) -.0212(65)
#End of data_61400-ICSD


