data_249785-ICSD
#?2014 by Fachinformationszentrum Karlsruhe, and the U.S. Secretary of 
#Commerce on behalf of the United States.  All rights reserved.
_database_code_ICSD                249785
_audit_creation_date               2009/08/01
_chemical_name_systematic
;
Heptastrontium Germanium Hexanitride
;
_chemical_formula_structural       'Ca7 (Ge N4) N2'
_chemical_formula_sum              'Ca7 Ge1 N6'
_publ_section_title
;
Nitridogermanate nitrides Sr7 [Ge N4] N2 and Ca7 [Ge N4] N2: 
Synthesis employing sodium melts, crystal structure, and Density-
Functional-Theory calculations
;
loop_
_citation_id
_citation_journal_abbrev
_citation_year
_citation_journal_volume
_citation_journal_issue
_citation_page_first
_citation_page_last
_citation_journal_id_ASTM
primary 'Inorganic Chemistry' 2008 47 24 12018 12023 INOCAJ
_publ_author_name
;
Junggeburth, S.C.;Oeckler, O.;Johrendt, D.;Schnick, W.
;
_cell_length_a                     10.826(2)
_cell_length_b                     6.1940(12)
_cell_length_c                     13.121(3)
_cell_angle_alpha                  90.00
_cell_angle_beta                   90.00
_cell_angle_gamma                  90.00
_cell_volume                       879.84
_cell_formula_units_Z              4
_symmetry_space_group_name_H-M     'P b c n'
_symmetry_Int_Tables_number        60
_refine_ls_R_factor_all            .0135
loop_
_symmetry_equiv_pos_site_id
_symmetry_equiv_pos_as_xyz
  1	'x, -y, z+.5'
  2	'-x+.5, y+.5, z'
  3	'x+.5, y+.5, -z+.5'
  4	'-x, -y, -z'
  5	'-x, y, -z+.5'
  6	'x+.5, -y+.5, -z'
  7	'-x+.5, -y+.5, z+.5'
  8	'x, y, z'
loop_
_atom_type_symbol
_atom_type_oxidation_number
Ca2+	2
Ge4+	4
N3-	-3
loop_
_atom_site_label
_atom_site_type_symbol
_atom_site_symmetry_multiplicity
_atom_site_Wyckoff_symbol
_atom_site_fract_x
_atom_site_fract_y
_atom_site_fract_z
_atom_site_occupancy
_atom_site_attached_hydrogens
_atom_site_U_iso_or_equiv
Ge1 Ge4+ 4 c 0.0000 0.06689(4) 0.2500 1 0 0.00420(8) 
Ca1 Ca2+ 8 d 0.03899(3) 0.26844(6) 0.47826(3) 1 0 0.00617(9) 
Ca2 Ca2+ 8 d 0.22942(3) 0.14320(6) 0.12672(3) 1 0 0.00634(9) 
Ca3 Ca2+ 8 d 0.29670(3) 0.39101(6) 0.38278(3) 1 0 0.00584(9) 
Ca4 Ca2+ 4 c 0.0000 0.55840(8) 0.2500 1 0 0.00798(12) 
N1 N3- 8 d 0.13278(13) 0.2453(2) 0.29304(11) 1 0 0.0074(3) 
N2 N3- 8 d 0.16664(14) 0.4063(2) 0.00553(11) 1 0 0.0072(3) 
N3 N3- 8 d 0.45153(14) 0.3896(2) 0.14101(12) 1 0 0.0093(3) 

loop_
_atom_site_aniso_label
_atom_site_aniso_type_symbol
_atom_site_aniso_U_11
_atom_site_aniso_U_22
_atom_site_aniso_U_33
_atom_site_aniso_U_12
_atom_site_aniso_U_13
_atom_site_aniso_U_23
Ge1 Ge4+ 0.00431(13) 0.00434(14) 0.00396(14) 0.000 -0.00029(9) 0.000
Ca1 Ca2+ 0.00643(17) 0.00608(18) 0.00599(17) 0.00023(13) 0.00063(13) 
0.00049(13)
Ca2 Ca2+ 0.00716(17) 0.00649(18) 0.00537(17) 0.00090(13) 0.00055(13) 
-0.00014(13)
Ca3 Ca2+ 0.00572(17) 0.00579(18) 0.00599(17) -0.00071(13) -0.00039(13) 
0.00007(13)
Ca4 Ca2+ 0.0071(2) 0.0054(2) 0.0115(3) 0.000 0.00049(19) 0.000
N1 N3- 0.0071(7) 0.0072(7) 0.0081(7) -0.0003(6) -0.0002(6) -0.0012(6)
N2 N3- 0.0068(7) 0.0084(7) 0.0063(7) 0.0003(6) 0.0000(6) 0.0004(6)
N3 N3- 0.0096(7) 0.0092(8) 0.0090(7) 0.0012(6) -0.0015(6) -0.0028(6)
#End of data_249785-ICSD


