data_34672-ICSD
#?2014 by Fachinformationszentrum Karlsruhe, and the U.S. Secretary of 
#Commerce on behalf of the United States.  All rights reserved.
_database_code_ICSD                34672
_audit_creation_date               1986/10/02
_audit_update_record               2003/04/01
_chemical_name_systematic
;
Trilithium Hexafluoroaluminate - Alpha
;
_chemical_formula_structural       'Li3 (Al F6)'
_chemical_formula_sum              'Al1 F6 Li3'
_publ_section_title
;
The crystal structure of alpha-Li3 Al F6
;
loop_
_citation_id
_citation_journal_abbrev
_citation_year
_citation_journal_volume
_citation_page_first
_citation_page_last
_citation_journal_id_ASTM
primary 'Acta Crystallographica B (24,1968-38,1982)' 1968 24 225 230 ACBCAR
2 'Phase Transition' 1992 38 127 220 PHTRDP
_publ_author_name
;
Burns, J.H.;Tennissen, A.C.;Brunton, G.D.
;
_cell_length_a                     9.51
_cell_length_b                     8.2295
_cell_length_c                     4.8762
_cell_angle_alpha                  90.
_cell_angle_beta                   90.
_cell_angle_gamma                  90.
_cell_volume                       381.62
_cell_formula_units_Z              4
_symmetry_space_group_name_H-M     'P n a 21'
_symmetry_Int_Tables_number        33
_refine_ls_R_factor_all            .017
loop_
_symmetry_equiv_pos_site_id
_symmetry_equiv_pos_as_xyz
  1	'x+.5, -y+.5, z'
  2	'-x+.5, y+.5, z+.5'
  3	'-x, -y, z+.5'
  4	'x, y, z'
loop_
_atom_type_symbol
_atom_type_oxidation_number
Al3+	3
F1-	-1
Li1+	1
loop_
_atom_site_label
_atom_site_type_symbol
_atom_site_symmetry_multiplicity
_atom_site_Wyckoff_symbol
_atom_site_fract_x
_atom_site_fract_y
_atom_site_fract_z
_atom_site_occupancy
_atom_site_attached_hydrogens
Al1 Al3+ 4 a 0.12779(4) 0.24031(3) 0 1. 0 
F1 F1- 4 a 0.22373(7) 0.06821(8) 0.14055(26) 1. 0 
F2 F1- 4 a 0.02326(8) 0.24326(7) 0.30699(23) 1. 0 
F3 F1- 4 a 0.23609(7) 0.23421(8) 0.69815(22) 1. 0 
F4 F1- 4 a 0.02888(7) 0.40216(8) 0.85078(24) 1. 0 
F5 F1- 4 a 0.24358(7) 0.38174(8) 0.17257(25) 1. 0 
F6 F1- 4 a 0.01361(6) 0.09168(8) 0.83164(24) 1. 0 
Li1 Li1+ 4 a 0.37529(21) 0.34902(28) 0.50727(79) 1. 0 
Li2 Li1+ 4 a 0.10546(22) 0.45729(27) 0.49687(93) 1. 0 
Li3 Li1+ 4 a 0.35387(22) 0.54574(26) 0.00235(92) 1. 0 

#End of data_34672-ICSD


