data_280211-ICSD
#?2014 by Fachinformationszentrum Karlsruhe, and the U.S. Secretary of 
#Commerce on behalf of the United States.  All rights reserved.
_database_code_ICSD                280211
_audit_creation_date               2002/04/01
_chemical_name_systematic
;
Trirubidium Tecto-dialumotriphosphate(V)
;
_chemical_formula_structural       'Rb3 (Al2 P3 O12)'
_chemical_formula_sum              'Al2 O12 P3 Rb3'
_publ_section_title
;
Solid-state synthesis and characterization of novel 
aluminophosphates, A3 Al2 P3 O12 (A= Na, K, Rb, Tl): Influence of 
A+ions on the coordination of aluminium
;
loop_
_citation_id
_citation_journal_abbrev
_citation_year
_citation_journal_volume
_citation_page_first
_citation_page_last
_citation_journal_id_ASTM
primary 'Inorganic Chemistry' 2000 39 2391 2396 INOCAJ
_publ_author_name                  'Nandini Devi, R.;Vidyasagar, K.'
_cell_length_a                     17.1640(20)
_cell_length_b                     8.6270(6)
_cell_length_c                     8.8140(14)
_cell_angle_alpha                  90.
_cell_angle_beta                   90.
_cell_angle_gamma                  90.
_cell_volume                       1305.12
_cell_formula_units_Z              4
_symmetry_space_group_name_H-M     'C m c 21'
_symmetry_Int_Tables_number        36
_refine_ls_R_factor_all            .0314
loop_
_symmetry_equiv_pos_site_id
_symmetry_equiv_pos_as_xyz
  1	'x, -y, z+.5'
  2	'-x, -y, z+.5'
  3	'-x, y, z'
  4	'x, y, z'
  5	'x+.5, -y+.5, z+.5'
  6	'-x+.5, -y+.5, z+.5'
  7	'-x+.5, y+.5, z'
  8	'x+.5, y+.5, z'
loop_
_atom_type_symbol
_atom_type_oxidation_number
Al3+	3
O2-	-2
P5+	5
Rb1+	1
loop_
_atom_site_label
_atom_site_type_symbol
_atom_site_symmetry_multiplicity
_atom_site_Wyckoff_symbol
_atom_site_fract_x
_atom_site_fract_y
_atom_site_fract_z
_atom_site_occupancy
_atom_site_attached_hydrogens
Rb1 Rb1+ 4 a 0.5 0.1447(2) 0.3190(2) 1. 0 
Rb2 Rb1+ 8 b 0.38494(4) 0.45360(8) 0.02644(13) 1. 0 
P1 P5+ 4 a 0 0.2349(3) 0.2473(3) 1. 0 
P2 P5+ 8 b 0.29466(11) 0.1707(2) 0.3405(2) 1. 0 
Al1 Al3+ 8 b 0.16734(12) 0.3473(2) 0.1809(3) 1. 0 
O1 O2- 4 a 0 0.3035(10) 0.4025(10) 1. 0 
O2 O2- 4 a 0 0.0601(8) 0.2460(11) 1. 0 
O3 O2- 8 b 0.0706(3) 0.2969(6) 0.1502(7) 1. 0 
O4 O2- 8 b 0.3478(3) 0.3038(6) 0.3123(7) 1. 0 
O5 O2- 8 b 0.3281(3) 0.0230(7) 0.2706(10) 1. 0 
O6 O2- 8 b 0.2159(3) 0.3633(7) 0.0105(8) 1. 0 
O7 O2- 8 b 0.2111(3) 0.1949(6) 0.2796(7) 1. 0 

loop_
_atom_site_aniso_label
_atom_site_aniso_type_symbol
_atom_site_aniso_U_11
_atom_site_aniso_U_22
_atom_site_aniso_U_33
_atom_site_aniso_U_12
_atom_site_aniso_U_13
_atom_site_aniso_U_23
Rb1 Rb1+ 0.0154(5) 0.0387(7) 0.0755(11) 0 0 -.0090(8)
Rb2 Rb1+ 0.0194(4) 0.0244(4) 0.0215(4) -.0027(3) -.0023(3) -.0007(4)
P1 P5+ 0.0074(11) 0.0173(13) 0.0163(15) 0 0 0.0008(12)
P2 P5+ 0.0113(8) 0.0133(9) 0.0142(10) -.0006(7) -.0001(8) -.0006(8)
Al1 Al3+ 0.0107(10) 0.015(1) 0.0146(11) -.0002(8) -.0002(9) -.0016(9)
O1 O2- 0.039(5) 0.033(5) 0.020(5) 0 0 -.009(4)
O2 O2- 0.014(4) 0.020(3) 0.031(5) 0 0 0.001(4)
O3 O2- 0.010(3) 0.031(3) 0.022(3) -.001(2) 0.001(2) 0.004(2)
O4 O2- 0.019(3) 0.021(2) 0.033(4) -.003(2) 0.003(3) 0.005(3)
O5 O2- 0.025(3) 0.024(4) 0.056(4) 0.007(3) -.002(4) -.018(3)
O6 O2- 0.018(3) 0.066(4) 0.011(3) -.014(3) 0.000(3) -.002(3)
O7 O2- 0.016(3) 0.025(3) 0.028(3) 0.004(2) -.009(3) 0.006(2)
#End of data_280211-ICSD


