data_402266-ICSD
#?2014 by Fachinformationszentrum Karlsruhe, and the U.S. Secretary of 
#Commerce on behalf of the United States.  All rights reserved.
_database_code_ICSD                402266
_audit_creation_date               1997/11/10
_chemical_name_systematic
;
Dialuminium Tris(sulfate(VI)) Pentahydrate
;
_chemical_formula_structural       'Al2 (S O4)3 (H2 O)5'
_chemical_formula_sum              'H10 Al2 O17 S3'
_publ_section_title
;
Crystal structure of dialuminium tris(sulfate) pentahydrate
;
loop_
_citation_id
_citation_journal_abbrev
_citation_year
_citation_journal_volume
_citation_page_first
_citation_page_last
_citation_journal_id_ASTM
primary 'Zeitschrift fuer Kristallographie (1979-2010)' 1996 211 471 472 ZEKRDZ
_publ_author_name
;
Fischer, T.;Eisenmann, B.;Kniep, R.
;
_cell_length_a                     5.4843(2)
_cell_length_b                     10.7958(3)
_cell_length_c                     20.8427(4)
_cell_angle_alpha                  90.
_cell_angle_beta                   96.44(8)
_cell_angle_gamma                  90.
_cell_volume                       1226.26
_cell_formula_units_Z              4
_symmetry_space_group_name_H-M     'P 1 21/n 1'
_symmetry_Int_Tables_number        14
_refine_ls_R_factor_all            .0505
loop_
_symmetry_equiv_pos_site_id
_symmetry_equiv_pos_as_xyz
  1	'-x+.5, y+.5, -z+.5'
  2	'-x, -y, -z'
  3	'x+.5, -y+.5, z+.5'
  4	'x, y, z'
loop_
_atom_type_symbol
_atom_type_oxidation_number
Al3+	3
H1+	1
O2-	-2
S6+	6
loop_
_atom_site_label
_atom_site_type_symbol
_atom_site_symmetry_multiplicity
_atom_site_Wyckoff_symbol
_atom_site_fract_x
_atom_site_fract_y
_atom_site_fract_z
_atom_site_occupancy
_atom_site_attached_hydrogens
_atom_site_U_iso_or_equiv
Al1 Al3+ 4 e -.08807(13) -.23844(6) 0.81371(3) 1. 0 0 
Al2 Al3+ 2 d -.5 0 0 1. 0 0 
Al3 Al3+ 2 b -.5 -.5 0 1. 0 0 
S1 S6+ 4 e 0.20765(10) 0.00769(5) 0.85982(3) 1. 0 0 
S2 S6+ 4 e -.2704(1) -.24668(4) 0.95272(2) 1. 0 0 
S3 S6+ 4 e 0.15867(10) -.49445(5) 0.86655(3) 1. 0 0 
O1 O2- 4 e 0.1567(3) -.1218(2) 0.84081(9) 1. 0 0 
O2 O2- 4 e 0.0031(3) 0.0893(2) 0.83931(8) 1. 0 0 
O3 O2- 4 e -.4559(3) -.1677(2) 0.97765(8) 1. 0 0 
O4 O2- 4 e 0.4329(3) 0.0454(2) 0.83241(8) 1. 0 0 
O5 O2- 4 e 0.2546(3) 0.0139(2) 0.93100(8) 1. 0 0 
O6 O2- 4 e -.2558(3) -.2089(2) 0.88512(8) 1. 0 0 
O7 O2- 4 e -.3600(3) -.37549(15) 0.95104(8) 1. 0 0 
O8 O2- 4 e -.0346(3) -.2354(2) 0.99114(9) 1. 0 0 
O9 O2- 4 e 0.1145(3) -.3605(2) 0.85484(9) 1. 0 0 
O10 O2- 4 e 0.3541(4) -.5343(2) 0.82908(9) 1. 0 0 
O11 O2- 4 e -.0669(3) -.5658(2) 0.85069(8) 1. 0 0 
O12 O2- 4 e 0.2310(3) -.5094(2) 0.93667(8) 1. 0 0 
O13 O2- 4 e -.3214(3) -.3610(2) 0.78263(9) 1. 0 0 
O14 O2- 4 e -.7463(3) -.0541(2) 0.04876(8) 1. 0 0 
O15 O2- 4 e -.6727(3) -.3828(2) 0.04476(8) 1. 0 0 
O16 O2- 4 e -.2970(3) -.1166(2) 0.77266(8) 1. 0 0 
O17 O2- 4 e 0.0507(4) -.2500(2) 0.73455(9) 1. 0 0 
H1 H1+ 4 e -.8374(68) -.1021(36) 0.0316(18) 1. 0 0.040(4) 
H2 H1+ 4 e -.3778(73) -.4111(37) 0.8021(18) 1. 0 0.040(4) 
H3 H1+ 4 e -.7766(67) -.3463(38) 0.0232(18) 1. 0 0.040(4) 
H4 H1+ 4 e 0.0881(65) -.3140(36) 0.7037(18) 1. 0 0.040(4) 
H5 H1+ 4 e -.3406(71) -.1100(37) 0.7370(19) 1. 0 0.040(4) 
H6 H1+ 4 e -.4019(70) -.3766(37) 0.7466(19) 1. 0 0.040(4) 
H7 H1+ 4 e -.3804(71) -.0662(38) 0.7910(18) 1. 0 0.040(4) 
H8 H1+ 4 e -.7320(68) -.4048(35) 0.0781(18) 1. 0 0.040(4) 
H9 H1+ 4 e -.7262(68) -.0626(35) 0.0897(18) 1. 0 0.040(4) 
H10 H1+ 4 e 0.1062(67) -.1915(37) 0.7125(18) 1. 0 0.040(4) 

loop_
_atom_site_aniso_label
_atom_site_aniso_type_symbol
_atom_site_aniso_U_11
_atom_site_aniso_U_22
_atom_site_aniso_U_33
_atom_site_aniso_U_12
_atom_site_aniso_U_13
_atom_site_aniso_U_23
Al1 Al3+ 0.0181(3) 0.0119(3) 0.0117(3) 0.0003(2) 0.0016(3) 0.0003(2)
Al2 Al3+ 0.0141(4) 0.0124(4) 0.0106(4) 0.0012(3) 0.0007(3) -.0010(3)
Al3 Al3+ 0.0154(4) 0.0106(4) 0.0109(4) 0.0002(3) -.0005(3) 0.0009(3)
S1 S6+ 0.0152(3) 0.0122(2) 0.0112(2) 0.0001(2) 0.0004(2) 0.0003(2)
S2 S6+ 0.0151(3) 0.0098(2) 0.0105(2) 0.0000(2) 0.0014(2) 0.0000(2)
S3 S6+ 0.0159(3) 0.0122(2) 0.0109(2) 0.0004(2) 0.0004(2) -.0001(2)
O1 O2- 0.0219(9) 0.0147(8) 0.0241(8) -.0028(7) -.0002(7) -.0039(6)
O2 O2- 0.0233(9) 0.0223(8) 0.0165(7) 0.0076(7) -.0028(7) -.0002(6)
O3 O2- 0.0187(8) 0.0136(7) 0.0199(8) 0.0012(6) 0.0047(6) -.0030(6)
O4 O2- 0.0230(9) 0.0173(8) 0.0203(8) -.0020(7) 0.0072(7) 0.0030(7)
O5 O2- 0.0185(8) 0.0256(9) 0.0111(7) 0.0018(7) -.0003(6) -.0012(6)
O6 O2- 0.0276(9) 0.0148(8) 0.0132(7) 0.0027(7) 0.0064(7) 0.0025(6)
O7 O2- 0.0251(9) 0.0099(7) 0.0168(7) -.0024(6) 0.0043(7) -.0002(6)
O8 O2- 0.0189(8) 0.0179(8) 0.0244(9) 0.0010(7) -.0053(7) -.0019(7)
O9 O2- 0.0230(9) 0.0119(7) 0.0267(9) 0.0015(7) -.0038(7) 0.0022(7)
O10 O2- 0.0264(9) 0.0214(9) 0.0250(8) 0.0020(8) 0.0112(7) -.0029(7)
O11 O2- 0.0225(8) 0.0219(8) 0.0153(7) -.0077(7) -.0027(6) 0.0001(6)
O12 O2- 0.0193(8) 0.0245(9) 0.0121(7) -.0014(7) -.0031(6) 0.0024(6)
O13 O2- 0.0248(9) 0.0198(8) 0.0159(7) -.0067(7) -.0021(7) 0.0012(7)
O14 O2- 0.0178(8) 0.0210(8) 0.0144(7) -.0033(7) 0.0029(6) -.0016(6)
O15 O2- 0.0222(8) 0.0148(8) 0.0151(7) 0.0044(7) 0.0039(6) 0.0011(6)
O16 O2- 0.0266(9) 0.0193(8) 0.0121(7) 0.0074(7) 0.0008(7) 0.0016(6)
O17 O2- 0.0367(11) 0.0154(8) 0.0181(8) -.0012(7) 0.0127(8) -.0018(6)
#End of data_402266-ICSD


