data_167130-ICSD
#?2014 by Fachinformationszentrum Karlsruhe, and the U.S. Secretary of 
#Commerce on behalf of the United States.  All rights reserved.
_database_code_ICSD                167130
_audit_creation_date               2010/08/01
_audit_update_record               2013/02/01
_chemical_name_systematic          'Lithium Niobate'
_chemical_formula_structural       'Li (Nb O3)'
_chemical_formula_sum              'Li1 Nb1 O3'
_publ_section_title
;
Stoichiometry and doping effects on cation ordering in Li Nb O3 
crystals
;
loop_
_citation_id
_citation_journal_abbrev
_citation_year
_citation_journal_volume
_citation_journal_issue
_citation_page_first
_citation_page_last
_citation_journal_id_ASTM
primary 'Neorganicheskie Materialy' 2010 46 2 247 252 NMATEI
2 'Inorganic Materials' 2010 46 2 206 211 INOMAF
_publ_author_name
;
Fedorova, E.P.;Aleshina, L.A.;Sidorov, N.V.;Chufyrev, P.G.;Yanichev, 
A.A.;Palatnikov, M.N.;Voskresenskii, V.M.;Kalinnikov, V.T.
;
_cell_length_a                     5.142(3)
_cell_length_b                     5.142(3)
_cell_length_c                     13.843(2)
_cell_angle_alpha                  90.
_cell_angle_beta                   90.
_cell_angle_gamma                  120.
_cell_volume                       316.97
_cell_formula_units_Z              6
_symmetry_space_group_name_H-M     'R 3 c H'
_symmetry_Int_Tables_number        161
_refine_ls_R_factor_all            .0684
loop_
_symmetry_equiv_pos_site_id
_symmetry_equiv_pos_as_xyz
  1	'-x+y, y, z+.5'
  2	'x, x-y, z+.5'
  3	'-y, -x, z+.5'
  4	'-x+y, -x, z'
  5	'-y, x-y, z'
  6	'x, y, z'
  7	'-x+y+.6666, y+.3333, z+.8333'
  8	'-x+y+.3333, y+.6666, z+.1666'
  9	'x+.6666, x-y+.3333, z+.8333'
 10	'x+.3333, x-y+.6666, z+.1666'
 11	'-y+.6666, -x+.3333, z+.8333'
 12	'-y+.3333, -x+.6666, z+.1666'
 13	'-x+y+.6666, -x+.3333, z+.3333'
 14	'-x+y+.3333, -x+.6666, z+.6666'
 15	'-y+.6666, x-y+.3333, z+.3333'
 16	'-y+.3333, x-y+.6666, z+.6666'
 17	'x+.6666, y+.3333, z+.3333'
 18	'x+.3333, y+.6666, z+.6666'
loop_
_atom_type_symbol
_atom_type_oxidation_number
Li1+	1
Nb5+	5
O2-	-2
loop_
_atom_site_label
_atom_site_type_symbol
_atom_site_symmetry_multiplicity
_atom_site_Wyckoff_symbol
_atom_site_fract_x
_atom_site_fract_y
_atom_site_fract_z
_atom_site_occupancy
_atom_site_attached_hydrogens
Nb1 Nb5+ 6 a 0 0 0 1. 0 
O1 O2- 18 b 0.057(6) 0.353(5) 0.068(1) 1. 0 
Li1 Li1+ 6 a 0 0 0.273(4) 1. 0 

loop_
_atom_site_aniso_label
_atom_site_aniso_type_symbol
_atom_site_aniso_U_11
_atom_site_aniso_U_22
_atom_site_aniso_U_33
_atom_site_aniso_U_12
_atom_site_aniso_U_13
_atom_site_aniso_U_23
Nb1 Nb5+ 0.026(5) 0.026(5) 0.002(5) 0.013(3) 0. 0.
O1 O2- 0.052(9) 0.19(1) 0.05(4) -0.016(2) 0.048(7) -0.025(6)
Li1 Li1+ 0.079(2) 0.079(2) 0.010(8) 0.039(1) 0. 0.
#End of data_167130-ICSD


