data_658801-ICSD
#?2014 by Fachinformationszentrum Karlsruhe, and the U.S. Secretary of 
#Commerce on behalf of the United States.  All rights reserved.
_database_code_ICSD                658801
_audit_creation_date               2008/07/07
_audit_update_record               2013/02/01
_chemical_name_systematic
;
Tetrabarium Lithium Ditungsten Nitride
;
_chemical_formula_structural       'Ba4 Li W2 N7'
_chemical_formula_sum              'Ba4 Li1 N7 W2'
_publ_section_title
;
Li Ba4 [Mo2 N7] und Li Ba4 [W2 N7]: Neue 
Nitridomolybdate/wolframate(VI) mit dimeren Tetraeder-Anionen
;
loop_
_citation_id
_citation_journal_abbrev
_citation_year
_citation_journal_volume
_citation_page_first
_citation_page_last
_citation_journal_id_ASTM
primary
;
Zeitschrift fuer Naturforschung, Teil B. Anorganische Chemie, 
Organische Chemie (2,1947-32,1977)
;
 1994 49 5 8 ZENBAX
_publ_author_name                  'Hohn, P.;Kniep, R.;Maier, J.'
_cell_length_a                     10.424(2)
_cell_length_b                     6.444(1)
_cell_length_c                     17.266(1)
_cell_angle_alpha                  90.0
_cell_angle_beta                   117.36(1)
_cell_angle_gamma                  90.0
_cell_volume                       1030.06
_cell_formula_units_Z              4
_symmetry_space_group_name_H-M     'P 1 2/c 1'
_symmetry_Int_Tables_number        13
_refine_ls_R_factor_all            .044
loop_
_symmetry_equiv_pos_site_id
_symmetry_equiv_pos_as_xyz
  1	'x, -y, z+.5'
  2	'-x, -y, -z'
  3	'-x, y, -z+.5'
  4	'x, y, z'
loop_
_atom_type_symbol
_atom_type_oxidation_number
Ba2+	2
Li1+	1
N3-	-3
W6+	6
loop_
_atom_site_label
_atom_site_type_symbol
_atom_site_symmetry_multiplicity
_atom_site_Wyckoff_symbol
_atom_site_fract_x
_atom_site_fract_y
_atom_site_fract_z
_atom_site_occupancy
_atom_site_attached_hydrogens
_atom_site_U_iso_or_equiv
Ba1 Ba2+ 2 e 0 0.6979 0.25 1 0 .0137 
Ba2 Ba2+ 2 f 0.5 0.9911 0.25 1 0 .0168 
Ba3 Ba2+ 4 g 0.15469 0.7727 0.07630 1 0 .0139 
Ba4 Ba2+ 4 g 0.25705 0.2787 0.01505 1 0 .0166 
Ba5 Ba2+ 4 g 0.30470 0.8477 0.87953 1 0 .0131 
Li1 Li1+ 4 g 0.365 0.461 0.237 1 0 .0275 
N1 N3- 2 b 0.5 0.5 0 1 0 .0333 
N2 N3- 2 e 0 0.244 0.25 1 0 .0250 
N3 N3- 4 g 0.057 0.987 0.916 1 0 .0231 
N4 N3- 4 g 0.576 0.918 0.433 1 0 .0161 
N5 N3- 4 g 0.018 0.468 0.409 1 0 .0178 
N6 N3- 4 g 0.433 0.521 0.153 1 0 .0228 
N7 N3- 4 g 0.760 0.182 0.308 1 0 .0141 
N8 N3- 4 g 0.292 0.715 0.328 1 0 .0740 
W1 W6+ 4 g 0.52041 0.6665 0.09878 1 0 .0100 
W2 W6+ 4 g 0.95375 0.7727 0.84624 1 0 .0081 

#End of data_658801-ICSD


