data_92837-ICSD
#?2014 by Fachinformationszentrum Karlsruhe, and the U.S. Secretary of 
#Commerce on behalf of the United States.  All rights reserved.
_database_code_ICSD                92837
_audit_creation_date               2003/04/01
_chemical_name_systematic
;
Tetrasodium Trinickel Bis(phosphate(V)) Diphosphate(V)
;
_chemical_formula_structural       'Na4 Ni3 (P O4)2 (P2 O7)'
_chemical_formula_sum              'Na4 Ni3 O15 P4'
_publ_section_title
;
Synthesis, structural characterization, magnetic properties, and 
ionic conductivity of Na4 M(II)3 (P O4)2 (P2 O7) (M(II) = Mn, Co, Ni)
;
loop_
_citation_id
_citation_journal_abbrev
_citation_year
_citation_journal_volume
_citation_page_first
_citation_page_last
_citation_journal_id_ASTM
primary 'Chemistry of Materials' 2001 13 1334 1340 CMATEX
_publ_author_name
;
Sanz, F.;Parada, C.;Rojo, J.M.;Ruiz Valero, C.
;
_cell_length_a                     17.999(2)
_cell_length_b                     6.4986(6)
_cell_length_c                     10.4200(9)
_cell_angle_alpha                  90
_cell_angle_beta                   90
_cell_angle_gamma                  90
_cell_volume                       1218.81
_cell_formula_units_Z              4
_symmetry_space_group_name_H-M     'P n 21 a'
_symmetry_Int_Tables_number        33
_refine_ls_R_factor_all            .036
loop_
_symmetry_equiv_pos_site_id
_symmetry_equiv_pos_as_xyz
  1	'x+.5, y, -z+.5'
  2	'-x+.5, y+.5, z+.5'
  3	'-x, y+.5, -z'
  4	'x, y, z'
loop_
_atom_type_symbol
_atom_type_oxidation_number
Na1+	1
Ni2+	2
O2-	-2
P5+	5
loop_
_atom_site_label
_atom_site_type_symbol
_atom_site_symmetry_multiplicity
_atom_site_Wyckoff_symbol
_atom_site_fract_x
_atom_site_fract_y
_atom_site_fract_z
_atom_site_occupancy
_atom_site_attached_hydrogens
_atom_site_U_iso_or_equiv
Ni1 Ni2+ 4 a 0.3312(1) 0.0949(2) 0.5044(1) 1. 0 0.008(1) 
Ni2 Ni2+ 4 a 0.1386(1) 0.5842(2) 0.4955(1) 1. 0 0.007(1) 
Ni3 Ni2+ 4 a 0.2404(1) 0.3197(2) 0.7443(1) 1. 0 0.007(1) 
P1 P5+ 4 a 0.2900(1) 0.5881(4) 0.5023(2) 1. 0 0.006(1) 
P2 P5+ 4 a 0.1795(1) 0.0782(4) 0.4888(2) 1. 0 0.006(1) 
P3 P5+ 4 a 0.5706(1) 0.4433(4) 0.7340(2) 1. 0 0.009(1) 
P4 P5+ 4 a 0.4497(1) 0.1326(4) 0.7279(2) 1. 0 0.011(1) 
Na1 Na1+ 4 a 0.4939(2) 0.8079(6) 0.9733(3) 1. 0 0.016(1) 
Na2 Na1+ 4 a 0.2964(2) 0.8420(6) 0.7486(3) 1. 0 0.019(1) 
Na3 Na1+ 4 a 0.3897(2) 0.4104(7) 0.2621(3) 1. 0 0.019(1) 
Na4 Na1+ 4 a 0.4606(2) 0.6600(6) 0.5404(3) 1. 0 0.023(1) 
O1 O2- 4 a 0.2330(3) 0.5507(8) 0.6135(5) 1. 0 0.010(1) 
O2 O2- 4 a 0.3402(3) 0.4056(9) 0.4753(6) 1. 0 0.011(1) 
O3 O2- 4 a 0.3372(3) 0.7775(10) 0.5371(5) 1. 0 0.013(1) 
O4 O2- 4 a 0.2369(3) 0.6194(9) 0.3852(5) 1. 0 0.009(1) 
O5 O2- 4 a 0.2369(3) 0.1035(9) 0.6062(5) 1. 0 0.007(1) 
O6 O2- 4 a 0.1266(3) 0.8971(9) 0.5156(5) 1. 0 0.013(1) 
O7 O2- 4 a 0.2257(3) 0.0451(8) 0.3757(5) 1. 0 0.010(1) 
O8 O2- 4 a 0.1354(3) 0.2739(9) 0.4559(6) 1. 0 0.012(1) 
O9 O2- 4 a 0.4895(3) 0.3527(9) 0.6960(5) 1. 0 0.012(1) 
O10 O2- 4 a 0.5602(3) 0.5521(9) 0.8607(5) 1. 0 0.013(1) 
O11 O2- 4 a 0.6258(3) 0.2685(10) 0.7408(5) 1. 0 0.011(1) 
O12 O2- 4 a 0.5854(3) 0.5928(10) 0.6259(5) 1. 0 0.015(1) 
O13 O2- 4 a 0.4536(3) 0.1037(9) 0.8723(5) 1. 0 0.011(1) 
O14 O2- 4 a 0.3708(4) 0.1581(9) 0.6830(5) 1. 0 0.012(1) 
O15 O2- 4 a 0.4909(3) -0.0032(10) 0.6475(5) 1. 0 0.013(6) 

#End of data_92837-ICSD


