data_71883-ICSD
#?2014 by Fachinformationszentrum Karlsruhe, and the U.S. Secretary of 
#Commerce on behalf of the United States.  All rights reserved.
_database_code_ICSD                71883
_audit_creation_date               1993/08/22
_chemical_name_systematic
;
Dipotassium Tetranitrato(III)palladate
;
_chemical_formula_structural       'K2 (Pd (N O2)4)'
_chemical_formula_sum              'K2 N4 O8 Pd1'
_publ_section_title
;
Redetermination of the structure of potassium tetranitropalladate(II)
;
loop_
_citation_id
_citation_journal_abbrev
_citation_year
_citation_journal_volume
_citation_page_first
_citation_page_last
_citation_journal_id_ASTM
primary 'Acta Crystallographica, Section C: Crystal Structure Communications'
 1992 48 1749 1751 ACSCEE
_publ_author_name
;
Blake, A.J.;Gould, R.O.;Johnson, B.F.G.;Parisini, E.
;
_cell_length_a                     9.254(5)
_cell_length_b                     12.747(3)
_cell_length_c                     7.805(2)
_cell_angle_alpha                  90.
_cell_angle_beta                   96.43(2)
_cell_angle_gamma                  90.
_cell_volume                       914.89
_cell_formula_units_Z              4
_symmetry_space_group_name_H-M     'P 1 21/c 1'
_symmetry_Int_Tables_number        14
_refine_ls_R_factor_all            .031
loop_
_symmetry_equiv_pos_site_id
_symmetry_equiv_pos_as_xyz
  1	'x, -y+.5, z+.5'
  2	'-x, -y, -z'
  3	'-x, y+.5, -z+.5'
  4	'x, y, z'
loop_
_atom_type_symbol
_atom_type_oxidation_number
K1+	1
N3+	3
O2-	-2
Pd2+	2
loop_
_atom_site_label
_atom_site_type_symbol
_atom_site_symmetry_multiplicity
_atom_site_Wyckoff_symbol
_atom_site_fract_x
_atom_site_fract_y
_atom_site_fract_z
_atom_site_occupancy
_atom_site_attached_hydrogens
Pd1 Pd2+ 2 a 0 0.5 0.5 1. 0 
Pd2 Pd2+ 2 b 0.5 0 0 1. 0 
K1 K1+ 4 e 0.18055(6) 0.15773(4) 0.41954(6) 1. 0 
K2 K1+ 4 e 0.65430(6) 0.31845(4) 0.14652(6) 1. 0 
N1 N3+ 4 e 0.11282(20) 0.62713(15) 0.43517(25) 1. 0 
N2 N3+ 4 e 0.01236(19) 0.43292(14) 0.26788(24) 1. 0 
N3 N3+ 4 e 0.58120(19) 0.02375(15) 0.25182(24) 1. 0 
N4 N3+ 4 e 0.39118(21) 0.13607(15) 0.01153(25) 1. 0 
O1 O2- 4 e 0.07483(23) 0.67760(17) 0.3036(3) 1. 0 
O2 O2- 4 e 0.22326(22) 0.65355(16) 0.52795(25) 1. 0 
O3 O2- 4 e 0.91791(22) 0.44892(17) 0.14641(25) 1. 0 
O4 O2- 4 e 0.11175(22) 0.37168(18) 0.2483(3) 1. 0 
O5 O2- 4 e 0.58731(22) 0.95121(16) 0.35760(24) 1. 0 
O6 O2- 4 e 0.62381(23) 0.11117(15) 0.29930(23) 1. 0 
O7 O2- 4 e 0.4292(20) 0.21302(14) -.0695(3) 1. 0 
O8 O2- 4 e 0.29047(21) 0.14430(17) 0.10117(25) 1. 0 

loop_
_atom_site_aniso_label
_atom_site_aniso_type_symbol
_atom_site_aniso_U_11
_atom_site_aniso_U_22
_atom_site_aniso_U_33
_atom_site_aniso_U_12
_atom_site_aniso_U_13
_atom_site_aniso_U_23
Pd1 Pd2+ 0.0142(2) 0.0177(2) 0.0172(2) -.0017(1) 0.0027(1) -.0015(1)
Pd2 Pd2+ 0.0161(2) 0.0143(2) 0.0160(2) 0.0003(1) 0.0022(1) -.0003(1)
K1 K1+ 0.0338(3) 0.0321(3) 0.0244(3) -.0098(2) 0.0017(2) 0.0001(2)
K2 K1+ 0.0296(3) 0.0276(3) 0.0254(3) 0.0043(2) -.0023(2) -.0044(2)
N1 N3+ 0.0209(8) 0.0230(9) 0.0258(9) -.0037(7) 0.0037(7) -.0003(7)
N2 N3+ 0.0242(8) 0.0222(9) 0.0224(8) -.0039(7) 0.0067(7) -.0010(7)
N3 N3+ 0.0184(8) 0.0246(8) 0.0188(8) -.0001(7) 0.0024(6) -.0005(7)
N4 N3+ 0.0211(8) 0.0221(9) 0.0240(9) 0.0035(7) -.0024(7) -.0054(7)
O1 O2- 0.041(1) 0.043(1) 0.053(1) -.011(1) -.012(1) 0.024(1)
O2 O2- 0.038(1) 0.046(1) 0.028(1) -.022(1) 0.000(1) -.002(1)
O3 O2- 0.048(1) 0.040(1) 0.025(1) 0.004(1) -.007(1) 0.000(1)
O4 O2- 0.040(1) 0.064(1) 0.037(1) 0.017(1) 0.008(1) -.017(1)
O5 O2- 0.044(1) 0.039(1) 0.025(1) -.003(1) 0.000(1) 0.011(1)
O6 O2- 0.058(1) 0.033(1) 0.027(1) -.014(1) -.001(1) -.007(1)
O7 O2- 0.034(1) 0.019(1) 0.056(1) 0.001(1) 0.000(1) 0.005(1)
O8 O2- 0.037(1) 0.049(1) 0.034(1) 0.014(1) 0.011(1) -.006(1)
#End of data_71883-ICSD


