data_416171-ICSD
#?2014 by Fachinformationszentrum Karlsruhe, and the U.S. Secretary of 
#Commerce on behalf of the United States.  All rights reserved.
_database_code_ICSD                416171
_audit_creation_date               2007/08/01
_chemical_name_systematic          'Sodium Oxovanadate(V)'
_chemical_formula_structural       'Na4 (V O4) (O H)'
_chemical_formula_sum              'H1 Na4 O5 V1'
_publ_section_title
;
Synthesis and characterization of Na5 [V O4] [O] and Na4 [V O4] [O H]
;
loop_
_citation_id
_citation_journal_abbrev
_citation_year
_citation_journal_volume
_citation_journal_issue
_citation_page_first
_citation_page_last
_citation_journal_id_ASTM
primary 'Zeitschrift fuer Anorganische und Allgemeine Chemie (1950) (DE)'
 2006 632 7 1187 1194 ZAACAB
_publ_author_name                  'Kerp, O.;Moeller, A.'
_cell_length_a                     9.0843(12)
_cell_length_b                     7.4649(10)
_cell_length_c                     8.3104(9)
_cell_angle_alpha                  90.00
_cell_angle_beta                   90.00
_cell_angle_gamma                  90.00
_cell_volume                       563.56
_cell_formula_units_Z              4
_symmetry_space_group_name_H-M     'P n m a'
_symmetry_Int_Tables_number        62
_refine_ls_R_factor_all            .0524
loop_
_symmetry_equiv_pos_site_id
_symmetry_equiv_pos_as_xyz
  1	'x+.5, y, -z+.5'
  2	'x, -y+.5, z'
  3	'-x+.5, y+.5, z+.5'
  4	'-x, -y, -z'
  5	'-x+.5, -y, z+.5'
  6	'-x, y+.5, -z'
  7	'x+.5, -y+.5, -z+.5'
  8	'x, y, z'
loop_
_atom_type_symbol
_atom_type_oxidation_number
H1+	1
Na1+	1
O2-	-2
V5+	5
loop_
_atom_site_label
_atom_site_type_symbol
_atom_site_symmetry_multiplicity
_atom_site_Wyckoff_symbol
_atom_site_fract_x
_atom_site_fract_y
_atom_site_fract_z
_atom_site_occupancy
_atom_site_attached_hydrogens
_atom_site_U_iso_or_equiv
V1 V5+ 4 c 0.36352(6) 0.2500 0.34917(6) 1 0 0.00790(11) 
Na1 Na1+ 8 d 0.37045(11) 0.01172(13) 0.65348(12) 1 0 0.0175(2) 
Na2 Na1+ 4 b 0.0000 0.0000 0.5000 1 0 0.0280(4) 
Na3 Na1+ 4 c 0.12666(16) 0.2500 0.76062(16) 1 0 0.0136(3) 
O1 O2- 4 c 0.2076(3) 0.2500 0.4648(3) 1 0 0.0235(6) 
O2 O2- 4 c 0.0134(3) 0.2500 0.0233(3) 1 0 0.0160(5) 
O3 O2- 8 d 0.3714(2) 0.0614(2) 0.23249(19) 1 0 0.0147(4) 
O4 O2- 4 c 0.3822(2) 0.2500 0.8447(3) 1 0 0.0139(5) 
H1 H1+ 4 c 0.334(4) 0.2500 0.948(3) 1 0 0.021 

loop_
_atom_site_aniso_label
_atom_site_aniso_type_symbol
_atom_site_aniso_U_11
_atom_site_aniso_U_22
_atom_site_aniso_U_33
_atom_site_aniso_U_12
_atom_site_aniso_U_13
_atom_site_aniso_U_23
V1 V5+ 0.0097(2) 0.0066(2) 0.0074(2) 0.000 0.0006(2) 0.000
Na1 Na1+ 0.0160(4) 0.0158(5) 0.0205(4) 0.0005(4) 0.0021(5) -0.0027(4)
Na2 Na1+ 0.0353(9) 0.0347(8) 0.0139(6) 0.0124(8) -0.0087(6) -0.0064(6)
Na3 Na1+ 0.0119(6) 0.0086(6) 0.0203(6) 0.000 0.0014(6) 0.000
O1 O2- 0.0201(13) 0.0284(15) 0.0221(13) 0.000 0.0108(11) 0.000
O2 O2- 0.0160(12) 0.0171(12) 0.0148(11) 0.000 0.0045(10) 0.000
O3 O2- 0.0188(8) 0.0090(7) 0.0162(8) -0.0003(8) 0.0006(8) -0.0025(7)
O4 O2- 0.0141(11) 0.0156(11) 0.0119(10) 0.000 0.0008(11) 0.000
#End of data_416171-ICSD


