data_166829-ICSD
#?2014 by Fachinformationszentrum Karlsruhe, and the U.S. Secretary of 
#Commerce on behalf of the United States.  All rights reserved.
_database_code_ICSD                166829
_audit_creation_date               2010/08/01
_chemical_name_systematic
;
Dipotassium Zinc Tetrakis(catena-phosphate(V))
;
_chemical_formula_structural       'K2 Zn (P O3)4'
_chemical_formula_sum              'K2 O12 P4 Zn1'
_publ_section_title
;
Crystal structure determination of K2 Zn (P O3)4
;
loop_
_citation_id
_citation_journal_abbrev
_citation_year
_citation_journal_volume
_citation_journal_issue
_citation_page_first
_citation_page_last
_citation_journal_id_ASTM
primary 'Powder Diffraction' 2009 24 1 4 7 PODIE2
_publ_author_name
;
Ji, L.-N.;Chen, Y.-Q.;Li, J.-B.;Luo, J.;Liang, J.-K.;Rao, G.H.
;
_cell_length_a                     11.0941(2)
_cell_length_b                     12.5215(3)
_cell_length_c                     7.6597(2)
_cell_angle_alpha                  90.
_cell_angle_beta                   102.47(2)
_cell_angle_gamma                  90.
_cell_volume                       1038.94
_cell_formula_units_Z              4
_symmetry_space_group_name_H-M     'C 1 c 1'
_symmetry_Int_Tables_number        9
_refine_ls_R_factor_all            .031
loop_
_symmetry_equiv_pos_site_id
_symmetry_equiv_pos_as_xyz
  1	'x, -y, z+.5'
  2	'x, y, z'
  3	'x+.5, -y+.5, z+.5'
  4	'x+.5, y+.5, z'
loop_
_atom_type_symbol
_atom_type_oxidation_number
K1+	1
O2-	-2
P5+	5
Zn2+	2
loop_
_atom_site_label
_atom_site_type_symbol
_atom_site_symmetry_multiplicity
_atom_site_Wyckoff_symbol
_atom_site_fract_x
_atom_site_fract_y
_atom_site_fract_z
_atom_site_occupancy
_atom_site_attached_hydrogens
_atom_site_B_iso_or_equiv
Zn1 Zn2+ 4 a 0 0.1564(4) 0.750 1. 0 1.45(2) 
K1 K1+ 4 a 0.129(1) 0.3757(8) 0.083(2) 1. 0 1.49(5) 
K2 K1+ 4 a 0.337(1) 0.132(0) 0.910(2) 1. 0 0.67(8) 
P1 P5+ 4 a 0.390(1) 0.427(1) 0.827(3) 1. 0 1.01(2) 
P2 P5+ 4 a 0.162(1) 0.341(1) 0.575(3) 1. 0 2.07(5) 
P3 P5+ 4 a 0.315(1) 0.182(1) 0.410(2) 1. 0 0.56(4) 
P4 P5+ 4 a 0.115(1) 0.077(1) 0.184(3) 1. 0 0.99(8) 
O1 O2- 4 a 0.080(2) 0.422(2) 0.476(3) 1. 0 0.33(7) 
O2 O2- 4 a 0.124(2) 0.259(2) 0.692(3) 1. 0 0.32(7) 
O3 O2- 4 a 0.283(2) 0.408(2) 0.663(4) 1. 0 0.49(0) 
O4 O2- 4 a 0.214(2) 0.267(2) 0.415(3) 1. 0 2.37(8) 
O5 O2- 4 a 0.393(3) 0.222(2) 0.273(4) 1. 0 1.14(6) 
O6 O2- 4 a 0.392(2) 0.149(2) 0.597(3) 1. 0 0.84(0) 
O7 O2- 4 a 0.245(2) 0.092(2) 0.339(4) 1. 0 1.59(8) 
O8 O2- 4 a 0.130(3) 0.150(2) 0.041(5) 1. 0 0.82(5) 
O9 O2- 4 a 0.101(1) -0.043(0) 0.162(1) 1. 0 1.65(3) 
O10 O2- 4 a 0.009(3) 0.121(1) 0.262(5) 1. 0 1.26(6) 
O11 O2- 4 a 0.359(3) 0.358(3) 0.983(4) 1. 0 1.31(9) 
O12 O2- 4 a 0.387(3) 0.549(2) 0.850(4) 1. 0 0.99(2) 

#End of data_166829-ICSD


