data_413827-ICSD
#?2014 by Fachinformationszentrum Karlsruhe, and the U.S. Secretary of 
#Commerce on behalf of the United States.  All rights reserved.
_database_code_ICSD                413827
_audit_creation_date               2005/10/01
_audit_update_record               2010/08/01
_chemical_name_systematic
;
Silver Mercury Iodide Sulfide - Alpha
;
_chemical_formula_structural       'Ag Hg I S'
_chemical_formula_sum              'Ag1 Hg1 I1 S1'
_publ_section_title
;
Ueber Muenzmetall-Quecksilber-Chalkogenidhalogenide. V. 
Solvothermalsynthese und Kristallstruktur der Hochdruckmodifikation 
von Ag Hg S I
;
loop_
_citation_id
_citation_journal_abbrev
_citation_year
_citation_journal_volume
_citation_page_first
_citation_page_last
_citation_journal_id_ASTM
primary 'Zeitschrift fuer Anorganische und Allgemeine Chemie (1950) (DE)'
 2004 630 1031 1035 ZAACAB
_publ_author_name
;
Beck, J.;Keller, H.L.;Rompel, M.;Wimbert, L.;Ewald, B.
;
_cell_length_a                     7.07470(10)
_cell_length_b                     7.7318(2)
_cell_length_c                     8.4753(2)
_cell_angle_alpha                  90.
_cell_angle_beta                   90.
_cell_angle_gamma                  90.
_cell_volume                       463.6
_cell_formula_units_Z              4
_symmetry_space_group_name_H-M     'P 21 21 21'
_symmetry_Int_Tables_number        19
_refine_ls_R_factor_all            .0426
loop_
_symmetry_equiv_pos_site_id
_symmetry_equiv_pos_as_xyz
  1	'-x, y+.5, -z+.5'
  2	'x+.5, -y+.5, -z'
  3	'-x+.5, -y, z+.5'
  4	'x, y, z'
loop_
_atom_type_symbol
_atom_type_oxidation_number
Ag1+	1
Hg2+	2
I1-	-1
S2-	-2
loop_
_atom_site_label
_atom_site_type_symbol
_atom_site_symmetry_multiplicity
_atom_site_Wyckoff_symbol
_atom_site_fract_x
_atom_site_fract_y
_atom_site_fract_z
_atom_site_occupancy
_atom_site_attached_hydrogens
_atom_site_U_iso_or_equiv
Hg1 Hg2+ 4 a 0.25048(9) 0.23446(8) 0.01110(7) 1 0 0.0404(2) 
Ag1 Ag1+ 4 a 0.9068(3) 0.1730(2) 0.4015(2) 1 0 0.0741(6) 
I1 I1- 4 a 0.99488(12) 0.38662(10) 0.64986(9) 1 0 0.0314(2) 
S1 S2- 4 a 0.9988(5) 0.3587(4) 0.1524(4) 1 0 0.0303(6) 

loop_
_atom_site_aniso_label
_atom_site_aniso_type_symbol
_atom_site_aniso_U_11
_atom_site_aniso_U_22
_atom_site_aniso_U_33
_atom_site_aniso_U_12
_atom_site_aniso_U_13
_atom_site_aniso_U_23
Hg1 Hg2+ 0.0267(3) 0.0420(3) 0.0527(3) 0.0049(2) 0.0084(2) -0.0008(2)
Ag1 Ag1+ 0.1159(17) 0.0454(7) 0.0609(9) -0.0096(9) -0.0026(9) -0.0069(7)
I1 I1- 0.0328(4) 0.0272(4) 0.0343(4) 0.0010(3) 0.0012(3) 0.0031(3)
S1 S2- 0.0276(12) 0.0293(13) 0.0340(12) -0.0008(12) 0.0059(14) -0.0020(11)
#End of data_413827-ICSD


