data_170312-ICSD
#?2014 by Fachinformationszentrum Karlsruhe, and the U.S. Secretary of 
#Commerce on behalf of the United States.  All rights reserved.
_database_code_ICSD                170312
_audit_creation_date               2006/04/01
_chemical_name_systematic          'Potassium Manganese Thioarsenate'
_chemical_formula_structural       'K4 Mn As2 S8'
_chemical_formula_sum              'As2 K4 Mn1 S8'
_publ_section_title
;
[Mn2 (As S4)4](8-) and [Cd2 (As S4)2 (As S5)2](8-): discrete clusters 
with high negative charge from alkali metal polythioarsenate fluxes
;
loop_
_citation_id
_citation_journal_abbrev
_citation_year
_citation_journal_volume
_citation_journal_issue
_citation_page_first
_citation_page_last
_citation_journal_id_ASTM
primary 'Inorganic Chemistry' 2004 43 12 3656 3662 INOCAJ
_publ_author_name                  'Iyer, P.N.;Kanatzidis, M.G.'
_cell_length_a                     9.1818(8)
_cell_length_b                     8.5867(8)
_cell_length_c                     20.3802(19)
_cell_angle_alpha                  90.00
_cell_angle_beta                   95.095(2)
_cell_angle_gamma                  90.00
_cell_volume                       1600.45
_cell_formula_units_Z              4
_symmetry_space_group_name_H-M     'P 1 2/n 1'
_symmetry_Int_Tables_number        13
_refine_ls_R_factor_all            .0218
loop_
_symmetry_equiv_pos_site_id
_symmetry_equiv_pos_as_xyz
  1	'x+.5, -y, z+.5'
  2	'-x+.5, y, -z+.5'
  3	'-x, -y, -z'
  4	'x, y, z'
loop_
_atom_type_symbol
_atom_type_oxidation_number
As5+	5
K1+	1
Mn2+	2
S2-	-2
loop_
_atom_site_label
_atom_site_type_symbol
_atom_site_symmetry_multiplicity
_atom_site_Wyckoff_symbol
_atom_site_fract_x
_atom_site_fract_y
_atom_site_fract_z
_atom_site_occupancy
_atom_site_attached_hydrogens
_atom_site_U_iso_or_equiv
As1 As5+ 4 g -0.00343(2) 0.33486(2) 0.613783(9) 1 0 0.01181(5) 
As2 As5+ 4 g -0.45021(2) 0.19069(2) 0.374730(10) 1 0 0.01236(5) 
Mn1 Mn2+ 4 g -0.16897(3) 0.37014(4) 0.458220(15) 1 0 0.01443(7) 
K1 K1+ 4 g -0.10575(5) 0.38373(5) 0.86520(2) 1 0 0.02163(10) 
K2 K1+ 2 f -0.2500 -0.11910(9) 0.2500 1 0 0.03003(17) 
K3 K1+ 4 g -0.86990(5) 0.10486(6) 0.33493(3) 1 0 0.02660(11) 
K4 K1+ 4 g 0.28672(5) 0.11458(6) 0.51551(2) 1 0 0.02101(10) 
K5 K1+ 2 f -0.2500 0.41137(8) 0.2500 1 0 0.02598(15) 
S1 S2- 4 g -0.05833(6) 0.16099(6) 0.53887(2) 1 0 0.01514(10) 
S2 S2- 4 g -0.44908(6) 0.33934(6) 0.46145(2) 1 0 0.01442(10) 
S3 S2- 4 g -0.55669(6) 0.30645(7) 0.29084(3) 1 0 0.02252(12) 
S4 S2- 4 g 0.22845(5) 0.38799(6) 0.61818(2) 1 0 0.01595(10) 
S5 S2- 4 g -0.56139(6) -0.02400(6) 0.39026(3) 1 0 0.02358(12) 
S6 S2- 4 g -0.21660(5) 0.15072(6) 0.36644(2) 1 0 0.01541(10) 
S7 S2- 4 g -0.10803(5) 0.54670(6) 0.57131(2) 1 0 0.01542(10) 
S8 S2- 4 g -0.07078(6) 0.26472(7) 0.70671(2) 1 0 0.02021(11) 

loop_
_atom_site_aniso_label
_atom_site_aniso_type_symbol
_atom_site_aniso_U_11
_atom_site_aniso_U_22
_atom_site_aniso_U_33
_atom_site_aniso_U_12
_atom_site_aniso_U_13
_atom_site_aniso_U_23
As1 As5+ 0.01158(10) 0.01296(10) 0.01066(10) -0.00060(7) -0.00039(7) 
-0.00024(7)
As2 As5+ 0.01134(10) 0.01245(10) 0.01286(10) 0.00019(8) -0.00131(7) 
-0.00272(7)
Mn1 Mn2+ 0.01396(15) 0.01548(15) 0.01326(15) -0.00195(12) -0.00212(11) 
0.00084(11)
K1 K1+ 0.0198(2) 0.0163(2) 0.0289(3) -0.00070(18) 0.00296(18) -0.00029(19)
K2 K1+ 0.0339(4) 0.0223(4) 0.0307(4) 0.000 -0.0147(3) 0.000
K3 K1+ 0.0214(3) 0.0288(3) 0.0284(3) -0.0005(2) -0.00470(19) 0.0083(2)
K4 K1+ 0.0177(2) 0.0257(2) 0.0197(2) -0.00145(19) 0.00221(17) -0.00246(18)
K5 K1+ 0.0384(4) 0.0243(4) 0.0161(3) 0.000 0.0077(3) 0.000
S1 S2- 0.0167(2) 0.0136(2) 0.0145(2) -0.00233(19) -0.00228(18) -0.00144(18)
S2 S2- 0.0144(2) 0.0170(2) 0.0120(2) -0.00128(19) 0.00132(17) -0.00337(18)
S3 S2- 0.0254(3) 0.0259(3) 0.0147(3) 0.0067(2) -0.0068(2) -0.0021(2)
S4 S2- 0.0113(2) 0.0166(2) 0.0193(2) -0.00145(19) -0.00241(18) -0.00007(19)
S5 S2- 0.0174(3) 0.0136(3) 0.0390(3) -0.0036(2) -0.0011(2) -0.0022(2)
S6 S2- 0.0126(2) 0.0176(2) 0.0160(2) 0.00143(19) 0.00129(18) -0.00228(18)
S7 S2- 0.0158(2) 0.0151(2) 0.0152(2) 0.00228(19) 0.00035(18) 0.00105(18)
S8 S2- 0.0255(3) 0.0241(3) 0.0114(2) 0.0015(2) 0.00384(19) 0.0022(2)
#End of data_170312-ICSD


