data_186999-ICSD
#?2014 by Fachinformationszentrum Karlsruhe, and the U.S. Secretary of 
#Commerce on behalf of the United States.  All rights reserved.
_database_code_ICSD                186999
_audit_creation_date               2013/08/01
_chemical_name_systematic          'Potassium Thulium Tetrafluoride'
_chemical_formula_structural       'K Tm F4'
_chemical_formula_sum              'F4 K1 Tm1'
_publ_section_title
;
Crystal structures and stability of trigonal K Ln F4 fluorides (Ln = 
Y, Ho, Er, Tm, Yb)
;
loop_
_citation_id
_citation_journal_abbrev
_citation_year
_citation_journal_volume
_citation_journal_issue
_citation_page_first
_citation_page_last
_citation_journal_id_ASTM
primary 'Dalton Transactions' 2013 42 2 441 447 DTARAF
_publ_author_name
;
Grzechnik, Andrzej;Khaidukov, Nicholas;Friese, Karen
;
_cell_length_a                     14.087(2)
_cell_length_b                     14.087(2)
_cell_length_c                     10.1460(10)
_cell_angle_alpha                  90
_cell_angle_beta                   90
_cell_angle_gamma                  120
_cell_volume                       1743.66
_cell_formula_units_Z              18
_symmetry_space_group_name_H-M     'P 32'
_symmetry_Int_Tables_number        145
_refine_ls_R_factor_all            .0301
loop_
_symmetry_equiv_pos_site_id
_symmetry_equiv_pos_as_xyz
  1	'-x+y, -x, z+.3333'
  2	'-y, x-y, z+.6667'
  3	'x, y, z'
loop_
_atom_type_symbol
_atom_type_oxidation_number
F1-	-1
K1+	1
Tm3+	3
loop_
_atom_site_label
_atom_site_type_symbol
_atom_site_symmetry_multiplicity
_atom_site_Wyckoff_symbol
_atom_site_fract_x
_atom_site_fract_y
_atom_site_fract_z
_atom_site_occupancy
_atom_site_attached_hydrogens
_atom_site_U_iso_or_equiv
Tm1 Tm3+ 3 a 0.12764(4) 0.88686(4) 0.66930(5) 1 0 0.00854(8) 
Tm2 Tm3+ 3 a 0.28098(4) 0.73088(4) 0.67972(5) 1 0 0.00683(8) 
Tm3 Tm3+ 3 a 0.77849(4) 0.20520(4) 0.66356(4) 1 0 0.00623(6) 
Tm4 Tm3+ 3 a 0.94085(6) 0.05764(6) 0.67311(8) 1 0 0.00832(8) 
Tm5 Tm3+ 3 a 0.45217(6) 0.54475(6) 0.67551(4) 1 0 0.00666(6) 
Tm6 Tm3+ 3 a 0.60485(4) 0.38809(4) 0.66008(4) 1 0 0.00624(8) 
K1 K1+ 3 a 0.26504(19) 0.22064(19) 0.6510(2) 1 0 0.0169(5) 
K2 K1+ 3 a 0.7811(2) 0.7188(2) 0.6814(2) 1 0 0.0214(6) 
K3 K1+ 3 a 0.6068(2) 0.87666(16) 0.65505(17) 1 0 0.0152(5) 
K4 K1+ 3 a 0.1039(2) 0.3920(2) 0.6833(2) 1 0 0.0182(6) 
K5 K1+ 3 a 0.45351(19) 0.06488(19) 0.68443(18) 1 0 0.0183(5) 
K6 K1+ 3 a 0.9447(2) 0.55911(19) 0.6549(2) 1 0 0.0185(6) 
F1 F1- 3 a 0.1340(4) 0.9396(4) 0.8845(4) 1 0 0.0190(11) 
F2 F1- 3 a 0.0712(3) 0.8783(3) 0.4580(4) 1 0 0.0149(9) 
F3 F1- 3 a 0.2087(4) 0.5951(3) 0.5294(4) 1 0 0.0217(7) 
F4 F1- 3 a 0.3375(5) 0.7291(3) 0.3462(6) 1 0 0.0315(7) 
F5 F1- 3 a 0.7366(3) 0.2044(4) 0.4468(4) 1 0 0.0149(9) 
F6 F1- 3 a 0.7911(4) 0.2707(4) 0.8717(4) 1 0 0.0190(11) 
F7 F1- 3 a 0.0083(4) 0.0603(3) 0.3377(5) 1 0 0.0315(7) 
F8 F1- 3 a -0.1255(3) -0.0729(3) 1.5168(4) 1 0 0.0217(7) 
F9 F1- 3 a 0.3947(3) 0.5392(3) 0.4648(4) 1 0 0.0149(9) 
F10 F1- 3 a 0.4609(5) 0.5942(4) 0.8912(4) 1 0 0.0190(11) 
F11 F1- 3 a 0.5450(4) 0.2867(3) 0.4740(4) 1 0 0.0217(7) 
F12 F1- 3 a -0.2698(5) -0.6070(3) 1.3294(6) 1 0 0.0315(7) 
F13 F1- 3 a 0.7687(4) 0.7317(3) 0.9380(4) 1 0 0.0170(7) 
F14 F1- 3 a 0.8109(4) 0.7241(3) 0.4293(5) 1 0 0.0174(9) 
F15 F1- 3 a 0.2503(3) 0.2258(3) 0.3962(4) 1 0 0.0161(7) 
F16 F1- 3 a 0.8065(4) 0.0739(4) 1.5735(4) 1 0 0.0143(8) 
F17 F1- 3 a 0.1331(4) 0.3930(3) 0.4342(4) 1 0 0.0174(9) 
F18 F1- 3 a 0.0930(3) 0.4030(3) 0.9398(4) 1 0 0.0170(7) 
F19 F1- 3 a 0.1512(3) 0.7534(3) 0.5782(4) 1 0 0.0143(8) 
F20 F1- 3 a 0.5879(3) 0.8837(3) 0.3982(4) 1 0 0.0161(7) 
F21 F1- 3 a 0.9366(3) 0.5724(3) 0.4017(4) 1 0 0.0161(7) 
F22 F1- 3 a -0.5311(3) 0.4113(4) 1.5780(4) 1 0 0.0143(8) 
F23 F1- 3 a 0.4834(4) 0.0667(3) 1.4339(4) 1 0 0.0174(9) 
F24 F1- 3 a 0.4513(3) 0.0869(3) 0.9442(4) 1 0 0.0170(7) 

loop_
_atom_site_aniso_label
_atom_site_aniso_type_symbol
_atom_site_aniso_U_11
_atom_site_aniso_U_22
_atom_site_aniso_U_33
_atom_site_aniso_U_12
_atom_site_aniso_U_13
_atom_site_aniso_U_23
Tm1 Tm3+ 0.00950(9) 0.01101(9) 0.00864(10) 0.00777(8) -0.00017(9) 
0.00028(9)
Tm2 Tm3+ 0.00708(11) 0.00668(9) 0.00787(13) 0.00429(7) 0.00132(8) 
0.00083(7)
Tm3 Tm3+ 0.00648(8) 0.00655(8) 0.00648(8) 0.00386(6) -0.00119(6) 
-0.00057(6)
Tm4 Tm3+ 0.00857(10) 0.00844(9) 0.00994(12) 0.00575(8) 0.00279(8) 
0.00250(8)
Tm5 Tm3+ 0.00683(7) 0.00752(7) 0.00735(8) 0.00487(6) 0.00017(8) 0.00030(8)
Tm6 Tm3+ 0.00600(9) 0.00676(9) 0.00726(10) 0.00417(9) -0.00020(7) 
-0.00017(7)
K1 K1+ 0.0265(7) 0.0152(6) 0.0111(5) 0.0120(5) -0.0039(5) -0.0038(4)
K2 K1+ 0.0144(6) 0.0314(10) 0.0156(7) 0.0094(6) -0.0040(5) -0.0086(6)
K3 K1+ 0.0266(8) 0.0106(6) 0.0093(4) 0.0099(6) 0.0007(5) -0.0024(3)
K4 K1+ 0.0169(6) 0.0235(8) 0.0110(5) 0.0077(6) 0.0006(5) 0.0002(6)
K5 K1+ 0.0171(7) 0.0199(7) 0.0163(5) 0.0080(5) 0.0023(5) -0.0083(5)
K6 K1+ 0.0331(9) 0.0151(6) 0.0118(5) 0.0153(6) -0.0025(6) -0.0027(4)
F1 F1- 0.0298(17) 0.0242(13) 0.0108(9) 0.0195(13) -0.0020(8) -0.0081(8)
F2 F1- 0.0170(10) 0.0168(12) 0.0132(9) 0.0102(9) -0.0063(7) -0.0013(7)
F3 F1- 0.0237(7) 0.0204(10) 0.0210(6) 0.0110(9) 0.0027(8) -0.0107(6)
F4 F1- 0.0367(11) 0.0047(4) 0.0401(8) 0.0007(8) 0.0008(8) -0.0008(10)
F5 F1- 0.0170(10) 0.0168(12) 0.0132(9) 0.0102(9) -0.0063(7) -0.0013(7)
F6 F1- 0.0298(17) 0.0242(13) 0.0108(9) 0.0195(13) -0.0020(8) -0.0081(8)
F7 F1- 0.0367(11) 0.0047(4) 0.0401(8) 0.0007(8) 0.0008(8) -0.0008(10)
F8 F1- 0.0237(7) 0.0204(10) 0.0210(6) 0.0110(9) 0.0027(8) -0.0107(6)
F9 F1- 0.0170(10) 0.0168(12) 0.0132(9) 0.0102(9) -0.0063(7) -0.0013(7)
F10 F1- 0.0298(17) 0.0242(13) 0.0108(9) 0.0195(13) -0.0020(8) -0.0081(8)
F11 F1- 0.0237(7) 0.0204(10) 0.0210(6) 0.0110(9) 0.0027(8) -0.0107(6)
F12 F1- 0.0367(11) 0.0047(4) 0.0401(8) 0.0007(8) 0.0008(8) -0.0008(10)
F13 F1- 0.0200(8) 0.0148(9) 0.0184(9) 0.0103(8) 0.0045(8) -0.0023(8)
F14 F1- 0.0254(13) 0.0074(9) 0.0144(10) 0.0045(8) 0.0088(10) -0.0028(7)
F15 F1- 0.0156(9) 0.0177(8) 0.0187(9) 0.0110(7) 0.0014(8) 0.0016(8)
F16 F1- 0.0174(10) 0.0178(10) 0.0147(10) 0.0139(9) -0.0078(8) -0.0049(8)
F17 F1- 0.0254(13) 0.0074(9) 0.0144(10) 0.0045(8) 0.0088(10) -0.0028(7)
F18 F1- 0.0200(8) 0.0148(9) 0.0184(9) 0.0103(8) 0.0045(8) -0.0023(8)
F19 F1- 0.0174(10) 0.0178(10) 0.0147(10) 0.0139(9) -0.0078(8) -0.0049(8)
F20 F1- 0.0156(9) 0.0177(8) 0.0187(9) 0.0110(7) 0.0014(8) 0.0016(8)
F21 F1- 0.0156(9) 0.0177(8) 0.0187(9) 0.0110(7) 0.0014(8) 0.0016(8)
F22 F1- 0.0174(10) 0.0178(10) 0.0147(10) 0.0139(9) -0.0078(8) -0.0049(8)
F23 F1- 0.0254(13) 0.0074(9) 0.0144(10) 0.0045(8) 0.0088(10) -0.0028(7)
F24 F1- 0.0200(8) 0.0148(9) 0.0184(9) 0.0103(8) 0.0045(8) -0.0023(8)
#End of data_186999-ICSD


