data_80861-ICSD
#?2014 by Fachinformationszentrum Karlsruhe, and the U.S. Secretary of 
#Commerce on behalf of the United States.  All rights reserved.
_database_code_ICSD                80861
_audit_creation_date               1997/05/13
_audit_update_record               2006/04/01
_chemical_name_systematic          'Dipotassium Tetrachlorozincate'
_chemical_formula_structural       'K2 (Zn Cl4)'
_chemical_formula_sum              'Cl4 K2 Zn1'
_publ_section_title
;
The comparative study of the commensurate structure of K2 Zn Cl4
;
loop_
_citation_id
_citation_journal_abbrev
_citation_year
_citation_journal_volume
_citation_page_first
_citation_page_last
_citation_journal_id_ASTM
primary 'Applied Crystallography, Proceedings of the Conference on ...'
 1995 6 268 272 APCRE2
2 'Golden Book of Phase Transitions, Wroclaw' 2002 1 1 123 GBOPT5
_publ_author_name                  'Kusz, J.;Kucharczyk, D.'
_cell_length_a                     8.917
_cell_length_b                     12.393
_cell_length_c                     7.247
_cell_angle_alpha                  90.
_cell_angle_beta                   90.
_cell_angle_gamma                  90.
_cell_volume                       800.85
_cell_formula_units_Z              4
_symmetry_space_group_name_H-M     'P n a 21'
_symmetry_Int_Tables_number        33
_refine_ls_R_factor_all            .064
loop_
_symmetry_equiv_pos_site_id
_symmetry_equiv_pos_as_xyz
  1	'x+.5, -y+.5, z'
  2	'-x+.5, y+.5, z+.5'
  3	'-x, -y, z+.5'
  4	'x, y, z'
loop_
_atom_type_symbol
_atom_type_oxidation_number
Cl1-	-1
K1+	1
Zn2+	2
loop_
_atom_site_label
_atom_site_type_symbol
_atom_site_symmetry_multiplicity
_atom_site_Wyckoff_symbol
_atom_site_fract_x
_atom_site_fract_y
_atom_site_fract_z
_atom_site_occupancy
_atom_site_attached_hydrogens
K1 K1+ 4 a 0.1338(2) 0.0834(2) 0.7454(12) 1. 0 
K2 K1+ 4 a -.0037(2) 0.6874(1) 0.7495(9) 1. 0 
Zn1 Zn2+ 4 a 0.2173(1) 0.4184(1) 0.7551 1. 0 
Cl1 Cl1- 4 a -.0260(2) 0.4386(2) 0.7698(7) 1. 0 
Cl2 Cl1- 4 a 0.3364(2) 0.5764(2) 0.7667(11) 1. 0 
Cl3 Cl1- 4 a 0.2934(3) 0.3258(3) 0.9982(4) 1. 0 
Cl4 Cl1- 4 a 0.3037(5) 0.3221(4) 0.5093(5) 1. 0 

loop_
_atom_site_aniso_label
_atom_site_aniso_type_symbol
_atom_site_aniso_U_11
_atom_site_aniso_U_22
_atom_site_aniso_U_33
_atom_site_aniso_U_12
_atom_site_aniso_U_13
_atom_site_aniso_U_23
K1 K1+ 0.036(1) 0.074(1) 0.074(2) -.003(1) -.011(1) -.006(4)
K2 K1+ 0.034(1) 0.037(1) 0.045(1) 0.000(1) 0.007(2) -.009(2)
Zn1 Zn2+ 0.024(1) 0.027(1) 0.029(1) 0.000(1) -.003(1) -.005(1)
Cl1 Cl1- 0.024(1) 0.028(1) 0.029(1) -.003(1) -.004(2) -.012(2)
Cl2 Cl1- 0.035(1) 0.030(1) 0.034(2) -.007(1) -.004(3) -.001(3)
Cl3 Cl1- 0.024(2) 0.021(2) 0.028(1) -.004(1) -.005(1) -.014(1)
Cl4 Cl1- 0.069(3) 0.093(4) 0.055(2) 0.018(3) -.001(2) -.017(1)
#End of data_80861-ICSD


