data_20095-ICSD
#?2014 by Fachinformationszentrum Karlsruhe, and the U.S. Secretary of 
#Commerce on behalf of the United States.  All rights reserved.
_database_code_ICSD                20095
_audit_creation_date               1986/08/08
_audit_update_record               2011/02/01
_chemical_name_systematic
;
Potassium Lithium Calcium Titanium Silicate Fluoride *
;
_chemical_formula_structural       'K Li3 Ca7 Ti2 (Si6 O18)2 F2'
_chemical_formula_sum              'Ca7 F2 K1 Li3 O36 Si12 Ti2'
_chemical_name_mineral             Baratovite
_publ_section_title
;
The crystal structures of Baratovite K Li3 Ca7 Ti2 (Si6 O18)2 F2
;
loop_
_citation_id
_citation_journal_abbrev
_citation_year
_citation_journal_volume
_citation_page_first
_citation_page_last
_citation_journal_id_ASTM
primary 'Doklady Akademii Nauk SSSR' 1976 231 615 618 DANKAS
_publ_author_name
;
Sandomirskii, P.A.;Simonov, M.A.;Belov, N.V.
;
_cell_length_a                     16.9530(50)
_cell_length_b                     20.91599
_cell_length_c                     9.752
_cell_angle_alpha                  90.
_cell_angle_beta                   90.
_cell_angle_gamma                  112.46(2)
_cell_volume                       3195.65
_cell_formula_units_Z              4
_symmetry_space_group_name_H-M     'B 1 1 2/b'
_symmetry_Int_Tables_number        15
_refine_ls_R_factor_all            .056
loop_
_symmetry_equiv_pos_site_id
_symmetry_equiv_pos_as_xyz
  1	'x, y+.5, -z'
  2	'-x, -y, -z'
  3	'-x, -y+.5, z'
  4	'x, y, z'
  5	'x+.5, y+.5, -z+.5'
  6	'-x+.5, -y, -z+.5'
  7	'-x+.5, -y+.5, z+.5'
  8	'x+.5, y, z+.5'
loop_
_atom_type_symbol
_atom_type_oxidation_number
Ca2+	2
F1-	-1
K1+	1
Li1+	1
O2-	-2
Si4+	4
Ti4+	4
loop_
_atom_site_label
_atom_site_type_symbol
_atom_site_symmetry_multiplicity
_atom_site_Wyckoff_symbol
_atom_site_fract_x
_atom_site_fract_y
_atom_site_fract_z
_atom_site_occupancy
_atom_site_attached_hydrogens
_atom_site_B_iso_or_equiv
Ti1 Ti4+ 8 f 0.1655(1) 0.2482(1) 0.4295(2) 1. 0 0.09(2) 
Ca1 Ca2+ 8 f 0.0726(1) 0.5000(1) 0.3616(2) 1. 0 0.67(2) 
Ca2 Ca2+ 4 a 0 0 0 1. 0 0.64(2) 
Ca3 Ca2+ 8 f 0.2797(1) 0.4866(1) 0.4276(2) 1. 0 0.71(2) 
Ca4 Ca2+ 8 f 0.1452(1) 0.0071(1) 0.2830(2) 1. 0 0.69(2) 
K1 K1+ 4 e 0.5 0.25 0.4289(4) 1. 0 1.92(2) 
Li1 Li1+ 8 f 0.2557(10) 0.2521(8) 0.1814(17) 1. 0 1.17(2) 
Li2 Li1+ 4 e 0 0.25 0.4139(23) 1. 0 1.00(2) 
Si1 Si4+ 8 f 0.4914(2) 0.3603(1) 0.1202(3) 1. 0 0.60(2) 
Si2 Si4+ 8 f 0.1141(2) 0.3607(1) 0.2346(3) 1. 0 0.56(2) 
Si3 Si4+ 8 f 0.2615(2) 0.1378(1) 0.4921(3) 1. 0 0.58(2) 
Si4 Si4+ 8 f 0.3259(2) 0.1408(1) 0.1853(3) 1. 0 0.62(2) 
Si5 Si4+ 8 f 0.3691(2) 0.3594(1) 0.3644(3) 1. 0 0.59(2) 
Si6 Si4+ 8 f 0.0690(2) 0.1401(1) 0.1763(3) 1. 0 0.55(2) 
O1 O2- 8 f 0.3792(4) 0.4385(3) 0.3495(6) 1. 0 0.87(2) 
O2 O2- 8 f 0.1995(4) 0.0572(3) 0.5009(6) 1. 0 0.84(2) 
O3 O2- 8 f 0.2716(4) 0.0613(3) 0.1473(6) 1. 0 0.92(2) 
O4 O2- 8 f 0.0472(4) 0.0609(3) 0.2154(6) 1. 0 0.84(2) 
O5 O2- 8 f 0.1597(4) 0.4412(3) 0.2753(6) 1. 0 0.90(2) 
O6 O2- 8 f 0.4794(4) 0.0590(3) 0.0800(6) 1. 0 0.96(2) 
O7 O2- 8 f 0.0515(4) 0.1913(3) 0.4949(6) 1. 0 0.74(2) 
O8 O2- 8 f 0.3052(4) 0.1964(3) 0.0943(6) 1. 0 0.89(2) 
O9 O2- 8 f 0.3078(4) 0.1558(3) 0.3430(6) 1. 0 1.03(2) 
O10 O2- 8 f 0.2856(4) 0.3101(3) 0.0231(6) 1. 0 0.92(2) 
O11 O2- 8 f 0.4278(4) 0.1549(3) 0.1789(6) 1. 0 1.09(2) 
O12 O2- 8 f 0.1136(4) 0.3088(3) 0.3557(6) 1. 0 0.83(2) 
O13 O2- 8 f 0.2732(4) 0.3039(3) 0.3464(6) 1. 0 1.00(2) 
O14 O2- 8 f 0.4269(4) 0.3402(3) 0.2513(6) 1. 0 1.01(2) 
O15 O2- 8 f 0.1470(3) 0.1948(3) 0.2610(6) 1. 0 0.81(2) 
O16 O2- 8 f 0.0896(4) 0.1488(3) 0.0120(7) 1. 0 1.26(2) 
O17 O2- 8 f 0.1576(4) 0.3442(3) 0.0973(6) 1. 0 1.16(2) 
O18 O2- 8 f 0.0148(4) 0.3402(3) 0.1899(6) 1. 0 1.05(2) 
F1 F1- 8 f 0.3984(3) 0.0412(3) 0.4311(6) 1. 0 1.77(2) 

#End of data_20095-ICSD


