data_35089-ICSD
#?2014 by Fachinformationszentrum Karlsruhe, and the U.S. Secretary of 
#Commerce on behalf of the United States.  All rights reserved.
_database_code_ICSD                35089
_audit_creation_date               1982/12/31
_audit_update_record               2007/08/01
_chemical_name_systematic          'Zinc Dilutetium Sulfide'
_chemical_formula_structural       'Zn Lu2 S4'
_chemical_formula_sum              'Lu2 S4 Zn1'
_publ_section_title
;
Zinc rare-earth sulphides with the olivine structure
;
loop_
_citation_id
_citation_journal_abbrev
_citation_year
_citation_journal_volume
_citation_page_first
_citation_page_last
_citation_journal_id_ASTM
primary 'Acta Crystallographica B (24,1968-38,1982)' 1982 38 2442 2444 ACBCAR
_publ_author_name                  'Vollebregt, F.H.A.;Ijdo, D.J.W.'
_cell_length_a                     13.2180(9)
_cell_length_b                     7.6848(5)
_cell_length_c                     6.2606(4)
_cell_angle_alpha                  90.
_cell_angle_beta                   90.
_cell_angle_gamma                  90.
_cell_volume                       635.94
_cell_formula_units_Z              4
_symmetry_space_group_name_H-M     'P n m a'
_symmetry_Int_Tables_number        62
_refine_ls_R_factor_all            .1
loop_
_symmetry_equiv_pos_site_id
_symmetry_equiv_pos_as_xyz
  1	'x+.5, y, -z+.5'
  2	'x, -y+.5, z'
  3	'-x+.5, y+.5, z+.5'
  4	'-x, -y, -z'
  5	'-x+.5, -y, z+.5'
  6	'-x, y+.5, -z'
  7	'x+.5, -y+.5, -z+.5'
  8	'x, y, z'
loop_
_atom_type_symbol
_atom_type_oxidation_number
Lu3+	3
S2-	-2
Zn2+	2
loop_
_atom_site_label
_atom_site_type_symbol
_atom_site_symmetry_multiplicity
_atom_site_Wyckoff_symbol
_atom_site_fract_x
_atom_site_fract_y
_atom_site_fract_z
_atom_site_occupancy
_atom_site_attached_hydrogens
_atom_site_B_iso_or_equiv
Zn1 Zn2+ 4 c 0.0955(4) 0.25 0.4196(7) 1. 0 0.9 
Lu1 Lu3+ 4 a 0 0 0 1. 0 0.7 
Lu2 Lu3+ 4 c 0.2656(3) 0.25 0.9966(10) 1. 0 0.7 
S1 S2- 4 c 0.0908(13) 0.25 0.7790(14) 1. 0 0.48 
S2 S2- 4 c 0.4235(12) 0.25 0.2451(14) 1. 0 0.5 
S3 S2- 8 d 0.1660(9) 0.0082(13) 0.2386(11) 1. 0 0.12 

#End of data_35089-ICSD


