data_14006-ICSD
#?2014 by Fachinformationszentrum Karlsruhe, and the U.S. Secretary of 
#Commerce on behalf of the United States.  All rights reserved.
_database_code_ICSD                14006
_audit_creation_date               1980/01/01
_audit_update_record               2005/10/01
_chemical_name_systematic          'Calcium Tecto-digermanate - Ht'
_chemical_formula_structural       'Ca (Ge2 O5)'
_chemical_formula_sum              'Ca1 Ge2 O5'
_publ_section_title
;
Die Kristallstruktur der Hoch- und der Tieftemperaturform von Ca Ge2 
O5
;
loop_
_citation_id
_citation_journal_abbrev
_citation_year
_citation_journal_volume
_citation_page_first
_citation_page_last
_citation_journal_id_ASTM
primary
;
Zeitschrift fuer Kristallographie, Kristallgeometrie, Kristallphysik, 
Kristallchemie (-144,1977)
;
 1976 144 82 90 ZEKGAX
2 'Golden Book of Phase Transitions, Wroclaw' 2002 1 1 123 GBOPT5
_publ_author_name
;
Aust, H.;Voellenkle, H.;Wittmann, A.
;
_cell_length_a                     6.57
_cell_length_b                     8.82
_cell_length_c                     7.44
_cell_angle_alpha                  90.
_cell_angle_beta                   121.55
_cell_angle_gamma                  90.
_cell_volume                       367.4
_cell_formula_units_Z              4
_symmetry_space_group_name_H-M     'C 1 2/c 1'
_symmetry_Int_Tables_number        15
loop_
_symmetry_equiv_pos_site_id
_symmetry_equiv_pos_as_xyz
  1	'x, -y, z+.5'
  2	'-x, -y, -z'
  3	'-x, y, -z+.5'
  4	'x, y, z'
  5	'x+.5, -y+.5, z+.5'
  6	'-x+.5, -y+.5, -z'
  7	'-x+.5, y+.5, -z+.5'
  8	'x+.5, y+.5, z'
loop_
_atom_type_symbol
_atom_type_oxidation_number
Ca2+	2
Ge4+	4
O2-	-2
loop_
_atom_site_label
_atom_site_type_symbol
_atom_site_symmetry_multiplicity
_atom_site_Wyckoff_symbol
_atom_site_fract_x
_atom_site_fract_y
_atom_site_fract_z
_atom_site_occupancy
_atom_site_attached_hydrogens
Ca1 Ca2+ 4 e 0 0.081 0.25 1. 0 
Ge1 Ge4+ 4 c 0.25 0.25 0 1. 0 
Ge2 Ge4+ 4 e 0 0.436 0.25 1. 0 
O1 O2- 4 e 0 0.837 0.25 1. 0 
O2 O2- 8 f 0.25 0.05 0.104 1. 0 
O3 O2- 8 f 0.006 0.314 0.06 1. 0 

#End of data_14006-ICSD


