data_1670-ICSD
#?2014 by Fachinformationszentrum Karlsruhe, and the U.S. Secretary of 
#Commerce on behalf of the United States.  All rights reserved.
_database_code_ICSD                1670
_audit_creation_date               1980/01/01
_audit_update_record               2012/08/01
_chemical_name_systematic
;
Dipotassium Hexachlorostannate - Lt
;
_chemical_formula_structural       'K2 (Sn Cl6)'
_chemical_formula_sum              'Cl6 K2 Sn1'
_publ_section_title
;
A neutron powder investigation of the structural changes in K2 Sn Cl6
;
loop_
_citation_id
_citation_journal_abbrev
_citation_year
_citation_journal_volume
_citation_page_first
_citation_page_last
_citation_journal_id_ASTM
primary 'Acta Crystallographica B (24,1968-38,1982)' 1978 34 1412 1418 ACBCAR
2 'Phase Transition' 1992 38 127 220 PHTRDP
_publ_author_name                  'Boysen, H.;Hewat, A.W.'
_cell_length_a                     7.024(1)
_cell_length_b                     7.013(1)
_cell_length_c                     9.988(1)
_cell_angle_alpha                  90.
_cell_angle_beta                   90.13(1)
_cell_angle_gamma                  90.
_cell_volume                       492
_cell_formula_units_Z              2
_symmetry_space_group_name_H-M     'P 1 21/n 1'
_symmetry_Int_Tables_number        14
_refine_ls_R_factor_all            .019
loop_
_symmetry_equiv_pos_site_id
_symmetry_equiv_pos_as_xyz
  1	'-x+.5, y+.5, -z+.5'
  2	'-x, -y, -z'
  3	'x+.5, -y+.5, z+.5'
  4	'x, y, z'
loop_
_atom_type_symbol
_atom_type_oxidation_number
Cl1-	-1
K1+	1
Sn4+	4
loop_
_atom_site_label
_atom_site_type_symbol
_atom_site_symmetry_multiplicity
_atom_site_Wyckoff_symbol
_atom_site_fract_x
_atom_site_fract_y
_atom_site_fract_z
_atom_site_occupancy
_atom_site_attached_hydrogens
_atom_site_B_iso_or_equiv
K1 K1+ 4 e 0.507(2) 0.025(2) 0.241(3) 1. 0 1.9 
Sn1 Sn4+ 2 a 0 0 0 1. 0 0.9 
Cl1 Cl1- 4 e 0.271(1) 0.211(1) -.021(1) 1. 0 0 
Cl2 Cl1- 4 e 0.218(1) -.271(1) -.015(1) 1. 0 0 
Cl3 Cl1- 4 e 0.041(1) -.001(1) 0.240(1) 1. 0 0 

loop_
_atom_site_aniso_label
_atom_site_aniso_type_symbol
_atom_site_aniso_B_11
_atom_site_aniso_B_22
_atom_site_aniso_B_33
_atom_site_aniso_B_12
_atom_site_aniso_B_13
_atom_site_aniso_B_23
Cl1 Cl1- 2.0(4) 1.7(3) 3.1(4) -.8(3) 0.9(3) -.7(2)
Cl2 Cl1- 2.2(4) 1.1(3) 2.8(4) 0.3(3) 0.5(3) 0.9(2)
Cl3 Cl1- 2.4(2) 2.3(2) 0.5(1) -1.1(3) 0.5(3) -.2(2)
#End of data_1670-ICSD


