data_261118-ICSD
#?2014 by Fachinformationszentrum Karlsruhe, and the U.S. Secretary of 
#Commerce on behalf of the United States.  All rights reserved.
_database_code_ICSD                261118
_audit_creation_date               2011/02/01
_chemical_name_systematic
;
Potassium Manganese Digallium Triphosphate Dihydrate
;
_chemical_formula_structural       'K (Mn Ga2 (P O4)3 (H2 O)2)'
_chemical_formula_sum              'H4 Ga2 K1 Mn1 O14 P3'
_publ_section_title
;
Crystal structure of a novel manganese(II)-substituted gallium 
phosphate, K [Mn Ga2 (P O4)3 (H2 O)2]
;
loop_
_citation_id
_citation_journal_abbrev
_citation_year
_citation_journal_volume
_citation_journal_issue
_citation_page_first
_citation_page_last
_citation_journal_id_ASTM
primary 'Zeitschrift fuer Kristallographie - New Crystal Structures'
 2010 225 4 631 632 ZKNSFT
_publ_author_name                  'Li Ping;Duan Xingchao'
_cell_length_a                     13.5336(11)
_cell_length_b                     10.1792(10)
_cell_length_c                     8.8703(7)
_cell_angle_alpha                  90.00
_cell_angle_beta                   107.9480(10)
_cell_angle_gamma                  90.00
_cell_volume                       1162.52
_cell_formula_units_Z              4
_symmetry_space_group_name_H-M     'C 1 2/c 1'
_symmetry_Int_Tables_number        15
_refine_ls_R_factor_all            .0206
loop_
_symmetry_equiv_pos_site_id
_symmetry_equiv_pos_as_xyz
  1	'x, -y, z+.5'
  2	'-x, -y, -z'
  3	'-x, y, -z+.5'
  4	'x, y, z'
  5	'x+.5, -y+.5, z+.5'
  6	'-x+.5, -y+.5, -z'
  7	'-x+.5, y+.5, -z+.5'
  8	'x+.5, y+.5, z'
loop_
_atom_type_symbol
_atom_type_oxidation_number
Ga3+	3
H1+	1
K1+	1
Mn2+	2
O2-	-2
P5+	5
loop_
_atom_site_label
_atom_site_type_symbol
_atom_site_symmetry_multiplicity
_atom_site_Wyckoff_symbol
_atom_site_fract_x
_atom_site_fract_y
_atom_site_fract_z
_atom_site_occupancy
_atom_site_attached_hydrogens
_atom_site_U_iso_or_equiv
Ga1 Ga3+ 8 f 0.17021(3) 0.42530(3) 0.06951(4) 1 0 0.00945(13) 
Mn1 Mn2+ 4 e 0.0000 0.21915(7) 0.2500 1 0 0.01325(18) 
K1 K1+ 4 e 0.0000 -0.13734(14) 0.2500 1 0 0.0527(4) 
P1 P5+ 4 e 0.0000 0.50365(11) 0.2500 1 0 0.0087(2) 
P2 P5+ 8 f 0.28960(6) 0.37398(8) -0.17819(9) 1 0 0.0100(2) 
O1 O2- 8 f 0.06951(17) 0.4078(2) 0.1942(3) 1 0 0.0132(5) 
O2 O2- 8 f 0.06027(17) 0.4046(2) -0.1172(3) 1 0 0.0137(5) 
O3 O2- 8 f 0.27263(17) 0.4535(2) -0.0413(3) 1 0 0.0139(5) 
O4 O2- 8 f 0.20697(18) 0.5884(2) 0.1634(3) 1 0 0.0131(5) 
O5 O2- 8 f 0.23323(17) 0.2724(2) 0.1614(3) 1 0 0.0139(5) 
O6 O2- 8 f 0.10197(18) 0.0983(2) 0.1832(3) 1 0 0.0186(5) 
O7 O2- 8 f -0.10537(19) 0.1947(2) 0.0009(3) 1 0 0.0248(6) 
H1 H1+ 8 f -0.1410 0.2645 -0.0255 1 0 0.030 
H2 H1+ 8 f -0.1474 0.1325 0.0000 1 0 0.030 

loop_
_atom_site_aniso_label
_atom_site_aniso_type_symbol
_atom_site_aniso_U_11
_atom_site_aniso_U_22
_atom_site_aniso_U_33
_atom_site_aniso_U_12
_atom_site_aniso_U_13
_atom_site_aniso_U_23
Ga1 Ga3+ 0.0093(2) 0.0102(2) 0.0078(2) 0.00030(13) 0.00112(15) -0.00022(12)
Mn1 Mn2+ 0.0125(4) 0.0125(3) 0.0155(4) 0.000 0.0054(3) 0.000
K1 K1+ 0.0678(11) 0.0229(7) 0.0791(12) 0.000 0.0398(10) 0.000
P1 P5+ 0.0080(5) 0.0101(6) 0.0075(5) 0.000 0.0017(4) 0.000
P2 P5+ 0.0098(4) 0.0114(4) 0.0089(4) 0.0016(3) 0.0029(3) 0.0007(3)
O1 O2- 0.0126(11) 0.0138(11) 0.0160(12) -0.0006(9) 0.0085(10) -0.0011(9)
O2 O2- 0.0121(11) 0.0161(12) 0.0087(11) -0.0011(9) -0.0029(9) 0.0020(9)
O3 O2- 0.0156(12) 0.0156(11) 0.0123(11) -0.0021(9) 0.0071(9) -0.0030(9)
O4 O2- 0.0157(12) 0.0117(11) 0.0104(11) -0.0013(9) 0.0019(9) -0.0023(9)
O5 O2- 0.0149(12) 0.0117(11) 0.0140(11) 0.0030(9) 0.0027(9) 0.0028(9)
O6 O2- 0.0134(12) 0.0195(12) 0.0245(13) 0.0005(10) 0.0082(10) -0.0033(10)
O7 O2- 0.0252(14) 0.0184(13) 0.0236(13) -0.0018(10) -0.0031(11) 0.0033(10)
#End of data_261118-ICSD


