data_48180-ICSD
#?2014 by Fachinformationszentrum Karlsruhe, and the U.S. Secretary of 
#Commerce on behalf of the United States.  All rights reserved.
_database_code_ICSD                48180
_audit_creation_date               1985/06/13
_audit_update_record               2014/08/01
_chemical_name_systematic          'Tripotassium Copper(I) Oxide'
_chemical_formula_structural       'K3 Cu O2'
_chemical_formula_sum              'Cu1 K3 O2'
_publ_section_title                'Ein neues Oxocurat(I): K3 Cu O2'
loop_
_citation_id
_citation_journal_abbrev
_citation_year
_citation_journal_volume
_citation_page_first
_citation_page_last
_citation_journal_id_ASTM
primary 'Zeitschrift fuer Anorganische und Allgemeine Chemie (1950) (DE)'
 1985 521 69 78 ZAACAB
_publ_author_name                  'Hoppe, R.;Losert, W.'
_cell_length_a                     8.594
_cell_length_b                     8.594
_cell_length_c                     13.319(2)
_cell_angle_alpha                  90.
_cell_angle_beta                   90.
_cell_angle_gamma                  90.
_cell_volume                       983.7
_cell_formula_units_Z              8
_symmetry_space_group_name_H-M     'P 41 21 2'
_symmetry_Int_Tables_number        92
_refine_ls_R_factor_all            .0688
loop_
_symmetry_equiv_pos_site_id
_symmetry_equiv_pos_as_xyz
  1	'x+.5, -y+.5, -z+.75'
  2	'-x+.5, y+.5, -z+.25'
  3	'-y, -x, -z+.5'
  4	'y, x, -z'
  5	'y+.5, -x+.5, z+.75'
  6	'-y+.5, x+.5, z+.25'
  7	'-x, -y, z+.5'
  8	'x, y, z'
loop_
_atom_type_symbol
_atom_type_oxidation_number
Cu1+	1
K1+	1
O2-	-2
loop_
_atom_site_label
_atom_site_type_symbol
_atom_site_symmetry_multiplicity
_atom_site_Wyckoff_symbol
_atom_site_fract_x
_atom_site_fract_y
_atom_site_fract_z
_atom_site_occupancy
_atom_site_attached_hydrogens
Cu1 Cu1+ 8 b 0.2628 0.2643 0.3343 1. 0 
K1 K1+ 8 b 0.5349 0.9379 0.0013 1. 0 
K2 K1+ 8 b 0.8467 0.7352 0.3933 1. 0 
K3 K1+ 4 a 0.9439 0.9439 0 1. 0 
K4 K1+ 4 a 0.5232 0.5232 0 1. 0 
O1 O2- 8 b 0.2301 0.5546 0.9198 1. 0 
O2 O2- 8 b 0.9724 0.2393 0.0835 1. 0 

loop_
_atom_site_aniso_label
_atom_site_aniso_type_symbol
_atom_site_aniso_U_11
_atom_site_aniso_U_22
_atom_site_aniso_U_33
_atom_site_aniso_U_12
_atom_site_aniso_U_13
_atom_site_aniso_U_23
Cu1 Cu1+ 0.011 0.0118 0.0152 -.0007 0.0009 -.0024
K1 K1+ 0.0157 0.0158 0.0096 0.0037 0.0055 0.0043
K2 K1+ 0.0207 0.0078 0.0309 -.0018 -.0117 -.0013
K3 K1+ 0.0097 0.0289 0.0289 -.0045 0.0045 0.0053
K4 K1+ 0.0108 0.0304 0.0304 0.0045 -.0045 0.0006
O1 O2- 0.0129 0.0116 0.0244 0.0045 0.0143 -.0032
O2 O2- 0.0121 0.0136 0.0251 0.0116 -.0074 -.0032
#End of data_48180-ICSD


