data_9914-ICSD
#?2014 by Fachinformationszentrum Karlsruhe, and the U.S. Secretary of 
#Commerce on behalf of the United States.  All rights reserved.
_database_code_ICSD                9914
_audit_creation_date               1986/10/02
_chemical_name_systematic          'Lithium Ytterbium Fluoride'
_chemical_formula_structural       'Li Yb F4'
_chemical_formula_sum              'F4 Li1 Yb1'
_publ_section_title
;
Equilibrium Relations and Crystal Structure of Lithium 
Fluorolanthanate Phases
;
loop_
_citation_id
_citation_journal_abbrev
_citation_year
_citation_journal_volume
_citation_page_first
_citation_page_last
_citation_journal_id_ASTM
primary 'Inorganic Chemistry' 1970 9 1096 1101 INOCAJ
_publ_author_name
;
Thoma, R.E.;Brunton, G.D.;Penneman, R.A.;Keenan, T.K.
;
_cell_length_a                     5.1335(2)
_cell_length_b                     5.1335(2)
_cell_length_c                     10.588(2)
_cell_angle_alpha                  90.
_cell_angle_beta                   90.
_cell_angle_gamma                  90.
_cell_volume                       279.02
_cell_formula_units_Z              4
_symmetry_space_group_name_H-M     'I 41/a Z'
_symmetry_Int_Tables_number        88
_refine_ls_R_factor_all            .031
loop_
_symmetry_equiv_pos_site_id
_symmetry_equiv_pos_as_xyz
  1	'-y+.75, x+.75, -z+.75'
  2	'y+.25, -x+.75, -z+.75'
  3	'x, y+.5, -z'
  4	'-x, -y, -z'
  5	'y+.25, -x+.25, z+.25'
  6	'-y+.75, x+.25, z+.25'
  7	'-x, -y+.5, z'
  8	'x, y, z'
  9	'-y+.25, x+.25, -z+.25'
 10	'y+.75, -x+.25, -z+.25'
 11	'x+.5, y, -z+.5'
 12	'-x+.5, -y+.5, -z+.5'
 13	'y+.75, -x+.75, z+.75'
 14	'-y+.25, x+.75, z+.75'
 15	'-x+.5, -y, z+.5'
 16	'x+.5, y+.5, z+.5'
loop_
_atom_type_symbol
_atom_type_oxidation_number
F1-	-1
Li1+	1
Yb3+	3
loop_
_atom_site_label
_atom_site_type_symbol
_atom_site_symmetry_multiplicity
_atom_site_Wyckoff_symbol
_atom_site_fract_x
_atom_site_fract_y
_atom_site_fract_z
_atom_site_occupancy
_atom_site_attached_hydrogens
Li1 Li1+ 4 a 0 0.25 0.125 1. 0 
Yb1 Yb3+ 4 b 0 0.25 0.625 1. 0 
F1 F1- 16 f 0.2166(6) 0.4161(6) 0.4564(3) 1. 0 

#End of data_9914-ICSD


