data_167293-ICSD
#?2014 by Fachinformationszentrum Karlsruhe, and the U.S. Secretary of 
#Commerce on behalf of the United States.  All rights reserved.
_database_code_ICSD                167293
_audit_creation_date               2010/08/01
_chemical_name_systematic          'Dialuminium Oxide Silicate'
_chemical_formula_structural       'Al2 O (Si O4)'
_chemical_formula_sum              'Al2 O5 Si1'
_chemical_name_mineral             Kyanite
_publ_section_title
;
Plastic deformations in kyanites by tectonometamorphic processes: a 
single-crystal X-ray diffraction study
;
loop_
_citation_id
_citation_journal_abbrev
_citation_year
_citation_journal_volume
_citation_journal_issue
_citation_page_first
_citation_page_last
_citation_journal_id_ASTM
primary 'Mineralogical Magazine (1969-)' 2009 73 3 359 371 MNLMBB
_publ_author_name
;
Gatta, G.D.;Rotiroti, N.;Zucali, M.
;
_cell_length_a                     7.1280(9)
_cell_length_b                     7.8560(8)
_cell_length_c                     5.5800(7)
_cell_angle_alpha                  89.960(9)
_cell_angle_beta                   101.140(9)
_cell_angle_gamma                  105.980(9)
_cell_volume                       294.28
_cell_formula_units_Z              4
_symmetry_space_group_name_H-M     'P -1'
_symmetry_Int_Tables_number        2
_refine_ls_R_factor_all            .0378
loop_
_symmetry_equiv_pos_site_id
_symmetry_equiv_pos_as_xyz
  1	'-x, -y, -z'
  2	'x, y, z'
loop_
_atom_type_symbol
_atom_type_oxidation_number
Al3+	3
O2-	-2
Si4+	4
loop_
_atom_site_label
_atom_site_type_symbol
_atom_site_symmetry_multiplicity
_atom_site_Wyckoff_symbol
_atom_site_fract_x
_atom_site_fract_y
_atom_site_fract_z
_atom_site_occupancy
_atom_site_attached_hydrogens
_atom_site_U_iso_or_equiv
Al1 Al3+ 2 i 0.32502(10) 0.70412(13) 0.45810(18) 1. 0 0.0094(4) 
Al2 Al3+ 2 i 0.29739(13) 0.69875(13) 0.95028(17) 1. 0 0.0083(3) 
Al3 Al3+ 2 i 0.10027(13) 0.38608(13) 0.64038(18) 1. 0 0.0086(3) 
Al4 Al3+ 2 i 0.11247(13) 0.91744(14) 0.16459(18) 1. 0 0.0091(3) 
Si1 Si4+ 2 i 0.29627(12) 0.06488(12) 0.70614(16) 1. 0 0.0086(3) 
Si2 Si4+ 2 i 0.29123(12) 0.33181(12) 0.18954(16) 1. 0 0.0091(3) 
O1 O2- 2 i 0.1094(3) 0.1466(3) 0.1286(4) 1. 0 0.0097(7) 
O2 O2- 2 i 0.1226(3) 0.6857(3) 0.1807(4) 1. 0 0.0098(7) 
O3 O2- 2 i 0.2756(3) 0.4544(3) 0.9557(4) 1. 0 0.0096(7) 
O4 O2- 2 i 0.2839(3) 0.9360(3) 0.9356(4) 1. 0 0.0098(7) 
O5 O2- 2 i 0.1092(3) 0.1522(3) 0.6675(4) 1. 0 0.0105(7) 
O6 O2- 2 i 0.1225(3) 0.6303(3) 0.6393(4) 1. 0 0.0091(7) 
O7 O2- 2 i 0.2822(3) 0.4448(3) 0.4294(4) 1. 0 0.0084(7) 
O8 O2- 2 i 0.2907(3) 0.9475(3) 0.4648(4) 1. 0 0.0095(7) 
O9 O2- 2 i 0.5005(3) 0.2753(3) 0.2439(4) 1. 0 0.0105(7) 
O10 O2- 2 i 0.5019(3) 0.2304(3) 0.7556(4) 1. 0 0.0100(8) 

loop_
_atom_site_aniso_label
_atom_site_aniso_type_symbol
_atom_site_aniso_U_11
_atom_site_aniso_U_22
_atom_site_aniso_U_33
_atom_site_aniso_U_12
_atom_site_aniso_U_13
_atom_site_aniso_U_23
Al1 Al3+ 0.0143(5) 0.0048(5) 0.0102(5) 0.0038(3) 0.0038(3) 0.0017(4)
Al2 Al3+ 0.0130(5) 0.0031(5) 0.0098(5) 0.0032(3) 0.0033(4) 0.0009(4)
Al3 Al3+ 0.0125(4) 0.0036(5) 0.0109(5) 0.0034(3) 0.0036(4) 0.0009(4)
Al4 Al3+ 0.0130(4) 0.0042(5) 0.0111(5) 0.0038(3) 0.0030(4) 0.0018(4)
Si1 Si4+ 0.0130(5) 0.0030(4) 0.0108(3) 0.0034(3) 0.0034(3) 0.0004(4)
Si2 Si4+ 0.0133(4) 0.0035(5) 0.0115(4) 0.0034(3) 0.0032(3) 0.0009(4)
O1 O2- 0.014(1) 0.005(1) 0.011(1) 0.0033(8) 0.0035(9) 0.001(1)
O2 O2- 0.013(1) 0.005(1) 0.013(1) 0.0043(8) 0.0039(9) 0.003(1)
O3 O2- 0.016(1) 0.003(1) 0.010(1) 0.0039(8) 0.0029(8) 0.0003(9)
O4 O2- 0.015(1) 0.006(1) 0.011(1) 0.0059(8) 0.0052(9) 0.003(1)
O5 O2- 0.013(1) 0.005(1) 0.015(1) 0.0036(8) 0.0051(9) 0.002(1)
O6 O2- 0.012(1) 0.005(1) 0.012(1) 0.0045(8) 0.0026(8) 0.002(1)
O7 O2- 0.013(1) 0.003(1) 0.010(1) 0.0022(8) 0.0044(8) 0.0004(9)
O8 O2- 0.013(1) 0.005(1) 0.012(1) 0.0043(8) 0.0023(8) 0.0009(9)
O9 O2- 0.012(1) 0.007(1) 0.012(1) 0.0029(8) 0.0024(9) 0.0015(9)
O10 O2- 0.013(1) 0.005(1) 0.013(1) 0.0029(8) 0.0041(9) 0.0002(9)
#End of data_167293-ICSD


