data_409742-ICSD
#?2014 by Fachinformationszentrum Karlsruhe, and the U.S. Secretary of 
#Commerce on behalf of the United States.  All rights reserved.
_database_code_ICSD                409742
_audit_creation_date               2004/10/01
_chemical_name_systematic
;
Dicesium Hexaaquazinc Bis(sulfate(VI))
;
_chemical_formula_structural       'Cs2 (Zn (H2 O)6) (S O4)2'
_chemical_formula_sum              'H12 Cs2 O14 S2 Zn1'
_publ_section_title
;
Crystal structure of Tutton's salts, Cs2 (M(II) (H2 O)6) (S O4)2, 
M(II) = Mg, Mn, Fe, Co, Ni, Zn
;
loop_
_citation_id
_citation_journal_abbrev
_citation_year
_citation_journal_volume
_citation_page_first
_citation_page_last
_citation_journal_id_ASTM
primary 'Zeitschrift fuer Kristallographie - New Crystal Structures'
 2003 218 409 413 ZKNSFT
_publ_author_name
;
Euler, H.;Barbier, B.;Meents, A.;Kirfel, A.
;
_cell_length_a                     9.314(2)
_cell_length_b                     12.817(2)
_cell_length_c                     6.369(2)
_cell_angle_alpha                  90.
_cell_angle_beta                   106.94(2)
_cell_angle_gamma                  90.
_cell_volume                       727.33
_cell_formula_units_Z              2
_symmetry_space_group_name_H-M     'P 1 21/a 1'
_symmetry_Int_Tables_number        14
_refine_ls_R_factor_all            .0188
loop_
_symmetry_equiv_pos_site_id
_symmetry_equiv_pos_as_xyz
  1	'x+.5, -y+.5, z'
  2	'-x, -y, -z'
  3	'-x+.5, y+.5, -z'
  4	'x, y, z'
loop_
_atom_type_symbol
_atom_type_oxidation_number
Cs1+	1
H1+	1
O2-	-2
S6+	6
Zn2+	2
loop_
_atom_site_label
_atom_site_type_symbol
_atom_site_symmetry_multiplicity
_atom_site_Wyckoff_symbol
_atom_site_fract_x
_atom_site_fract_y
_atom_site_fract_z
_atom_site_occupancy
_atom_site_attached_hydrogens
_atom_site_U_iso_or_equiv
Zn1 Zn2+ 2 a 0 0 0 1. 0 0.01945(13) 
S1 S6+ 4 e 0.39618(7) 0.14631(4) 0.74154(10) 1. 0 0.01862(15) 
O1 O2- 4 e 0.4175(2) 0.23687(15) 0.6126(3) 1. 0 0.0305(4) 
O2 O2- 4 e 0.5319(2) 0.08164(16) 0.8007(3) 1. 0 0.0334(4) 
O3 O2- 4 e 0.2701(2) 0.08323(15) 0.6056(3) 1. 0 0.0268(4) 
O4 O2- 4 e 0.3605(2) 0.18259(15) 0.9409(3) 1. 0 0.0291(4) 
O5 O2- 4 e 0.1607(2) 0.11061(17) 0.1606(4) 1. 0 0.0283(4) 
O6 O2- 4 e -.1702(3) 0.10834(16) 0.0125(3) 1. 0 0.0275(4) 
O7 O2- 4 e -.0027(2) -.06445(16) 0.2944(3) 1. 0 0.0241(4) 
Cs1 Cs1+ 4 e 0.127864(18) 0.355352(12) 0.35590(3) 1. 0 0.02831(11) 
H1 H1+ 4 e 0.192(4) 0.101(3) 0.261(7) 1. 0 0.033(12) 
H2 H1+ 4 e 0.227(5) 0.124(3) 0.097(6) 1. 0 0.037(9) 
H3 H1+ 4 e -.246(4) 0.098(3) -.044(6) 1. 0 0.030(10) 
H4 H1+ 4 e -.156(5) 0.172(4) -.009(7) 1. 0 0.060(13) 
H5 H1+ 4 e -.081(5) -.060(3) 0.325(6) 1. 0 0.042(10) 
H6 H1+ 4 e 0.019(6) -.125(4) 0.298(8) 1. 0 0.064(14) 

loop_
_atom_site_aniso_label
_atom_site_aniso_type_symbol
_atom_site_aniso_U_11
_atom_site_aniso_U_22
_atom_site_aniso_U_33
_atom_site_aniso_U_12
_atom_site_aniso_U_13
_atom_site_aniso_U_23
Zn1 Zn2+ 0.0186(2) 0.0206(2) 0.0192(2) -.00237(14) 0.00554(15) 0.00048(15)
S1 S6+ 0.0169(3) 0.0188(3) 0.0199(3) -.0014(2) 0.0049(2) -.0004(2)
O1 O2- 0.0413(11) 0.023(1) 0.0309(10) -.0019(8) 0.0164(9) 0.0039(7)
O2 O2- 0.0213(9) 0.0332(10) 0.0422(11) 0.0039(8) 0.0037(8) 0.0013(9)
O3 O2- 0.0220(9) 0.033(1) 0.0243(9) -.0053(8) 0.0051(7) -.0044(8)
O4 O2- 0.0361(10) 0.0295(10) 0.0232(9) -.0038(8) 0.0112(8) -.0024(8)
O5 O2- 0.0276(10) 0.0349(11) 0.0206(11) -.0112(9) 0.0045(10) 0.0000(9)
O6 O2- 0.0195(10) 0.0254(11) 0.0385(11) -.0001(8) 0.0099(9) 0.0009(9)
O7 O2- 0.026(1) 0.0237(10) 0.0251(9) 0.0013(8) 0.0114(8) 0.0019(8)
Cs1 Cs1+ 0.02959(14) 0.02848(14) 0.02806(13) 0.00057(6) 0.01029(8) 
0.00164(6)
#End of data_409742-ICSD


