data_406386-ICSD
#?2014 by Fachinformationszentrum Karlsruhe, and the U.S. Secretary of 
#Commerce on behalf of the United States.  All rights reserved.
_database_code_ICSD                406386
_audit_creation_date               1997/11/10
_audit_update_record               2008/02/01
_chemical_name_systematic          'Trizinc Borate Phosphate(V)'
_chemical_formula_structural       'Zn3 (B O3) (P O4)'
_chemical_formula_sum              'B1 O7 P1 Zn3'
_publ_section_title
;
Die Synthese und Kristallstruktur des Borat-Phosphats: alpha - Zn3 (B 
O3) (P O4)
;
loop_
_citation_id
_citation_journal_abbrev
_citation_year
_citation_journal_volume
_citation_page_first
_citation_page_last
_citation_journal_id_ASTM
primary 'Zeitschrift fuer Naturforschung, B: Chemical Sciences'
 1997 52 102 106 ZNBSEN
_publ_author_name                  'Bluhm, K.;Park, C.-H.'
_cell_length_a                     9.725(2)
_cell_length_b                     12.720(3)
_cell_length_c                     4.874(3)
_cell_angle_alpha                  90.
_cell_angle_beta                   119.8
_cell_angle_gamma                  90.
_cell_volume                       523.2
_cell_formula_units_Z              4
_symmetry_space_group_name_H-M     'C 1 m 1'
_symmetry_Int_Tables_number        8
_refine_ls_R_factor_all            .0487
loop_
_symmetry_equiv_pos_site_id
_symmetry_equiv_pos_as_xyz
  1	'x, -y, z'
  2	'x, y, z'
  3	'x+.5, -y+.5, z'
  4	'x+.5, y+.5, z'
loop_
_atom_type_symbol
_atom_type_oxidation_number
B3+	3
O2-	-2
P5+	5
Zn2+	2
loop_
_atom_site_label
_atom_site_type_symbol
_atom_site_symmetry_multiplicity
_atom_site_Wyckoff_symbol
_atom_site_fract_x
_atom_site_fract_y
_atom_site_fract_z
_atom_site_occupancy
_atom_site_attached_hydrogens
Zn1 Zn2+ 4 b -.60086(13) -.24886(8) -.2309(2) 1. 0 
Zn2 Zn2+ 4 b -.41164(14) -.10951(8) -.5405(2) 1. 0 
Zn3 Zn2+ 4 b -.93027(14) -.13609(9) -.5333(3) 1. 0 
B1 B3+ 4 b -.2687(10) -.2143(7) -.8984(19) 1. 0 
P1 P5+ 2 a -.0616(4) 0 -.1392(8) 1. 0 
P2 P5+ 2 a -.6050(4) 0 -.2311(8) 1. 0 
O1 O2- 4 b -.3966(7) -.2084(4) -.2024(13) 1. 0 
O2 O2- 4 b -.1186(7) -.2206(5) -.8514(14) 1. 0 
O3 O2- 4 b -.0093(8) -.0992(5) -.2399(16) 1. 0 
O4 O2- 4 b -.2972(7) -.2213(5) -.6475(14) 1. 0 
O5 O2- 4 b -.7027(7) 0.0998(4) -.2698(14) 1. 0 
O6 O2- 2 a -.2413(9) 0 -.2794(21) 1. 0 
O7 O2- 2 a 0.0195(11) 0 0.2237(19) 1. 0 
O8 O2- 2 a -.5570(11) 0 -.4880(21) 1. 0 
O9 O2- 2 a -.4600(11) 0 0.1002(19) 1. 0 

loop_
_atom_site_aniso_label
_atom_site_aniso_type_symbol
_atom_site_aniso_U_11
_atom_site_aniso_U_22
_atom_site_aniso_U_33
_atom_site_aniso_U_12
_atom_site_aniso_U_13
_atom_site_aniso_U_23
Zn1 Zn2+ 0.0072(4) 0.0069(3) 0.0075(3) -.0008(3) 0.0029(3) 0.0001(3)
Zn2 Zn2+ 0.0170(5) 0.0076(4) 0.0118(4) 0.0031(4) 0.0090(4) 0.0023(4)
Zn3 Zn2+ 0.0118(5) 0.0126(4) 0.0119(4) -.0017(4) 0.0047(3) -.0017(4)
B1 B3+ 0.006(3) 0.005(3) 0.004(3) -.002(2) 0.001(2) -.004(2)
P1 P5+ 0.0047(10) 0.0031(9) 0.0077(10) 0 0.0023(8) 0
P2 P5+ 0.0031(10) 0.0049(9) 0.0063(10) 0 0.0008(8) 0
O1 O2- 0.008(2) 0.008(2) 0.003(2) -.002(2) 0.001(2) 0.003(2)
O2 O2- 0.006(2) 0.012(2) 0.009(2) -.006(2) 0.004(2) -.004(2)
O3 O2- 0.020(3) 0.007(2) 0.016(3) -.003(2) 0.013(2) -.002(2)
O4 O2- 0.009(2) 0.011(2) 0.007(2) 0.005(2) 0.005(2) 0.004(2)
O5 O2- 0.007(2) 0.003(2) 0.017(3) 0.002(2) 0.005(2) -.002(2)
O6 O2- 0.003(3) 0.003(3) 0.016(4) 0 0.001(3) 0
O7 O2- 0.020(4) 0.005(3) 0.007(3) 0 0.005(3) 0
O8 O2- 0.012(3) 0.013(4) 0.011(3) 0 0.007(3) 0
O9 O2- 0.014(4) 0.009(3) 0.006(3) 0 0.001(3) 0
#End of data_406386-ICSD


