data_246110-ICSD
#?2014 by Fachinformationszentrum Karlsruhe, and the U.S. Secretary of 
#Commerce on behalf of the United States.  All rights reserved.
_database_code_ICSD                246110
_audit_creation_date               2009/02/01
_audit_update_record               2013/02/01
_chemical_name_systematic          'Dibarium Calcium Hexaoxouranate'
_chemical_formula_structural       'Ba2 Ca U O6'
_chemical_formula_sum              'Ba2 Ca1 O6 U1'
_chemical_name_mineral             'Perovskite, double'
_publ_section_title
;
Crystal structures and chemistry of double perovskites Ba2 M(II) 
M'(VI) O6 (M = Ca, Sr, M' = Te, W, U)
;
loop_
_citation_id
_citation_journal_abbrev
_citation_year
_citation_journal_volume
_citation_journal_issue
_citation_page_first
_citation_page_last
_citation_journal_id_ASTM
primary 'Journal of Solid State Chemistry' 2008 181 9 2523 2529 JSSCBI
_publ_author_name
;
Fu, W.T.;Au, Y.S.;Akerboom, S.;Ijdo, D.J.W.
;
_cell_length_a                     6.16146(7)
_cell_length_b                     6.11877(7)
_cell_length_c                     8.6975(1)
_cell_angle_alpha                  90
_cell_angle_beta                   90.1005(7)
_cell_angle_gamma                  90
_cell_volume                       327.9
_cell_formula_units_Z              2
_symmetry_space_group_name_H-M     'P 1 21/n 1'
_symmetry_Int_Tables_number        14
_refine_ls_R_factor_all            .1313
loop_
_symmetry_equiv_pos_site_id
_symmetry_equiv_pos_as_xyz
  1	'-x+.5, y+.5, -z+.5'
  2	'-x, -y, -z'
  3	'x+.5, -y+.5, z+.5'
  4	'x, y, z'
loop_
_atom_type_symbol
_atom_type_oxidation_number
Ba2+	2
Ca2+	2
O2-	-2
U6+	6
loop_
_atom_site_label
_atom_site_type_symbol
_atom_site_symmetry_multiplicity
_atom_site_Wyckoff_symbol
_atom_site_fract_x
_atom_site_fract_y
_atom_site_fract_z
_atom_site_occupancy
_atom_site_attached_hydrogens
_atom_site_B_iso_or_equiv
Ba1 Ba2+ 4 e 0.4966(5) 0.4880(2) 0.2496(2) 1. 0 0.46(2) 
Ca1 Ca2+ 2 d 0.5 0 0 1. 0 1.09(9) 
U1 U6+ 2 c 0 0.5 0 1. 0 0.08(1) 
O1 O2- 4 e 0.215(2) 0.235(2) 0.035(2) 1. 0 0.60(48) 
O2 O2- 4 e 0.251(2) 0.723(2) 0.028(2) 1. 0 0.95(46) 
O3 O2- 4 e 0.576(1) 0.012(2) 0.267(1) 1. 0 0.65(22) 

#End of data_246110-ICSD


