data_421738-ICSD
#?2014 by Fachinformationszentrum Karlsruhe, and the U.S. Secretary of 
#Commerce on behalf of the United States.  All rights reserved.
_database_code_ICSD                421738
_audit_creation_date               2011/02/01
_chemical_name_systematic
;
Rubidium Magnesium Phosphate(V) - Gamma
;
_chemical_formula_structural       'Rb Mg P O4'
_chemical_formula_sum              'Mg1 O4 P1 Rb1'
_publ_section_title
;
Polymorphism of new rubidium magnesium monophosphate
;
loop_
_citation_id
_citation_journal_abbrev
_citation_year
_citation_journal_volume
_citation_journal_issue
_citation_page_first
_citation_page_last
_citation_journal_id_ASTM
primary 'Journal of Solid State Chemistry' 2010 183 9 2082 2086 JSSCBI
_publ_author_name
;
Benhamou, R.A.;Wallez, G.;Loiseau, P.;Viana, B.;Elaatmani, M.;Daoud, 
M.;Zegzouti, A.
;
_cell_length_a                     8.7907(3)
_cell_length_b                     5.4059(1)
_cell_length_c                     9.3949(3)
_cell_angle_alpha                  90
_cell_angle_beta                   90
_cell_angle_gamma                  90
_cell_volume                       446.46
_cell_formula_units_Z              4
_symmetry_space_group_name_H-M     'P n m a'
_symmetry_Int_Tables_number        62
_refine_ls_R_factor_all            .08
loop_
_symmetry_equiv_pos_site_id
_symmetry_equiv_pos_as_xyz
  1	'x+.5, y, -z+.5'
  2	'x, -y+.5, z'
  3	'-x+.5, y+.5, z+.5'
  4	'-x, -y, -z'
  5	'-x+.5, -y, z+.5'
  6	'-x, y+.5, -z'
  7	'x+.5, -y+.5, -z+.5'
  8	'x, y, z'
loop_
_atom_type_symbol
_atom_type_oxidation_number
Mg2+	2
O2-	-2
P5+	5
Rb1+	1
loop_
_atom_site_label
_atom_site_type_symbol
_atom_site_symmetry_multiplicity
_atom_site_Wyckoff_symbol
_atom_site_fract_x
_atom_site_fract_y
_atom_site_fract_z
_atom_site_occupancy
_atom_site_attached_hydrogens
_atom_site_U_iso_or_equiv
Rb1 Rb1+ 4 c -0.0019(4) 0.25000 0.30667(13) 1.00000 0 0.0476(5) 
P1 P5+ 4 c 0.2996(3) 0.75000 0.4110(4) 1.00000 0 0.0264(12) 
Mg1 Mg2+ 4 c 0.3272(6) 0.25000 0.5785(7) 1.00000 0 0.068(2) 
O1 O2- 4 c 0.2050(15) 0.75000 0.2733(10) 1.00000 0 0.163(6) 
O2 O2- 4 c 0.4728(5) 0.75000 0.4111(12) 1.00000 0 0.169(5) 
O3 O2- 8 d 0.2348(5) 0.9821(11) 0.4807(8) 1.00000 0 0.068(2) 

#End of data_421738-ICSD


