data_40035-ICSD
#?2014 by Fachinformationszentrum Karlsruhe, and the U.S. Secretary of 
#Commerce on behalf of the United States.  All rights reserved.
_database_code_ICSD                40035
_audit_creation_date               1998/06/26
_audit_update_record               2006/04/01
_chemical_name_systematic          'Calcium Titanium Oxide Silicate'
_chemical_formula_structural       'Ca Ti O (Si O4)'
_chemical_formula_sum              'Ca1 O5 Si1 Ti1'
_chemical_name_mineral             'Titanite (Al-rich)'
_publ_section_title
;
The crystal structure of an Al-rich titanite from Grisons, 
Switzerland
;
loop_
_citation_id
_citation_journal_abbrev
_citation_year
_citation_journal_volume
_citation_page_first
_citation_page_last
_citation_journal_id_ASTM
primary 'American Mineralogist' 1984 69 725 732 AMMIAY
2 'Golden Book of Phase Transitions, Wroclaw' 2002 1 1 123 GBOPT5
_publ_author_name                  'Hollabaugh, C.L.;Foit, F.F.jr.'
_cell_length_a                     7.050(3)
_cell_length_b                     8.681(4)
_cell_length_c                     6.539(2)
_cell_angle_alpha                  90.
_cell_angle_beta                   113.90(3)
_cell_angle_gamma                  90.
_cell_volume                       365.88
_cell_formula_units_Z              4
_symmetry_space_group_name_H-M     'P 1 21/a 1'
_symmetry_Int_Tables_number        14
_refine_ls_R_factor_all            .085
loop_
_symmetry_equiv_pos_site_id
_symmetry_equiv_pos_as_xyz
  1	'x+.5, -y+.5, z'
  2	'-x, -y, -z'
  3	'-x+.5, y+.5, -z'
  4	'x, y, z'
loop_
_atom_type_symbol
_atom_type_oxidation_number
Ca2+	2
O2-	-2
Si4+	4
Ti4+	4
loop_
_atom_site_label
_atom_site_type_symbol
_atom_site_symmetry_multiplicity
_atom_site_Wyckoff_symbol
_atom_site_fract_x
_atom_site_fract_y
_atom_site_fract_z
_atom_site_occupancy
_atom_site_attached_hydrogens
_atom_site_B_iso_or_equiv
Ca1 Ca2+ 4 e 0.2327(3) 0.9172(1) 0.7545(3) 1. 0 0.44(1) 
Ti1 Ti4+ 4 e 0.5149(2) 0.7541(2) 0.2493(3) 1. 0 0.31(1) 
Si1 Si4+ 4 e 0.7562(7) 0.9327(1) 0.7570(7) 1. 0 0.32(1) 
O1 O2- 4 e 0.7465(14) 0.8213(4) 0.2362(10) 1. 0 0.38(4) 
O2 O2- 4 e 0.9209(11) 0.8231(8) 0.9376(13) 1. 0 0.58(7) 
O3 O2- 4 e 0.3837(14) 0.9652(10) 0.14213(14) 1. 0 0.52(8) 
O4 O2- 4 e 0.901(1) 0.3109(7) 0.4345(11) 1. 0 0.22(5) 
O5 O2- 4 e 0.3798(14) 0.4562(10) 0.6523(14) 1. 0 0.35(8) 

#End of data_40035-ICSD


