data_73184-ICSD
#?2014 by Fachinformationszentrum Karlsruhe, and the U.S. Secretary of 
#Commerce on behalf of the United States.  All rights reserved.
_database_code_ICSD                73184
_audit_creation_date               1994/06/30
_audit_update_record               2000/07/15
_chemical_name_systematic          'Calcium Bismuth Vanadate'
_chemical_formula_structural       'Ca Bi (V O5)'
_chemical_formula_sum              'Bi1 Ca1 O5 V1'
_publ_section_title
;
Synthese und Kristallstruktur von Ca Bi V O5
;
loop_
_citation_id
_citation_journal_abbrev
_citation_year
_citation_journal_volume
_citation_page_first
_citation_page_last
_citation_journal_id_ASTM
primary 'Zeitschrift fuer Anorganische und Allgemeine Chemie (1950) (DE)'
 1993 619 521 524 ZAACAB
_publ_author_name                  'Boje, J.;Mueller Buschbaum, H.'
_cell_length_a                     11.2022(25)
_cell_length_b                     5.4283(15)
_cell_length_c                     15.5605(19)
_cell_angle_alpha                  90.
_cell_angle_beta                   90.
_cell_angle_gamma                  90.
_cell_volume                       946.22
_cell_formula_units_Z              8
_symmetry_space_group_name_H-M     'P b c a'
_symmetry_Int_Tables_number        61
_refine_ls_R_factor_all            .062
loop_
_symmetry_equiv_pos_site_id
_symmetry_equiv_pos_as_xyz
  1	'x+.5, y, -z+.5'
  2	'x, -y+.5, z+.5'
  3	'-x+.5, y+.5, z'
  4	'-x, -y, -z'
  5	'-x+.5, -y, z+.5'
  6	'-x, y+.5, -z+.5'
  7	'x+.5, -y+.5, -z'
  8	'x, y, z'
loop_
_atom_type_symbol
_atom_type_oxidation_number
Bi3+	3
Ca2+	2
O2-	-2
V5+	5
loop_
_atom_site_label
_atom_site_type_symbol
_atom_site_symmetry_multiplicity
_atom_site_Wyckoff_symbol
_atom_site_fract_x
_atom_site_fract_y
_atom_site_fract_z
_atom_site_occupancy
_atom_site_attached_hydrogens
_atom_site_B_iso_or_equiv
Ca1 Ca2+ 8 c 0.1402(3) 0.0067(5) 0.4461(2) 1. 0 0.75(5) 
Bi1 Bi3+ 8 c 0.1535(1) 0.0407(1) 0.7662 1. 0 0.73(1) 
V1 V5+ 8 c 0.9040(2) 0.9878(5) 0.9019(2) 1. 0 0.62(3) 
O1 O2- 8 c 0.524(1) 0.167(2) 0.623(1) 1. 0 1.34(16) 
O2 O2- 8 c 0.270(1) 0.252(2) 0.844(1) 1. 0 0.95(16) 
O3 O2- 8 c 0.175(1) 0.455(2) 0.694(1) 1. 0 1.26(16) 
O4 O2- 8 c 0.315(1) 0.122(2) 0.523(1) 1. 0 1.18(16) 
O5 O2- 8 c 0.048(1) 0.296(2) 0.069(1) 1. 0 1.11(16) 

#End of data_73184-ICSD


