data_66528-ICSD
#?2014 by Fachinformationszentrum Karlsruhe, and the U.S. Secretary of 
#Commerce on behalf of the United States.  All rights reserved.
_database_code_ICSD                66528
_audit_creation_date               1994/01/19
_audit_update_record               2012/02/01
_chemical_name_systematic
;
Nonapotassium Bismuth Hexauranium Oxide
;
_chemical_formula_structural       'K9 Bi U6 O24'
_chemical_formula_sum              'Bi1 K9 O24 U6'
_publ_section_title                'Structure de K9 Bi U6 O24'
loop_
_citation_id
_citation_journal_abbrev
_citation_year
_citation_journal_volume
_citation_page_first
_citation_page_last
_citation_journal_id_ASTM
primary 'Acta Crystallographica, Section C: Crystal Structure Communications'
 1991 47 2278 2279 ACSCEE
_publ_author_name
;
Gasperin, M.;Rebizant, J.;Dancausse, J.;Meyer, D.;Cousson, A.
;
_cell_length_a                     8.631(1)
_cell_length_b                     8.631(1)
_cell_length_c                     8.631(1)
_cell_angle_alpha                  90.
_cell_angle_beta                   90.
_cell_angle_gamma                  90.
_cell_volume                       642.96
_cell_formula_units_Z              1
_symmetry_space_group_name_H-M     'P m -3 m'
_symmetry_Int_Tables_number        221
_refine_ls_R_factor_all            .047
loop_
_symmetry_equiv_pos_site_id
_symmetry_equiv_pos_as_xyz
  1	'z, y, -x'
  2	'y, x, -z'
  3	'x, z, -y'
  4	'z, x, -y'
  5	'y, z, -x'
  6	'x, y, -z'
  7	'z, -y, x'
  8	'y, -x, z'
  9	'x, -z, y'
 10	'z, -x, y'
 11	'y, -z, x'
 12	'x, -y, z'
 13	'-z, y, x'
 14	'-y, x, z'
 15	'-x, z, y'
 16	'-z, x, y'
 17	'-y, z, x'
 18	'-x, y, z'
 19	'-z, -y, -x'
 20	'-y, -x, -z'
 21	'-x, -z, -y'
 22	'-z, -x, -y'
 23	'-y, -z, -x'
 24	'-x, -y, -z'
 25	'-z, -y, x'
 26	'-y, -x, z'
 27	'-x, -z, y'
 28	'-z, -x, y'
 29	'-y, -z, x'
 30	'-x, -y, z'
 31	'-z, y, -x'
 32	'-y, x, -z'
 33	'-x, z, -y'
 34	'-z, x, -y'
 35	'-y, z, -x'
 36	'-x, y, -z'
 37	'z, -y, -x'
 38	'y, -x, -z'
 39	'x, -z, -y'
 40	'z, -x, -y'
 41	'y, -z, -x'
 42	'x, -y, -z'
 43	'z, y, x'
 44	'y, x, z'
 45	'x, z, y'
 46	'z, x, y'
 47	'y, z, x'
 48	'x, y, z'
loop_
_atom_type_symbol
_atom_type_oxidation_number
Bi3+	3
K1+	1
O2-	-2
U6+	6
loop_
_atom_site_label
_atom_site_type_symbol
_atom_site_symmetry_multiplicity
_atom_site_Wyckoff_symbol
_atom_site_fract_x
_atom_site_fract_y
_atom_site_fract_z
_atom_site_occupancy
_atom_site_attached_hydrogens
U1 U6+ 3 d 0.5 0 0 1. 0 
U2 U6+ 3 c 0 0.5 0.5 1. 0 
Bi1 Bi3+ 1 b 0.5 0.5 0.5 1. 0 
K1 K1+ 8 g 0.2478(3) 0.2478(3) 0.2478(3) 1. 0 
O1 O2- 12 h 0.5 0 0.254(1) 1. 0 
O2 O2- 6 f 0.5 0.232(2) 0.5 1. 0 
O3 O2- 6 e 0.282(2) 0 0 1. 0 
K2 K1+ 1 a 0 0 0 1. 0 

loop_
_atom_site_aniso_label
_atom_site_aniso_type_symbol
_atom_site_aniso_B_11
_atom_site_aniso_B_22
_atom_site_aniso_B_33
_atom_site_aniso_B_12
_atom_site_aniso_B_13
_atom_site_aniso_B_23
U1 U6+ 0.70(5) 0.41(3) 0.41(3) 0 0 0
U2 U6+ 0.51(5) 0.37(3) 0.37(3) 0 0 0
Bi1 Bi3+ 0.89(4) 0.89(4) 0.89(4) 0 0 0
K1 K1+ 1.5(1) 1.5(1) 1.5(1) 0.2(1) 0.2(1) 0.2(1)
O1 O2- 1.6(5) 1.7(5) 0.8(5) 0 0 0
O2 O2- 1.4(5) 0.9(8) 1.4(5) 0 0 0
O3 O2- 1.0(7) 1.8(5) 1.8(5) 0 0 0
K2 K1+ 2.7(4) 2.7(4) 2.7(4) 0 0 0
#End of data_66528-ICSD


