data_40245-ICSD
#?2014 by Fachinformationszentrum Karlsruhe, and the U.S. Secretary of 
#Commerce on behalf of the United States.  All rights reserved.
_database_code_ICSD                40245
_audit_creation_date               1999/11/30
_chemical_name_systematic          'Lithium Bismuth Oxide (3/1/3)'
_chemical_formula_structural       'Li3 Bi O3'
_chemical_formula_sum              'Bi1 Li3 O3'
_publ_section_title                'Die Kristallstruktur von Li3 Bi O3'
loop_
_citation_id
_citation_journal_abbrev
_citation_year
_citation_journal_volume
_citation_page_first
_citation_page_last
_citation_journal_id_ASTM
primary 'Zeitschrift fuer Anorganische und Allgemeine Chemie (1950) (DE)'
 1989 576 169 178 ZAACAB
_publ_author_name                  'Hoppe, R.;Huebenthal, R.'
_cell_length_a                     9.0238(35)
_cell_length_b                     9.7302(48)
_cell_length_c                     9.2353(46)
_cell_angle_alpha                  114.069(38)
_cell_angle_beta                   89.291(36)
_cell_angle_gamma                  107.504(35)
_cell_volume                       700.42
_cell_formula_units_Z              8
_symmetry_space_group_name_H-M     'P -1'
_symmetry_Int_Tables_number        2
_refine_ls_R_factor_all            .0786
loop_
_symmetry_equiv_pos_site_id
_symmetry_equiv_pos_as_xyz
  1	'-x, -y, -z'
  2	'x, y, z'
loop_
_atom_type_symbol
_atom_type_oxidation_number
Bi3+	3
Li1+	1
O2-	-2
loop_
_atom_site_label
_atom_site_type_symbol
_atom_site_symmetry_multiplicity
_atom_site_Wyckoff_symbol
_atom_site_fract_x
_atom_site_fract_y
_atom_site_fract_z
_atom_site_occupancy
_atom_site_attached_hydrogens
_atom_site_U_iso_or_equiv
Li1 Li1+ 2 i 0.3473(32) 0.6537(32) 0.8880(32) 1. 0 0.0242(39) 
Li2 Li1+ 2 i 0.5174(31) 0.0485(31) 0.7192(31) 1. 0 0.0229(39) 
Li3 Li1+ 2 i 0.6921(31) 0.4127(31) 0.8554(31) 1. 0 0.0223(39) 
Li4 Li1+ 2 i 0.9077(31) 0.5093(31) 0.0888(31) 1. 0 0.0221(39) 
Li5 Li1+ 2 i 0.6751(31) 0.8478(31) 0.4734(32) 1. 0 0.0235(39) 
Li6 Li1+ 2 i 0.4853(35) 0.4534(35) 0.7247(36) 1. 0 0.0377(42) 
Li7 Li1+ 2 i 0.8491(31) 0.6480(31) 0.3827(31) 1. 0 0.0213(38) 
Li8 Li1+ 2 i 0.5025(29) 0.8943(29) 0.8775(29) 1. 0 0.0142(36) 
Li9 Li1+ 2 i 0.0768(30) 0.9167(30) 0.4842(30) 1. 0 0.0189(38) 
Li10 Li1+ 2 i 0.4142(33) 0.6281(33) 0.5745(34) 1. 0 0.0302(41) 
Li11 Li1+ 2 i 0.9260(36) 0.4497(36) 0.6592(36) 1. 0 0.0422(43) 
Li12 Li1+ 2 i 0.3101(39) 0.7877(38) 0.4531(39) 1. 0 0.0541(44) 
Bi1 Bi3+ 2 i 0.1589(1) 0.8612(1) 0.1559(1) 1. 0 0 
Bi2 Bi3+ 2 i 0.7457(1) 0.6952(1) 0.7125(1) 1. 0 0 
Bi3 Bi3+ 2 i 0.2766(1) 0.2288(1) 0.8557(1) 1. 0 0 
Bi4 Bi3+ 2 i 0.1606(1) 0.8017(1) 0.7440(1) 1. 0 0 
O1 O2- 2 i 0.1382(16) 0.5849(16) 0.7503(15) 1. 0 0 
O2 O2- 2 i 0.8762(16) 0.8601(16) 0.3532(18) 1. 0 0 
O3 O2- 2 i 0.4690(16) 0.3188(18) 0.2064(17) 1. 0 0 
O4 O2- 2 i 0.2810(17) 0.9482(17) 0.3760(17) 1. 0 0 
O5 O2- 2 i 0.3682(16) 0.8796(17) 0.0487(17) 1. 0 0 
O6 O2- 2 i 0.6515(18) 0.6398(18) 0.4846(18) 1. 0 0 
O7 O2- 2 i 0.3765(16) 0.8413(16) 0.6672(17) 1. 0 0 
O8 O2- 2 i 0.7135(16) 0.4624(16) 0.6625(17) 1. 0 0 
O9 O2- 2 i 0.1127(15) 0.6309(15) 0.1331(17) 1. 0 0 
O10 O2- 2 i 0.5328(15) 0.7636(16) 0.2706(16) 1. 0 0 
O11 O2- 2 i 0.0481(18) 0.7249(18) 0.5188(18) 1. 0 0 
O12 O2- 2 i 0.7013(17) 0.5398(18) 0.0862(19) 1. 0 0 

loop_
_atom_site_aniso_label
_atom_site_aniso_type_symbol
_atom_site_aniso_U_11
_atom_site_aniso_U_22
_atom_site_aniso_U_33
_atom_site_aniso_U_12
_atom_site_aniso_U_13
_atom_site_aniso_U_23
Bi1 Bi3+ 0.0153(3) 0.0197(3) 0.0163(3) 0.0069(3) 0.0023(3) 0.0063(3)
Bi2 Bi3+ 0.0138(3) 0.0198(3) 0.0159(3) 0.0051(3) 0.0012(2) 0.0053(3)
Bi3 Bi3+ 0.0172(3) 0.0188(3) 0.0156(3) 0.0063(3) 0.0010(3) 0.0063(3)
Bi4 Bi3+ 0.0154(3) 0.0200(3) 0.0167(3) 0.0064(3) 0.0013(3) 0.0067(3)
O1 O2- 0.0226(37) 0.0199(36) 0.0099(35) 0.0112(33) -.0147(33) -.0062(32)
O2 O2- 0.0175(37) 0.0165(36) 0.0345(40) 0.0041(33) 0.0080(36) 0.0032(35)
O3 O2- 0.0162(37) 0.0284(39) 0.0260(39) 0.0082(34) 0.0106(34) 0.0051(35)
O4 O2- 0.0259(38) 0.0215(37) 0.0250(38) 0.0122(33) 0.0055(36) 0.0093(33)
O5 O2- 0.0194(38) 0.0264(38) 0.0264(38) 0.0031(34) 0.0122(34) 0.0118(34)
O6 O2- 0.0273(39) 0.0278(39) 0.0266(39) 0.0135(35) 0.0076(36) 0.0049(36)
O7 O2- 0.0197(37) 0.0207(36) 0.0244(38) 0.0076(33) 0.0001(34) 0.0105(33)
O8 O2- 0.0154(36) 0.0162(36) 0.0286(39) 0.0039(32) -.0035(34) 0.0077(33)
O9 O2- 0.0107(36) 0.0072(34) 0.0269(39) 0.0048(32) 0.0065(34) 0.0074(34)
O10 O2- 0.0149(36) 0.0190(36) 0.0210(38) 0.0038(33) -.0039(34) 0.0032(33)
O11 O2- 0.0300(39) 0.0269(38) 0.0289(39) 0.0160(34) -.0022(36) 0.0113(34)
O12 O2- 0.0251(38) 0.0265(37) 0.0323(40) 0.0149(34) 0.0054(36) 0.0132(34)
#End of data_40245-ICSD


