data_2131-ICSD
#?2014 by Fachinformationszentrum Karlsruhe, and the U.S. Secretary of 
#Commerce on behalf of the United States.  All rights reserved.
_database_code_ICSD                2131
_audit_creation_date               1980/01/01
_audit_update_record               2012/08/01
_chemical_name_systematic          'Potassium Tecto-31-oxo-19-borate'
_chemical_formula_structural       'K5 B19 O31'
_chemical_formula_sum              'B19 K5 O31'
_publ_section_title
;
The crystal structure of pentapotassium enneakaidekaborate, (K2 O)5 
(B2 O3)19
;
loop_
_citation_id
_citation_journal_abbrev
_citation_year
_citation_journal_volume
_citation_page_first
_citation_page_last
_citation_journal_id_ASTM
primary 'Acta Crystallographica B (24,1968-38,1982)' 1974 30 1827 1832 ACBCAR
_publ_author_name                  'Krogh-Moe, J.'
_cell_length_a                     17.888(2)
_cell_length_b                     11.479(2)
_cell_length_c                     12.973(2)
_cell_angle_alpha                  90.
_cell_angle_beta                   95.52(1)
_cell_angle_gamma                  90.
_cell_volume                       2651.48
_cell_formula_units_Z              4
_symmetry_space_group_name_H-M     'C 1 2/c 1'
_symmetry_Int_Tables_number        15
_refine_ls_R_factor_all            .03
loop_
_symmetry_equiv_pos_site_id
_symmetry_equiv_pos_as_xyz
  1	'x, -y, z+.5'
  2	'-x, -y, -z'
  3	'-x, y, -z+.5'
  4	'x, y, z'
  5	'x+.5, -y+.5, z+.5'
  6	'-x+.5, -y+.5, -z'
  7	'-x+.5, y+.5, -z+.5'
  8	'x+.5, y+.5, z'
loop_
_atom_type_symbol
_atom_type_oxidation_number
B3+	3
K1+	1
O2-	-2
loop_
_atom_site_label
_atom_site_type_symbol
_atom_site_symmetry_multiplicity
_atom_site_Wyckoff_symbol
_atom_site_fract_x
_atom_site_fract_y
_atom_site_fract_z
_atom_site_occupancy
_atom_site_attached_hydrogens
K1 K1+ 8 f 0.16416(2) 0.45610(4) 0.19611(3) 1. 0 
K2 K1+ 8 f 0.32477(2) 0.26876(4) 0.33243(3) 1. 0 
K3 K1+ 4 a 0 0 0 1. 0 
O1 O2- 8 f 0.38887(5) 0.49123(9) 0.33223(8) 1. 0 
O2 O2- 8 f 0.08684(5) 0.11377(9) 0.30914(8) 1. 0 
O3 O2- 8 f 0.20182(5) 0.13754(9) 0.23162(8) 1. 0 
O4 O2- 8 f 0.1494(5) 0.13634(9) 0.0544(8) 1. 0 
O5 O2- 8 f 0.26955(5) 0.45204(9) 0.05709(8) 1. 0 
O6 O2- 8 f 0.26297(5) 0.48578(9) 0.38048(8) 1. 0 
O7 O2- 8 f 0.08667(5) 0.42095(9) 0.36406(8) 1. 0 
O8 O2- 8 f 0.02328(5) 0.38306(9) 0.05034(9) 1. 0 
O9 O2- 8 f 0.08612(5) 0.26616(9) 0.49202(8) 1. 0 
O10 O2- 8 f 0.31465(5) 0.09811(9) 0.49803(8) 1. 0 
O11 O2- 4 e 0 0.96934(9) 0.25 1. 0 
O12 O2- 8 f 0.17457(5) 0.26533(9) 0.36157(8) 1. 0 
O13 O2- 8 f 0.35774(5) 0.31658(9) 0.12547(8) 1. 0 
O14 O2- 8 f 0.47740(5) 0.27373(9) 0.06899(8) 1. 0 
O15 O2- 8 f 0.43329(5) 0.18112(9) 0.21765(8) 1. 0 
O16 O2- 8 f 0.47649(5) 0.03853(9) 0.33476(8) 1. 0 
B1 B3+ 8 f 0.17640(9) 0.06401(15) 0.14337(13) 1. 0 
B2 B3+ 8 f 0.06760(9) 0.02481(15) 0.24090(13) 1. 0 
B3 B3+ 8 f 0.15439(9) 0.17271(15) 0.30182(13) 1. 0 
B4 B3+ 8 f 0.32680(9) 0.37602(15) 0.03951(13) 1. 0 
B5 B3+ 8 f 0.23818(9) 0.47702(15) 0.47603(13) 1. 0 
B6 B3+ 8 f 0.13208(9) 0.33756(15) 0.42846(13) 1. 0 
B7 B3+ 8 f 0.01455(9) 0.29478(15) 0.50453(13) 1. 0 
B8 B3+ 8 f 0.01568(9) 0.44983(15) 0.38214(13) 1. 0 
B9 B3+ 8 f 0.42428(9) 0.25268(5) 0.13623(13) 1. 0 
B10 B3+ 4 e 0 0.60911(15) 0.25 1. 0 

#End of data_2131-ICSD


