data_171827-ICSD
#?2014 by Fachinformationszentrum Karlsruhe, and the U.S. Secretary of 
#Commerce on behalf of the United States.  All rights reserved.
_database_code_ICSD                171827
_audit_creation_date               2006/10/01
_chemical_name_systematic
;
Calcium Dialuminium Disilicate Dihydroxide Hydrate
;
_chemical_formula_structural       'Ca Al2 (Si2 O7) (O H)2 (H2 O)'
_chemical_formula_sum              'H4 Al2 Ca1 O10 Si2'
_chemical_name_mineral             Lawsonite
_publ_section_title
;
Ordering and elasticity associated with low-temperature phase 
transitions in lawsonite
;
loop_
_citation_id
_citation_journal_abbrev
_citation_year
_citation_journal_volume
_citation_page_first
_citation_page_last
_citation_journal_id_ASTM
primary 'American Mineralogist' 2005 90 448 456 AMMIAY
_publ_author_name
;
Sondergeld, P.;Schranz, W.;Troester, A.;Armbruster, T.;Giester, 
G.;Kityk, A.;Carpenter, M.A.
;
_cell_length_a                     5.8515(3)
_cell_length_b                     8.7768(4)
_cell_length_c                     13.1107(6)
_cell_angle_alpha                  90.
_cell_angle_beta                   90.
_cell_angle_gamma                  90.
_cell_volume                       673.33
_cell_formula_units_Z              4
_symmetry_space_group_name_H-M     'P m c n'
_symmetry_Int_Tables_number        62
_refine_ls_R_factor_all            .0322
loop_
_symmetry_equiv_pos_site_id
_symmetry_equiv_pos_as_xyz
  1	'x, -y+.5, z+.5'
  2	'-x+.5, y, z'
  3	'x+.5, y+.5, -z+.5'
  4	'-x, -y, -z'
  5	'-x, y+.5, -z+.5'
  6	'x+.5, -y, -z'
  7	'-x+.5, -y+.5, z+.5'
  8	'x, y, z'
loop_
_atom_type_symbol
_atom_type_oxidation_number
Al3+	3
Ca2+	2
H1+	1
O2-	-2
Si4+	4
loop_
_atom_site_label
_atom_site_type_symbol
_atom_site_symmetry_multiplicity
_atom_site_Wyckoff_symbol
_atom_site_fract_x
_atom_site_fract_y
_atom_site_fract_z
_atom_site_occupancy
_atom_site_attached_hydrogens
_atom_site_U_iso_or_equiv
Ca1 Ca2+ 4 c -0.25 0.08243(1) 0.25072(1) 1. 0 0.00745(2) 
Al1 Al3+ 4 a 0 0 0.0 1. 0 0.00413(3) 
Al2 Al3+ 4 b 0 0 0.5 1. 0 0.00383(3) 
Si1 Si4+ 4 c -0.25 0.73045(1) 0.13204(1) 1. 0 0.00417(2) 
Si2 Si4+ 4 c -0.25 0.72888(1) 0.36585(1) 1. 0 0.00416(2) 
O1 O2- 4 c -0.25 -0.20029(4) 0.24903(2) 1. 0 0.00699(6) 
O2 O2- 8 d 0.02482(4) 0.12460(2) 0.11933(1) 1. 0 0.00705(4) 
O3 O2- 8 d 0.02177(4) 0.12994(2) 0.38419(1) 1. 0 0.00608(4) 
O4 O2- 4 c -0.25 -0.11264(3) 0.06351(2) 1. 0 0.00562(6) 
O5 O2- 4 c -0.25 -0.11408(3) 0.43419(2) 1. 0 0.00576(6) 
O6 O2- 4 c -0.25 0.39019(3) 0.05069(2) 1. 0 0.00593(6) 
O7 O2- 4 c -0.25 0.38476(4) 0.45762(2) 1. 0 0.00739(7) 
O8 O2- 4 c -0.25 0.35880(5) 0.24857(2) 1. 0 0.01533(9) 
H1 H1+ 4 c -0.25 0.3920(8) 0.1849(6) 1. 0 0.037(2) 
H2 H1+ 4 c -0.25 0.431(1) 0.2870(7) 1. 0 0.046(2) 
H3 H1+ 4 c -0.25 0.2895(9) 0.0386(6) 1. 0 0.047(2) 
H4 H1+ 4 c -0.25 0.3138(14) 0.4245(9) 1. 0 0.104(4) 

#End of data_171827-ICSD


