data_100116-ICSD
#?2014 by Fachinformationszentrum Karlsruhe, and the U.S. Secretary of 
#Commerce on behalf of the United States.  All rights reserved.
_database_code_ICSD                100116
_audit_creation_date               1980/01/01
_audit_update_record               2003/10/01
_chemical_name_systematic          'Potassium Tricyanatomercurate'
_chemical_formula_structural       'K (Hg (N C O)3)'
_chemical_formula_sum              'C3 Hg1 K1 N3 O3'
_publ_section_title
;
Ueber die Tricyanomercurate K Hg (N C O)3 und Rb Hg (N C O)3. 
Synthesen, Kristallstrukturen und Schwingungsspektren
;
loop_
_citation_id
_citation_journal_abbrev
_citation_year
_citation_journal_volume
_citation_page_first
_citation_page_last
_citation_journal_id_ASTM
primary
;
Zeitschrift fuer Naturforschung, Teil B. Anorganische Chemie, 
Organische Chemie (2,1947-32,1977)
;
 1977 32 1239 1243 ZENBAX
_publ_author_name                  'Thiele, G.;Hilfrich, P.'
_cell_length_a                     10.152(6)
_cell_length_b                     3.993(3)
_cell_length_c                     17.729(9)
_cell_angle_alpha                  90.
_cell_angle_beta                   90.
_cell_angle_gamma                  90.
_cell_volume                       718.68
_cell_formula_units_Z              4
_symmetry_space_group_name_H-M     'P n m a'
_symmetry_Int_Tables_number        62
_refine_ls_R_factor_all            .0544
loop_
_symmetry_equiv_pos_site_id
_symmetry_equiv_pos_as_xyz
  1	'x+.5, y, -z+.5'
  2	'x, -y+.5, z'
  3	'-x+.5, y+.5, z+.5'
  4	'-x, -y, -z'
  5	'-x+.5, -y, z+.5'
  6	'-x, y+.5, -z'
  7	'x+.5, -y+.5, -z+.5'
  8	'x, y, z'
loop_
_atom_type_symbol
_atom_type_oxidation_number
C4+	4
Hg2+	2
K1+	1
N3-	-3
O2-	-2
loop_
_atom_site_label
_atom_site_type_symbol
_atom_site_symmetry_multiplicity
_atom_site_Wyckoff_symbol
_atom_site_fract_x
_atom_site_fract_y
_atom_site_fract_z
_atom_site_occupancy
_atom_site_attached_hydrogens
K1 K1+ 4 c 0.5805(5) 0.25 0.8365(3) 1. 0 
Hg1 Hg2+ 4 c 0.1530(1) 0.25 0.0347(1) 1. 0 
N1 N3- 4 c 0.2024(21) 0.25 0.1524(11) 1. 0 
C1 C4+ 4 c 0.1269(24) 0.25 0.2011(16) 1. 0 
O1 O2- 4 c 0.0494(23) 0.25 0.2518(10) 1. 0 
N2 N3- 4 c 0.2096(19) 0.25 0.5120(11) 1. 0 
C2 C4+ 4 c 0.1223(26) 0.25 0.4643(11) 1. 0 
O2 O2- 4 c 0.0316(15) 0.25 0.4215(9) 1. 0 
N3 N3- 4 c 0.5662(22) 0.25 0.5681(13) 1. 0 
C3 C4+ 4 c 0.6211(32) 0.25 0.6250(16) 1. 0 
O3 O2- 4 c 0.6754(24) 0.25 0.6833(12) 1. 0 

loop_
_atom_site_aniso_label
_atom_site_aniso_type_symbol
_atom_site_aniso_U_11
_atom_site_aniso_U_22
_atom_site_aniso_U_33
_atom_site_aniso_U_12
_atom_site_aniso_U_13
_atom_site_aniso_U_23
K1 K1+ 0.0075(5) 0.0345(35) 0.0008(1) 0 -0.0001(2) 0
Hg1 Hg2+ 0.0052(1) 0.0337(9) 0.00104(5) 0 -0.0001(1) 0
N1 N3- 0.0127(24) 0.0196(121) 0.0015(6) 0 0.0028(12) 0
C1 C4+ 0.0072(24) 0.0400(177) 0.0026(10) 0 -0.0026(15) 0
O1 O2- 0.0167(27) 0.1236(234) 0.0029(7) 0 0.0049(12) 0
N2 N3- 0.0056(19) 0.0397(139) 0.0018(6) 0 -0.0020(11) 0
C2 C4+ 0.0060(25) 0.0606(235) 0.0014(9) 0 0.0027(13) 0
O2 O2- 0.0064(17) 0.0908(164) 0.0028(6) 0 -0.0037(9) 0
N3 N3- 0.0113(27) 0.0615(180) 0.0019(8) 0 -0.0002(13) 0
C3 C4+ 0.0124(33) 0.1245(356) 0.0016(12) 0 0.0030(17) 0
O3 O2- 0.0241(38) 0.1871(371) 0.0016(7) 0 -0.0013(13) 0
#End of data_100116-ICSD


