data_93651-ICSD
#?2014 by Fachinformationszentrum Karlsruhe, and the U.S. Secretary of 
#Commerce on behalf of the United States.  All rights reserved.
_database_code_ICSD                93651
_audit_creation_date               2003/04/01
_chemical_name_systematic          'Dicalcium Cuprate'
_chemical_formula_structural       'Ca2 (Cu O3)'
_chemical_formula_sum              'Ca2 Cu1 O3'
_publ_section_title
;
Interatomic potentials for structure simulation of alkaline-earth 
cuprates
;
loop_
_citation_id
_citation_journal_abbrev
_citation_year
_citation_journal_volume
_citation_page_first
_citation_page_last
_citation_journal_id_ASTM
primary 'Journal of Solid State Chemistry' 2001 158 162 168 JSSCBI
_publ_author_name
;
Eremin, N.N.;Leonyuk, L.I.;Urusov, V.S.
;
_cell_length_a                     12.230
_cell_length_b                     3.763
_cell_length_c                     3.252
_cell_angle_alpha                  90
_cell_angle_beta                   90
_cell_angle_gamma                  90
_cell_volume                       149.66
_cell_formula_units_Z              2
_symmetry_space_group_name_H-M     'I m m m'
_symmetry_Int_Tables_number        71
loop_
_symmetry_equiv_pos_site_id
_symmetry_equiv_pos_as_xyz
  1	'x, y, -z'
  2	'x, -y, z'
  3	'-x, y, z'
  4	'-x, -y, -z'
  5	'-x, -y, z'
  6	'-x, y, -z'
  7	'x, -y, -z'
  8	'x, y, z'
  9	'x+.5, y+.5, -z+.5'
 10	'x+.5, -y+.5, z+.5'
 11	'-x+.5, y+.5, z+.5'
 12	'-x+.5, -y+.5, -z+.5'
 13	'-x+.5, -y+.5, z+.5'
 14	'-x+.5, y+.5, -z+.5'
 15	'x+.5, -y+.5, -z+.5'
 16	'x+.5, y+.5, z+.5'
loop_
_atom_type_symbol
_atom_type_oxidation_number
Ca2+	2
Cu2+	2
O2-	-2
loop_
_atom_site_label
_atom_site_type_symbol
_atom_site_symmetry_multiplicity
_atom_site_Wyckoff_symbol
_atom_site_fract_x
_atom_site_fract_y
_atom_site_fract_z
_atom_site_occupancy
_atom_site_attached_hydrogens
Ca1 Ca2+ 4 f 0.161 0.5 0 1. 0 
Cu1 Cu2+ 2 d 0.5 0 0.5 1. 0 
O1 O2- 4 f 0.339 0.5 0 1. 0 
O2 O2- 2 a 0 0 0 1. 0 

#End of data_93651-ICSD


