data_1359-ICSD
#?2014 by Fachinformationszentrum Karlsruhe, and the U.S. Secretary of 
#Commerce on behalf of the United States.  All rights reserved.
_database_code_ICSD                1359
_audit_creation_date               1980/01/01
_audit_update_record               2010/02/01
_chemical_name_systematic          'Potassium Calcium Amide'
_chemical_formula_structural       'K Ca (N H2)3'
_chemical_formula_sum              'H6 Ca1 K1 N3'
_publ_section_title
;
Darstellung und Kristallstruktur von K Ca (N H2)3
;
loop_
_citation_id
_citation_journal_abbrev
_citation_year
_citation_journal_volume
_citation_page_first
_citation_page_last
_citation_journal_id_ASTM
primary 'Zeitschrift fuer Anorganische und Allgemeine Chemie (1950) (DE)'
 1977 435 137 145 ZAACAB
_publ_author_name                  'Jacobs, H.;Fink, U.'
_cell_length_a                     6.767(3)
_cell_length_b                     11.68(1)
_cell_length_c                     6.624(3)
_cell_angle_alpha                  90.
_cell_angle_beta                   106.7(1)
_cell_angle_gamma                  90.
_cell_volume                       501.47
_cell_formula_units_Z              4
_symmetry_space_group_name_H-M     'P 1 21/c 1'
_symmetry_Int_Tables_number        14
_refine_ls_R_factor_all            .034
loop_
_symmetry_equiv_pos_site_id
_symmetry_equiv_pos_as_xyz
  1	'x, -y+.5, z+.5'
  2	'-x, -y, -z'
  3	'-x, y+.5, -z+.5'
  4	'x, y, z'
loop_
_atom_type_symbol
_atom_type_oxidation_number
Ca2+	2
H1+	1
K1+	1
N3-	-3
loop_
_atom_site_label
_atom_site_type_symbol
_atom_site_symmetry_multiplicity
_atom_site_Wyckoff_symbol
_atom_site_fract_x
_atom_site_fract_y
_atom_site_fract_z
_atom_site_occupancy
_atom_site_attached_hydrogens
_atom_site_U_iso_or_equiv
Ca1 Ca2+ 4 e 0.1753(2) 0.2597(1) 0.4080(1) 1. 0 0 
K1 K1+ 4 e 0.2618(2) 0.5910(1) 0.2783(2) 1. 0 0 
N1 N3- 4 e 0.9225(7) 0.1688(4) 0.5680(6) 1. 0 0 
N2 N3- 4 e 0.2022(7) 0.0899(4) 0.1734(6) 1. 0 0 
N3 N3- 4 e 0.4201(8) 0.2252(4) 0.2279(6) 1. 0 0 
H1 H1+ 4 e 0.997(16) 0.078(9) 0.614(16) 1. 0 0.131(41) 
H2 H1+ 4 e 0.753(11) 0.172(6) 0.553(11) 1. 0 0.055(25) 
H3 H1+ 4 e 0.367(11) 0.068(6) 0.264(11) 1. 0 0.058(23) 
H4 H1+ 4 e 0.106(13) 0.016(8) 0.217(13) 1. 0 0.089(30) 
H5 H1+ 4 e 0.453(11) 0.409(7) 0.151(11) 1. 0 0.056(23) 
H6 H1+ 4 e 0.587(19) 0.292(10) 0.296(18) 1. 0 0.163(50) 

loop_
_atom_site_aniso_label
_atom_site_aniso_type_symbol
_atom_site_aniso_U_11
_atom_site_aniso_U_22
_atom_site_aniso_U_33
_atom_site_aniso_U_12
_atom_site_aniso_U_13
_atom_site_aniso_U_23
Ca1 Ca2+ 0.0252(4) 0.0199(4) 0.0109(3) -.0014(5) 0.0079(3) -.0005(5)
K1 K1+ 0.0614(10) 0.0591(10) 0.0330(6) -.0034(7) -.0021(6) 0.0163(6)
N1 N3- 0.0416(26) 0.0460(25) 0.0287(20) -.0078(22) 0.0149(18) -.0024(18)
N2 N3- 0.0607(30) 0.0327(22) 0.0315(20) 0.0064(22) 0.0202(20) 0.0029(18)
N3 N3- 0.0499(30) 0.0685(34) 0.0293(21) -.0235(26) 0.0244(21) -.0059(21)
#End of data_1359-ICSD


