data_173308-ICSD
#?2014 by Fachinformationszentrum Karlsruhe, and the U.S. Secretary of 
#Commerce on behalf of the United States.  All rights reserved.
_database_code_ICSD                173308
_audit_creation_date               2008/08/01
_chemical_name_systematic
;
Hexadecapotassium Decatitanium Tetrakis(phosphate) 44-fluoride
;
_chemical_formula_structural       'K16 (Ti10 P4 O16 F44)'
_chemical_formula_sum              'F44 K16 O16 P4 Ti10'
_publ_section_title
;
Oxyfluorotitanophosphate cluster [Ti10 P4 O16 F44](16-): synthesis 
and characterization of K16 [Ti10 P4 O16 F44]
;
loop_
_citation_id
_citation_journal_abbrev
_citation_year
_citation_journal_volume
_citation_journal_issue
_citation_page_first
_citation_page_last
_citation_journal_id_ASTM
primary 'Inorganic Chemistry' 2008 47 5 1414 1416 INOCAJ
_publ_author_name
;
Yang Sihai;Li Guo Bao;Blake, A.J.;Sun Jun Liang;Xiong Ming;Liao 
Fuhui;Lin Jian Hua
;
_cell_length_a                     10.295(2)
_cell_length_b                     10.848(2)
_cell_length_c                     24.727(5)
_cell_angle_alpha                  90.00
_cell_angle_beta                   98.36(3)
_cell_angle_gamma                  90.00
_cell_volume                       2732.17
_cell_formula_units_Z              2
_symmetry_space_group_name_H-M     'P 1 21/n 1'
_symmetry_Int_Tables_number        14
_refine_ls_R_factor_all            .0603
loop_
_symmetry_equiv_pos_site_id
_symmetry_equiv_pos_as_xyz
  1	'-x+.5, y+.5, -z+.5'
  2	'-x, -y, -z'
  3	'x+.5, -y+.5, z+.5'
  4	'x, y, z'
loop_
_atom_type_symbol
_atom_type_oxidation_number
F1-	-1
K1+	1
O2-	-2
P5+	5
Ti4+	4
loop_
_atom_site_label
_atom_site_type_symbol
_atom_site_symmetry_multiplicity
_atom_site_Wyckoff_symbol
_atom_site_fract_x
_atom_site_fract_y
_atom_site_fract_z
_atom_site_occupancy
_atom_site_attached_hydrogens
_atom_site_U_iso_or_equiv
Ti1 Ti4+ 4 e 0.11742(15) 0.57928(14) 0.18354(6) 1 0 0.0151(3) 
Ti2 Ti4+ 4 e 0.24439(14) 0.42918(14) 0.00382(6) 1 0 0.0136(3) 
Ti3 Ti4+ 4 e 0.59577(16) 0.42156(15) 0.19572(7) 1 0 0.0201(4) 
Ti4 Ti4+ 4 e -0.04496(15) 0.11829(14) 0.09529(6) 1 0 0.0150(3) 
Ti5 Ti4+ 4 e 0.45372(15) 0.87924(14) 0.10198(6) 1 0 0.0151(3) 
K1 K1+ 4 e 0.2035(2) 0.9113(2) 0.19741(9) 1 0 0.0285(5) 
K2 K1+ 4 e 0.2863(2) 1.07851(19) -0.00579(9) 1 0 0.0256(5) 
K3 K1+ 4 e -0.0701(2) 0.2463(2) -0.05029(9) 1 0 0.0287(5) 
K4 K1+ 4 e 0.2989(2) 0.2423(2) 0.14682(10) 1 0 0.0347(6) 
K5 K1+ 4 e 0.65603(19) 0.05624(19) 0.19743(8) 1 0 0.0239(5) 
K6 K1+ 4 e 0.7794(2) 0.6915(3) 0.14837(10) 1 0 0.0452(7) 
K7 K1+ 4 e 0.3880(2) 0.7019(2) -0.05603(11) 1 0 0.0421(6) 
K8 K1+ 4 e 0.9590(3) 0.2793(3) 0.22260(11) 1 0 0.0496(8) 
P1 P5+ 4 e 0.3759(2) 0.5875(2) 0.11398(9) 1 0 0.0179(5) 
P2 P5+ 4 e -0.0135(2) 0.4162(2) 0.07512(9) 1 0 0.0136(4) 
O1 O2- 4 e 0.4626(7) 0.4814(6) 0.1370(3) 1 0 0.0302(16) 
O2 O2- 4 e 0.0917(8) 0.3985(6) 0.0381(3) 1 0 0.043(2) 
O3 O2- 4 e 0.3078(7) 0.5548(6) 0.0563(3) 1 0 0.0313(17) 
O4 O2- 4 e 0.2700(7) 0.6160(7) 0.1505(3) 1 0 0.0321(17) 
O5 O2- 4 e 0.4594(6) 0.7023(6) 0.1094(3) 1 0 0.0266(15) 
O6 O2- 4 e 0.0224(7) 0.5237(6) 0.1136(3) 1 0 0.0261(15) 
O7 O2- 4 e 0.1460(7) 0.5576(6) -0.0398(3) 1 0 0.0297(16) 
O8 O2- 4 e -0.0273(7) 0.2984(6) 0.1074(2) 1 0 0.0234(14) 
F1 F1- 4 e -0.1694(6) 0.1250(6) 0.1419(3) 1 0 0.0423(16) 
F2 F1- 4 e 0.6364(6) 0.5799(5) 0.2212(2) 1 0 0.0324(13) 
F3 F1- 4 e 0.4677(7) 0.4025(9) 0.2386(3) 1 0 0.067(2) 
F4 F1- 4 e -0.0637(6) -0.0488(5) 0.0871(2) 1 0 0.0347(14) 
F5 F1- 4 e 0.1705(5) 0.4174(5) 0.1998(2) 1 0 0.0260(12) 
F6 F1- 4 e 0.1823(5) 0.3057(5) -0.0455(2) 1 0 0.0245(12) 
F7 F1- 4 e 0.4568(5) 0.8918(5) 0.1778(2) 1 0 0.0271(12) 
F8 F1- 4 e -0.1742(6) 0.1472(5) 0.0363(2) 1 0 0.0381(15) 
F9 F1- 4 e 0.0496(5) 0.7330(5) 0.1622(2) 1 0 0.0264(12) 
F10 F1- 4 e -0.0302(6) 0.5476(6) 0.2159(2) 1 0 0.0374(15) 
F11 F1- 4 e 0.5590(6) 0.2661(5) 0.1654(3) 1 0 0.0430(16) 
F12 F1- 4 e 0.0857(6) 0.1042(6) 0.1546(3) 1 0 0.0494(19) 
F13 F1- 4 e 0.3390(5) 0.3075(5) 0.0456(2) 1 0 0.0291(13) 
F14 F1- 4 e 0.2029(6) 0.6373(6) 0.2487(2) 1 0 0.0419(16) 
F15 F1- 4 e 0.7203(6) 0.3533(6) 0.2502(2) 1 0 0.0388(16) 
F16 F1- 4 e 0.3794(6) 0.4557(6) -0.0334(3) 1 0 0.0440(17) 
F17 F1- 4 e 0.7226(6) 0.4357(7) 0.1516(3) 1 0 0.0463(17) 
F18 F1- 4 e 0.0791(7) 0.1238(6) 0.0491(3) 1 0 0.0487(18) 
F19 F1- 4 e 0.6358(5) 0.8868(5) 0.1124(2) 1 0 0.0276(13) 
F20 F1- 4 e 0.2729(5) 0.8794(6) 0.0927(2) 1 0 0.0334(14) 
F21 F1- 4 e 0.4534(5) 0.8715(5) 0.0274(2) 1 0 0.0269(12) 
F22 F1- 4 e 0.4486(6) 1.0506(5) 0.0980(2) 1 0 0.0348(14) 

loop_
_atom_site_aniso_label
_atom_site_aniso_type_symbol
_atom_site_aniso_U_11
_atom_site_aniso_U_22
_atom_site_aniso_U_33
_atom_site_aniso_U_12
_atom_site_aniso_U_13
_atom_site_aniso_U_23
Ti1 Ti4+ 0.0169(8) 0.0145(8) 0.0141(7) -0.0008(6) 0.0030(6) 0.0000(6)
Ti2 Ti4+ 0.0098(7) 0.0144(7) 0.0161(8) 0.0009(6) 0.0002(6) 0.0005(6)
Ti3 Ti4+ 0.0201(8) 0.0173(8) 0.0212(8) 0.0001(7) -0.0020(6) 0.0010(7)
Ti4 Ti4+ 0.0129(7) 0.0146(8) 0.0176(8) 0.0003(6) 0.0024(6) -0.0010(6)
Ti5 Ti4+ 0.0122(7) 0.0177(8) 0.0147(8) 0.0002(6) 0.0004(6) -0.0016(6)
K1 K1+ 0.0297(11) 0.0282(11) 0.0274(11) -0.0038(10) 0.0037(9) -0.0015(9)
K2 K1+ 0.0234(10) 0.0218(10) 0.0308(11) 0.0011(9) 0.0008(9) -0.0014(9)
K3 K1+ 0.0240(11) 0.0359(12) 0.0262(11) -0.0054(10) 0.0031(8) -0.0007(9)
K4 K1+ 0.0266(12) 0.0418(14) 0.0376(13) -0.0034(10) 0.0115(10) 0.0011(11)
K5 K1+ 0.0218(10) 0.0266(11) 0.0227(10) -0.0033(8) 0.0011(8) 0.0021(8)
K6 K1+ 0.0355(14) 0.0639(18) 0.0397(14) 0.0185(13) 0.0176(11) 0.0229(13)
K7 K1+ 0.0357(14) 0.0440(15) 0.0499(16) -0.0106(11) 0.0169(12) -0.0163(12)
K8 K1+ 0.0616(18) 0.0515(16) 0.0417(15) -0.0300(14) 0.0280(13) -0.0194(13)
P1 P5+ 0.0174(11) 0.0160(11) 0.0195(11) -0.0019(9) -0.0001(9) 0.0004(9)
P2 P5+ 0.0131(10) 0.0118(10) 0.0155(11) -0.0002(9) 0.0009(8) 0.0014(9)
O1 O2- 0.034(4) 0.017(3) 0.035(4) 0.003(3) -0.011(3) 0.000(3)
O2 O2- 0.050(5) 0.024(4) 0.063(5) -0.003(4) 0.036(4) -0.001(4)
O3 O2- 0.040(4) 0.018(4) 0.030(4) 0.006(3) -0.014(3) -0.006(3)
O4 O2- 0.025(4) 0.034(4) 0.042(4) -0.004(3) 0.019(3) 0.003(3)
O5 O2- 0.019(3) 0.018(3) 0.042(4) -0.002(3) 0.002(3) 0.000(3)
O6 O2- 0.037(4) 0.012(3) 0.024(4) -0.001(3) -0.012(3) 0.000(3)
O7 O2- 0.032(4) 0.016(3) 0.035(4) 0.003(3) -0.015(3) 0.000(3)
O8 O2- 0.039(4) 0.014(3) 0.018(3) 0.000(3) 0.005(3) 0.003(3)
F1 F1- 0.048(4) 0.034(3) 0.054(4) -0.011(3) 0.036(3) -0.009(3)
F2 F1- 0.033(3) 0.021(3) 0.039(3) 0.003(3) -0.008(3) -0.005(3)
F3 F1- 0.039(4) 0.118(7) 0.050(4) 0.002(4) 0.025(3) 0.030(5)
F4 F1- 0.041(4) 0.015(3) 0.048(4) 0.004(2) 0.007(3) -0.003(3)
F5 F1- 0.020(3) 0.020(3) 0.035(3) 0.004(2) -0.006(2) 0.003(2)
F6 F1- 0.026(3) 0.024(3) 0.022(3) -0.004(2) -0.001(2) -0.004(2)
F7 F1- 0.024(3) 0.035(3) 0.021(3) -0.005(2) 0.002(2) -0.006(2)
F8 F1- 0.041(4) 0.031(3) 0.036(3) -0.002(3) -0.017(3) 0.001(3)
F9 F1- 0.033(3) 0.013(3) 0.030(3) 0.004(2) -0.005(2) -0.002(2)
F10 F1- 0.033(3) 0.048(4) 0.035(3) 0.002(3) 0.017(3) 0.007(3)
F11 F1- 0.037(3) 0.023(3) 0.062(4) 0.001(3) -0.017(3) -0.003(3)
F12 F1- 0.047(4) 0.032(4) 0.058(4) 0.000(3) -0.032(3) 0.006(3)
F13 F1- 0.027(3) 0.022(3) 0.034(3) 0.011(2) -0.011(2) 0.000(2)
F14 F1- 0.049(4) 0.048(4) 0.024(3) 0.000(3) -0.012(3) -0.014(3)
F15 F1- 0.033(4) 0.037(4) 0.039(4) 0.006(3) -0.017(3) 0.009(3)
F16 F1- 0.037(4) 0.043(4) 0.059(4) -0.009(3) 0.030(3) -0.003(3)
F17 F1- 0.035(4) 0.067(5) 0.042(4) -0.004(3) 0.024(3) -0.010(3)
F18 F1- 0.049(4) 0.038(4) 0.068(5) 0.001(3) 0.040(4) -0.007(3)
F19 F1- 0.011(2) 0.032(3) 0.039(3) -0.003(2) 0.002(2) 0.001(3)
F20 F1- 0.018(3) 0.045(4) 0.035(3) 0.001(3) -0.003(2) -0.009(3)
F21 F1- 0.033(3) 0.032(3) 0.016(3) -0.001(3) 0.003(2) -0.001(2)
F22 F1- 0.039(4) 0.015(3) 0.047(4) 0.006(2) -0.006(3) -0.004(3)
#End of data_173308-ICSD


