data_15170-ICSD
#?2014 by Fachinformationszentrum Karlsruhe, and the U.S. Secretary of 
#Commerce on behalf of the United States.  All rights reserved.
_database_code_ICSD                15170
_audit_creation_date               1980/01/01
_chemical_name_systematic          'Potassium Mercury Fluoride'
_chemical_formula_structural       'K Hg F3'
_chemical_formula_sum              'F3 Hg1 K1'
_publ_section_title
;
Ueber Cs Hg F3, Rb Hg F3 und K Hg F3
;
loop_
_citation_id
_citation_journal_abbrev
_citation_year
_citation_journal_volume
_citation_page_first
_citation_page_last
_citation_journal_id_ASTM
primary 'Zeitschrift fuer Anorganische und Allgemeine Chemie (1950) (DE)'
 1969 369 212 216 ZAACAB
_publ_author_name                  'Hoppe, R.;Homann, R.'
_cell_length_a                     6.2
_cell_length_b                     6.28
_cell_length_c                     8.81
_cell_angle_alpha                  90.
_cell_angle_beta                   90.
_cell_angle_gamma                  90.
_cell_volume                       343.03
_cell_formula_units_Z              4
_symmetry_space_group_name_H-M     'P n a m'
_symmetry_Int_Tables_number        62
loop_
_symmetry_equiv_pos_site_id
_symmetry_equiv_pos_as_xyz
  1	'x+.5, -y+.5, z'
  2	'x, y, -z+.5'
  3	'-x+.5, y+.5, z+.5'
  4	'-x, -y, -z'
  5	'-x+.5, y+.5, -z'
  6	'-x, -y, z+.5'
  7	'x+.5, -y+.5, -z+.5'
  8	'x, y, z'
loop_
_atom_type_symbol
_atom_type_oxidation_number
F1-	-1
Hg2+	2
K1+	1
loop_
_atom_site_label
_atom_site_type_symbol
_atom_site_symmetry_multiplicity
_atom_site_Wyckoff_symbol
_atom_site_fract_x
_atom_site_fract_y
_atom_site_fract_z
_atom_site_occupancy
_atom_site_attached_hydrogens
K1 K1+ 4 c 0 0 0.25 1. 0 
Hg1 Hg2+ 4 b 0 0.5 0 1. 0 
F1 F1- 4 c 0 0.5 0.25 1. 0 
F2 F1- 8 d 0.75 0.25 0 1. 0 

#End of data_15170-ICSD


