data_50645-ICSD
#?2014 by Fachinformationszentrum Karlsruhe, and the U.S. Secretary of 
#Commerce on behalf of the United States.  All rights reserved.
_database_code_ICSD                50645
_audit_creation_date               2000/07/15
_audit_update_record               2007/08/01
_chemical_name_systematic          'Silver Vanadate - Alpha'
_chemical_formula_structural       'Ag (V O3)'
_chemical_formula_sum              'Ag1 O3 V1'
_publ_section_title
;
Crystal structure of alpha-Ag V O3 and phase relation of Ag V O3
;
loop_
_citation_id
_citation_journal_abbrev
_citation_year
_citation_journal_volume
_citation_page_first
_citation_page_last
_citation_journal_id_ASTM
primary 'Journal of Solid State Chemistry' 1999 142 360 367 JSSCBI
2 'Phase Transition' 1992 38 127 220 PHTRDP
_publ_author_name                  'Kittaka, S.;Matsuno, K.;Akashi, H.'
_cell_length_a                     10.437(2)
_cell_length_b                     9.897(2)
_cell_length_c                     5.532(4)
_cell_angle_alpha                  90.
_cell_angle_beta                   99.69(4)
_cell_angle_gamma                  90.
_cell_volume                       563.28
_cell_formula_units_Z              8
_symmetry_space_group_name_H-M     'C 1 2/c 1'
_symmetry_Int_Tables_number        15
_refine_ls_R_factor_all            .033
loop_
_symmetry_equiv_pos_site_id
_symmetry_equiv_pos_as_xyz
  1	'x, -y, z+.5'
  2	'-x, -y, -z'
  3	'-x, y, -z+.5'
  4	'x, y, z'
  5	'x+.5, -y+.5, z+.5'
  6	'-x+.5, -y+.5, -z'
  7	'-x+.5, y+.5, -z+.5'
  8	'x+.5, y+.5, z'
loop_
_atom_type_symbol
_atom_type_oxidation_number
Ag1+	1
O2-	-2
V5+	5
loop_
_atom_site_label
_atom_site_type_symbol
_atom_site_symmetry_multiplicity
_atom_site_Wyckoff_symbol
_atom_site_fract_x
_atom_site_fract_y
_atom_site_fract_z
_atom_site_occupancy
_atom_site_attached_hydrogens
Ag1 Ag1+ 4 e 0 0.58892(4) 0.25 1. 0 
Ag2 Ag1+ 4 e 0 0.21547(5) 0.25 1. 0 
V1 V5+ 8 f 0.30067(7) 0.41408(6) 0.2150(1) 1. 0 
O1 O2- 8 f 0.1394(4) 0.4040(3) 0.1715(8) 1. 0 
O2 O2- 8 f -.1355(4) 0.7722(4) 0.3312(7) 1. 0 
O3 O2- 8 f 0.3533(3) 0.5499(3) 0.4265(5) 1. 0 

loop_
_atom_site_aniso_label
_atom_site_aniso_type_symbol
_atom_site_aniso_U_11
_atom_site_aniso_U_22
_atom_site_aniso_U_33
_atom_site_aniso_U_12
_atom_site_aniso_U_13
_atom_site_aniso_U_23
Ag1 Ag1+ 0.0168(3) 0.0145(3) 0.0255(3) 0 -0.0016(2) 0
Ag2 Ag1+ 0.0171(3) 0.0167(3) 0.0203(3) 0 0.0028(2) 0
V1 V5+ 0.0096(4) 0.0120(4) 0.0090(4) 0.0006(2) 0.0020(3) 0.0009(2)
O1 O2- 0.012(2) 0.023(2) 0.025(2) 0.000(1) 0.004(1) -0.001(1)
O2 O2- 0.025(2) 0.021(2) 0.023(2) 0.008(1) 0.005(1) 0.007(1)
O3 O2- 0.018(1) 0.020(2) 0.010(1) -0.003(1) 0.004(1) -0.004(1)
#End of data_50645-ICSD


