data_161820-ICSD
#?2014 by Fachinformationszentrum Karlsruhe, and the U.S. Secretary of 
#Commerce on behalf of the United States.  All rights reserved.
_database_code_ICSD                161820
_audit_creation_date               2009/02/01
_audit_update_record               2012/02/01
_chemical_name_systematic
;
Calcium Carbonate - Phase I, Hypothetical
;
_chemical_formula_structural       'Ca (C O3)'
_chemical_formula_sum              'C1 Ca1 O3'
_chemical_name_mineral             Aragonite
_publ_section_title
;
High-pressure phases of Ca C O3: crystal structure prediction and 
experiment
;
loop_
_citation_id
_citation_journal_abbrev
_citation_year
_citation_journal_volume
_citation_page_first
_citation_page_last
_citation_journal_id_ASTM
primary 'Earth and Planetary Science Letters' 2006 241 95 103 EPSLA2
_publ_author_name                  'Oganov, A.R.;Glass, C.W.;Ono, S.'
_cell_length_a                     5.544
_cell_length_b                     6.926
_cell_length_c                     3.213
_cell_angle_alpha                  90.
_cell_angle_beta                   90.
_cell_angle_gamma                  90.
_cell_volume                       123.37
_cell_formula_units_Z              4
_symmetry_space_group_name_H-M     'C 2 2 21'
_symmetry_Int_Tables_number        20
loop_
_symmetry_equiv_pos_site_id
_symmetry_equiv_pos_as_xyz
  1	'-x, y, -z+.5'
  2	'-x, -y, z+.5'
  3	'x, -y, -z'
  4	'x, y, z'
  5	'-x+.5, y+.5, -z+.5'
  6	'-x+.5, -y+.5, z+.5'
  7	'x+.5, -y+.5, -z'
  8	'x+.5, y+.5, z'
loop_
_atom_type_symbol
_atom_type_oxidation_number
C4+	4
Ca2+	2
O2-	-2
loop_
_atom_site_label
_atom_site_type_symbol
_atom_site_symmetry_multiplicity
_atom_site_Wyckoff_symbol
_atom_site_fract_x
_atom_site_fract_y
_atom_site_fract_z
_atom_site_occupancy
_atom_site_attached_hydrogens
Ca1 Ca2+ 4 b 0 0.8287 0.250 1. 0 
C1 C4+ 4 a 0.3538 0 0 1. 0 
O1 O2- 4 b 0 0.3881 0.250 1. 0 
O2 O2- 8 c 0.2736 0.3875 0.7324 1. 0 

#End of data_161820-ICSD


