data_89343-ICSD
#?2014 by Fachinformationszentrum Karlsruhe, and the U.S. Secretary of 
#Commerce on behalf of the United States.  All rights reserved.
_database_code_ICSD                89343
_audit_creation_date               2001/07/16
_audit_update_record               2006/04/01
_chemical_name_systematic
;
Potassium Trifluoromanganate(II) - Lt
;
_chemical_formula_structural       'K (Mn F3)'
_chemical_formula_sum              'F3 K1 Mn1'
_publ_section_title
;
Revised structural phase transitions in the archetype K Mn F3 
perovskite crystal
;
loop_
_citation_id
_citation_journal_abbrev
_citation_year
_citation_journal_volume
_citation_page_first
_citation_page_last
_citation_journal_id_ASTM
primary 'Physical Review, Serie 3. B - Condensed Matter (18,1978-)'
 1999 59 14235 14245 PRBMDO
2 'Phase Transition' 1992 38 127 220 PHTRDP
_publ_author_name
;
Kapusta, J.;Daniel, P.;Ratuszna, A.
;
_cell_length_a                     8.3281(4)
_cell_length_b                     8.3392(4)
_cell_length_c                     8.3695(3)
_cell_angle_alpha                  90.
_cell_angle_beta                   89.72(1)
_cell_angle_gamma                  90.
_cell_volume                       581.25
_cell_formula_units_Z              8
_symmetry_space_group_name_H-M     'B 1 21/m 1'
_symmetry_Int_Tables_number        11
_refine_ls_R_factor_all            .052
loop_
_symmetry_equiv_pos_site_id
_symmetry_equiv_pos_as_xyz
  1	'x, -y+.5, z'
  2	'-x, y+.5, -z'
  3	'-x, -y, -z'
  4	'x, y, z'
  5	'x+.5, -y+.5, z+.5'
  6	'-x+.5, y+.5, -z+.5'
  7	'-x+.5, -y, -z+.5'
  8	'x+.5, y, z+.5'
loop_
_atom_type_symbol
_atom_type_oxidation_number
F1-	-1
K1+	1
Mn2+	2
loop_
_atom_site_label
_atom_site_type_symbol
_atom_site_symmetry_multiplicity
_atom_site_Wyckoff_symbol
_atom_site_fract_x
_atom_site_fract_y
_atom_site_fract_z
_atom_site_occupancy
_atom_site_attached_hydrogens
_atom_site_B_iso_or_equiv
K1 K1+ 4 e 0.2518(5) 0.25 0.2474(3) 1. 0 1.83(4) 
K2 K1+ 4 e 0.2930(3) 0.25 0.6888(3) 1. 0 1.83(4) 
Mn1 Mn2+ 4 a 0 0 0 1. 0 0.62(3) 
Mn2 Mn2+ 4 b 0 0 0.5 1. 0 0.62(3) 
F1 F1- 4 e 0.0604(8) 0.25 0.0631(8) 1. 0 2.82(5) 
F2 F1- 4 e 0.0637(6) 0.25 0.5144(7) 1. 0 2.82(5) 
F3 F1- 8 f 0.2393(7) 0.0091(5) 0.0208(7) 1. 0 2.82(5) 
F4 F1- 8 f 0.0489(5) 0.0147(9) 0.2794(6) 1. 0 2.82(5) 

#End of data_89343-ICSD


