data_34221-ICSD
#?2014 by Fachinformationszentrum Karlsruhe, and the U.S. Secretary of 
#Commerce on behalf of the United States.  All rights reserved.
_database_code_ICSD                34221
_audit_creation_date               1980/12/31
_audit_update_record               2006/04/01
_chemical_name_systematic          'Trilithium Phosphate(V) - Ht'
_chemical_formula_structural       'Li3 (P O4)'
_chemical_formula_sum              'Li3 O4 P1'
_chemical_name_mineral             Lithiophosphate
_publ_section_title
;
Solid solutions between octahedral and terahedral olivine types in Li-
Zn-germanates
;
loop_
_citation_id
_citation_journal_abbrev
_citation_year
_citation_journal_volume
_citation_page_first
_citation_page_last
_citation_journal_id_ASTM
primary 'Inorganic and Nuclear Chemistry Letters' 1980 16 525 527 INUCAF
2 'Golden Book of Phase Transitions, Wroclaw' 2002 1 1 123 GBOPT5
_publ_author_name                  'Baur, W.H.'
_cell_length_a                     6.1147
_cell_length_b                     10.475
_cell_length_c                     4.9228
_cell_angle_alpha                  90.
_cell_angle_beta                   90.
_cell_angle_gamma                  90.
_cell_volume                       315.31
_cell_formula_units_Z              4
_symmetry_space_group_name_H-M     'P m n b'
_symmetry_Int_Tables_number        62
_refine_ls_R_factor_all            .061
loop_
_symmetry_equiv_pos_site_id
_symmetry_equiv_pos_as_xyz
  1	'x, y+.5, -z+.5'
  2	'-x+.5, y, z'
  3	'x+.5, -y+.5, z+.5'
  4	'-x, -y, -z'
  5	'-x, -y+.5, z+.5'
  6	'x+.5, -y, -z'
  7	'-x+.5, y+.5, -z+.5'
  8	'x, y, z'
loop_
_atom_type_symbol
_atom_type_oxidation_number
Li1+	1
O2-	-2
P5+	5
loop_
_atom_site_label
_atom_site_type_symbol
_atom_site_symmetry_multiplicity
_atom_site_Wyckoff_symbol
_atom_site_fract_x
_atom_site_fract_y
_atom_site_fract_z
_atom_site_occupancy
_atom_site_attached_hydrogens
_atom_site_B_iso_or_equiv
P1 P5+ 4 c 0.25 0.4115(2) 0.3088(6) 1. 0 0.39 
Li1 Li1+ 8 d 0.503(4) 0.163(1) 0.301(3) 1. 0 1.2 
Li2 Li1+ 4 c 0.75 0.423(2) 0.202(6) 1. 0 1.2 
O1 O2- 8 d 0.0422(13) 0.3419(3) 0.2055(9) 1. 0 0.79 
O2 O2- 4 c 0.25 0.0518(6) 0.2936(16) 1. 0 0.62 
O3 O2- 4 c 0.75 0.0900(7) 0.1223(15) 1. 0 0.54 

#End of data_34221-ICSD


