data_31028-ICSD
#?2014 by Fachinformationszentrum Karlsruhe, and the U.S. Secretary of 
#Commerce on behalf of the United States.  All rights reserved.
_database_code_ICSD                31028
_audit_creation_date               1980/01/01
_audit_update_record               2010/02/01
_chemical_name_systematic          'Disilver Ditungstate'
_chemical_formula_structural       'Ag2 (W2 O7)'
_chemical_formula_sum              'Ag2 O7 W2'
_publ_section_title
;
Crystal structures of silver dimolybdate, Ag2 Mo2 O7, and silver 
ditungstate, Ag2 W2 O7
;
loop_
_citation_id
_citation_journal_abbrev
_citation_year
_citation_journal_volume
_citation_page_first
_citation_page_last
_citation_journal_id_ASTM
primary
;
Journal of the Chemical Society. Dalton Transactions, Inorganic 
Chemistry (1972-)
;
 1976 1976 1316 1320 JCDTBI
_publ_author_name                  'Gatehouse, B.M.;Leverett, P.'
_cell_length_a                     6.033(3)
_cell_length_b                     7.051(3)
_cell_length_c                     7.735(3)
_cell_angle_alpha                  73.8(1)
_cell_angle_beta                   92.2(1)
_cell_angle_gamma                  104.7(1)
_cell_volume                       305.44
_cell_formula_units_Z              2
_symmetry_space_group_name_H-M     'P -1'
_symmetry_Int_Tables_number        2
_refine_ls_R_factor_all            .047
loop_
_symmetry_equiv_pos_site_id
_symmetry_equiv_pos_as_xyz
  1	'-x, -y, -z'
  2	'x, y, z'
loop_
_atom_type_symbol
_atom_type_oxidation_number
Ag1+	1
O2-	-2
W6+	6
loop_
_atom_site_label
_atom_site_type_symbol
_atom_site_symmetry_multiplicity
_atom_site_Wyckoff_symbol
_atom_site_fract_x
_atom_site_fract_y
_atom_site_fract_z
_atom_site_occupancy
_atom_site_attached_hydrogens
_atom_site_B_iso_or_equiv
W1 W6+ 2 i 0.7358(2) 0.7052(2) 0.4445(2) 1. 0 0 
W2 W6+ 2 i 0.2861(3) 0.7294(2) 0.2226(2) 1. 0 0 
Ag1 Ag1+ 2 i 0.7846(6) 0.7143(6) 0.9440(4) 1. 0 0 
Ag2 Ag1+ 2 i 0.2903(6) 0.7220(5) 0.7333(4) 1. 0 0 
O1 O2- 2 i 0.7936(41) 0.6139(36) 0.6867(33) 1. 0 1.2 
O2 O2- 2 i 0.3964(40) 0.6438(35) 0.4949(31) 1. 0 0.9 
O3 O2- 2 i 0.9907(41) 0.6687(36) 0.3373(32) 1. 0 1.2 
O4 O2- 2 i 0.5838(40) 0.6940(35) 0.2046(31) 1. 0 1. 
O5 O2- 2 i 0.1888(45) 0.6959(40) 0.0110(36) 1. 0 1.6 
O6 O2- 2 i 0.7932(42) 0.9614(37) 0.4122(33) 1. 0 1.3 
O7 O2- 2 i 0.3463(44) 0.9902(38) 0.1927(35) 1. 0 1.4 

loop_
_atom_site_aniso_label
_atom_site_aniso_type_symbol
_atom_site_aniso_U_11
_atom_site_aniso_U_22
_atom_site_aniso_U_33
_atom_site_aniso_U_12
_atom_site_aniso_U_13
_atom_site_aniso_U_23
W1 W6+ 0.0055(5) 0.0098(6) 0.0073(5) 0.0018(4) -.0014(4) -.0018(4)
W2 W6+ 0.0067(5) 0.0133(6) 0.0040(5) 0.0028(4) -.0013(4) -.0004(4)
Ag1 Ag1+ 0.0462(21) 0.0523(22) 0.0190(15) 0.0341(18) -.0087(14) -.0168(15)
Ag2 Ag1+ 0.0465(21) 0.0308(17) 0.0147(13) 0.0181(15) 0.0031(13) -.0072(12)
#End of data_31028-ICSD


