data_92395-ICSD
#?2014 by Fachinformationszentrum Karlsruhe, and the U.S. Secretary of 
#Commerce on behalf of the United States.  All rights reserved.
_database_code_ICSD                92395
_audit_creation_date               2002/10/01
_audit_update_record               2013/08/01
_chemical_name_systematic          'Tetralithium Selenate(VI)'
_chemical_formula_structural       'Li4 (Se O5)'
_chemical_formula_sum              'Li4 O5 Se1'
_publ_section_title
;
Synthese und Charakterisierung von Tetralithiumpentaoxoselenat(VI)
;
loop_
_citation_id
_citation_journal_abbrev
_citation_year
_citation_journal_volume
_citation_page_first
_citation_page_last
_citation_journal_id_ASTM
primary 'Zeitschrift fuer Anorganische und Allgemeine Chemie (1950) (DE)'
 2000 626 1174 1178 ZAACAB
_publ_author_name                  'Haas, H.;Jansen, M.'
_cell_length_a                     8.733(1)
_cell_length_b                     5.725(1)
_cell_length_c                     7.836(1)
_cell_angle_alpha                  90.
_cell_angle_beta                   98.29(1)
_cell_angle_gamma                  90.
_cell_volume                       387.68
_cell_formula_units_Z              4
_symmetry_space_group_name_H-M     'C 1 2/c 1'
_symmetry_Int_Tables_number        15
_refine_ls_R_factor_all            .052
loop_
_symmetry_equiv_pos_site_id
_symmetry_equiv_pos_as_xyz
  1	'x, -y, z+.5'
  2	'-x, -y, -z'
  3	'-x, y, -z+.5'
  4	'x, y, z'
  5	'x+.5, -y+.5, z+.5'
  6	'-x+.5, -y+.5, -z'
  7	'-x+.5, y+.5, -z+.5'
  8	'x+.5, y+.5, z'
loop_
_atom_type_symbol
_atom_type_oxidation_number
Li1+	1
O2-	-2
Se6+	6
loop_
_atom_site_label
_atom_site_type_symbol
_atom_site_symmetry_multiplicity
_atom_site_Wyckoff_symbol
_atom_site_fract_x
_atom_site_fract_y
_atom_site_fract_z
_atom_site_occupancy
_atom_site_attached_hydrogens
_atom_site_U_iso_or_equiv
Se1 Se6+ 4 e 0 0.1718(1) 0.25 1. 0 0.0036 
Li1 Li1+ 8 f 0.3924(4) 0.1752(9) 0.0555(6) 1. 0 0.0111 
Li2 Li1+ 8 f 0.2997(5) 0.3356(9) 0.3544(5) 1. 0 0.0109 
O1 O2- 4 e 0.5 0.3715(4) 0.25 1. 0 0.013 
O2 O2- 8 f 0.0886(2) 0.3228(3) 0.4245(2) 1. 0 0.0096 
O3 O2- 8 f 0.1774(2) 0.1712(3) 0.1594(2) 1. 0 0.0079 

#End of data_92395-ICSD


