data_75271-ICSD
#?2014 by Fachinformationszentrum Karlsruhe, and the U.S. Secretary of 
#Commerce on behalf of the United States.  All rights reserved.
_database_code_ICSD                75271
_audit_creation_date               1996/04/22
_chemical_name_systematic
;
Pentamagnesium Disodium Tetrakis(phosphate(V))
;
_chemical_formula_structural       'Mg5 Na2 (P O4)4'
_chemical_formula_sum              'Mg5 Na2 O16 P4'
_publ_section_title
;
Un monophosphate de magnesium et de sodium
;
loop_
_citation_id
_citation_journal_abbrev
_citation_year
_citation_journal_volume
_citation_page_first
_citation_page_last
_citation_journal_id_ASTM
primary 'Acta Crystallographica, Section C: Crystal Structure Communications'
 1994 50 986 988 ACSCEE
_publ_author_name
;
Yamakawa, J.;Yamada, T.;Kawahara, A.
;
_cell_length_a                     7.923(2)
_cell_length_b                     8.124(2)
_cell_length_c                     5.160(1)
_cell_angle_alpha                  90.41(2)
_cell_angle_beta                   101.92(1)
_cell_angle_gamma                  110.71(1)
_cell_volume                       302.8
_cell_formula_units_Z              1
_symmetry_space_group_name_H-M     'P -1'
_symmetry_Int_Tables_number        2
_refine_ls_R_factor_all            .036
loop_
_symmetry_equiv_pos_site_id
_symmetry_equiv_pos_as_xyz
  1	'-x, -y, -z'
  2	'x, y, z'
loop_
_atom_type_symbol
_atom_type_oxidation_number
Mg2+	2
Na1+	1
O2-	-2
P5+	5
loop_
_atom_site_label
_atom_site_type_symbol
_atom_site_symmetry_multiplicity
_atom_site_Wyckoff_symbol
_atom_site_fract_x
_atom_site_fract_y
_atom_site_fract_z
_atom_site_occupancy
_atom_site_attached_hydrogens
P1 P5+ 2 i 0.6977(1) 0.9730(1) 0.3801(2) 1. 0 
P2 P5+ 2 i 0.2125(1) 0.4299(1) 0.1305(2) 1. 0 
Mg1 Mg2+ 2 i 0.2553(2) 0.7812(2) 0.0937(2) 1. 0 
Mg2 Mg2+ 2 i 0.5908(2) 0.3287(2) 0.3639(3) 1. 0 
Mg3 Mg2+ 1 a 0 0 0 1. 0 
Na1 Na1+ 2 i 0.9624(3) 0.7051(2) 0.4379(3) 1. 0 
O1 O2- 2 i 0.1859(4) 0.5623(3) 0.3250(5) 1. 0 
O2 O2- 2 i 0.9702(4) 0.7333(3) 0.9332(5) 1. 0 
O3 O2- 2 i 0.6729(4) 0.1354(3) 0.2430(5) 1. 0 
O4 O2- 2 i 0.7831(4) 0.0331(4) 0.6795(5) 1. 0 
O5 O2- 2 i 0.6310(4) 0.6236(4) 0.7326(6) 1. 0 
O6 O2- 2 i 0.4924(4) 0.1739(3) 0.6580(5) 1. 0 
O7 O2- 2 i 0.1703(4) 0.0817(4) 0.7439(5) 1. 0 
O8 O2- 2 i 0.2477(4) 0.5298(4) 0.8851(5) 1. 0 

#End of data_75271-ICSD


