data_66627-ICSD
#?2014 by Fachinformationszentrum Karlsruhe, and the U.S. Secretary of 
#Commerce on behalf of the United States.  All rights reserved.
_database_code_ICSD                66627
_audit_creation_date               1994/01/19
_audit_update_record               2006/04/01
_chemical_name_systematic          'Calcium Titanium Silicate Oxide'
_chemical_formula_structural       'Ca Ti (Si O4) O'
_chemical_formula_sum              'Ca1 O5 Si1 Ti1'
_chemical_name_mineral             Titanite
_publ_section_title
;
Applications and limitations of the ionic potential model with 
empirically derived ion-specific repulsion parameters
;
loop_
_citation_id
_citation_journal_abbrev
_citation_year
_citation_journal_volume
_citation_page_first
_citation_page_last
_citation_journal_id_ASTM
primary 'Acta Crystallographica, Section B: Structural Science'
 1992 48 609 622 ASBSDK
2 'Golden Book of Phase Transitions, Wroclaw' 2002 1 1 123 GBOPT5
_publ_author_name                  'Kunz, M.;Armbruster, T.'
_cell_length_a                     7.278
_cell_length_b                     8.856
_cell_length_c                     6.858
_cell_angle_alpha                  90.
_cell_angle_beta                   115.75
_cell_angle_gamma                  90.
_cell_volume                       398.13
_cell_formula_units_Z              4
_symmetry_space_group_name_H-M     'P 1 21/a 1'
_symmetry_Int_Tables_number        14
loop_
_symmetry_equiv_pos_site_id
_symmetry_equiv_pos_as_xyz
  1	'x+.5, -y+.5, z'
  2	'-x, -y, -z'
  3	'-x+.5, y+.5, -z'
  4	'x, y, z'
loop_
_atom_type_symbol
_atom_type_oxidation_number
Ca2+	2
O2-	-2
Si4+	4
Ti4+	4
loop_
_atom_site_label
_atom_site_type_symbol
_atom_site_symmetry_multiplicity
_atom_site_Wyckoff_symbol
_atom_site_fract_x
_atom_site_fract_y
_atom_site_fract_z
_atom_site_occupancy
_atom_site_attached_hydrogens
Ca1 Ca2+ 4 e 0.25 0.9318 0.75 1. 0 
Ti1 Ti4+ 4 e 0.5 0.75 0.25 1. 0 
Si1 Si4+ 4 e 0.75 0.9271 0.75 1. 0 
O1 O2- 4 e 0.75 0.809 0.25 1. 0 
O2 O2- 4 e 0.8846 0.8101 0.9431 1. 0 
O3 O2- 4 e 0.3946 0.9637 0.1824 1. 0 
O4 O2- 4 e 0.8846 0.3101 0.4431 1. 0 
O5 O2- 4 e 0.3946 0.4637 0.6824 1. 0 

#End of data_66627-ICSD


