data_250542-ICSD
#?2014 by Fachinformationszentrum Karlsruhe, and the U.S. Secretary of 
#Commerce on behalf of the United States.  All rights reserved.
_database_code_ICSD                250542
_audit_creation_date               2014/08/01
_chemical_name_systematic
;
Dilithium Magnesium Tetrakis(tetrahydridoborate) Hexaammonia
;
_chemical_formula_structural       'Li2 Mg (B H4)4 (N H3)6'
_chemical_formula_sum              'H34 B4 Li2 Mg1 N6'
_publ_section_title
;
An ammonia-stabilized mixed-cation borohydride: synthesis, structure 
and thermal decomposition behavior
;
loop_
_citation_id
_citation_journal_abbrev
_citation_year
_citation_journal_volume
_citation_journal_issue
_citation_page_first
_citation_page_last
_citation_journal_id_ASTM
primary 'Physical Chemistry Chemical Physics' 2014 16 1 135 143 PPCPFQ
_publ_author_name
;
Yang, Yanjing;Liu, Yongfeng;Wu, Hui;Zhou, Wei;Gao, Mingxia;Pan, 
Hongge
;
_cell_length_a                     10.7656(8)
_cell_length_b                     10.7656(8)
_cell_length_c                     13.843(1)
_cell_angle_alpha                  90.000
_cell_angle_beta                   90.000
_cell_angle_gamma                  90.000
_cell_volume                       1604.38
_cell_formula_units_Z              4
_symmetry_space_group_name_H-M     'P 43 21 2'
_symmetry_Int_Tables_number        96
_refine_ls_R_factor_all            .0409
loop_
_symmetry_equiv_pos_site_id
_symmetry_equiv_pos_as_xyz
  1	'x+.5, -y+.5, -z+.25'
  2	'-x+.5, y+.5, -z+.75'
  3	'-y, -x, -z+.5'
  4	'y, x, -z'
  5	'y+.5, -x+.5, z+.25'
  6	'-y+.5, x+.5, z+.75'
  7	'-x, -y, z+.5'
  8	'x, y, z'
loop_
_atom_type_symbol
_atom_type_oxidation_number
B3+	3
H1-	-1
H1+	1
Li1+	1
Mg2+	2
N3-	-3
loop_
_atom_site_label
_atom_site_type_symbol
_atom_site_symmetry_multiplicity
_atom_site_Wyckoff_symbol
_atom_site_fract_x
_atom_site_fract_y
_atom_site_fract_z
_atom_site_occupancy
_atom_site_attached_hydrogens
_atom_site_U_iso_or_equiv
Mg1 Mg2+ 4 a 0.002(1) 0.998(1) 0.7500 1.000 0 0.02(1) 
Li1 Li1+ 8 b -0.005(4) 0.498(6) 0.880(9) 1.000 0 0.018(1) 
H1 H1- 8 b 0.8870 0.6402 1.0750 1.000 0 0 
H2 H1- 8 b 0.8760 0.6274 0.9310 1.000 0 0 
H3 H1- 8 b 0.0440 0.6195 0.9960 1.000 0 0 
H4 H1- 8 b 0.9480 0.7789 0.9930 1.000 0 0 
H5 H1- 8 b 0.1286 0.6040 0.6730 1.000 0 0 
H6 H1- 8 b 0.1221 0.4490 0.7550 1.000 0 0 
H7 H1- 8 b 0.1088 0.6210 0.8150 1.000 0 0 
B1 B3+ 8 b 0.939(1) 0.6659(8) 0.999(4) 1.000 0 0.022(2) 
B2 B3+ 8 b 0.1564(8) 0.558(1) 0.751(3) 1.000 0 0.022(2) 
H8 H1- 8 b 0.2693 0.5650 0.7590 1.000 0 0 
N1 N3- 8 b 0.118(2) 0.891(2) 0.8618(4) 1.000 0 0.025(1) 
H9 H1+ 8 b 0.1890 0.8400 0.8327 1.000 0 0 
H10 H1+ 8 b 0.1620 0.9510 0.9087 1.000 0 0 
H11 H1+ 8 b 0.0680 0.8300 0.9040 1.000 0 0 
N2 N3- 8 b 0.919(1) 0.102(1) 0.8637(4) 1.000 0 0.025(1) 
H12 H1+ 8 b 0.8600 0.0510 0.9065 1.000 0 0 
H13 H1+ 8 b 0.8650 0.1730 0.8363 1.000 0 0 
H14 H1+ 8 b -0.0190 0.1460 0.9100 1.000 0 0 
N3 N3- 8 b 0.865(1) 0.837(1) 0.764(1) 1.000 0 0.025(1) 
H15 H1+ 8 b 0.7760 0.8680 0.7540 1.000 0 0 
H16 H1+ 8 b 0.8760 0.7640 0.7170 1.000 0 0 
H17 H1+ 8 b 0.8660 0.7980 0.8320 1.000 0 0 

#End of data_250542-ICSD


