data_641323-ICSD
#?2014 by Fachinformationszentrum Karlsruhe, and the U.S. Secretary of 
#Commerce on behalf of the United States.  All rights reserved.
_database_code_ICSD                641323
_audit_creation_date               2012/08/01
_chemical_name_systematic          'Potassium Antimony Sulfide (3/1/3)'
_chemical_formula_structural       'K3 Sb S3'
_chemical_formula_sum              'K3 S3 Sb1'
_publ_section_title
;
Ueber ternaere Sulfide der Alkalimetalle mit Arsen und Antimon
;
loop_
_citation_id
_citation_journal_abbrev
_citation_year
_citation_journal_volume
_citation_page_first
_citation_page_last
_citation_journal_id_ASTM
primary 'Zeitschrift fuer Anorganische und Allgemeine Chemie (1950) (DE)'
 1977 430 199 210 ZAACAB
_publ_author_name                  'Sommer, H.;Hoppe, R.'
_cell_length_a                     9.469
_cell_length_b                     9.469
_cell_length_c                     9.469
_cell_angle_alpha                  90.0
_cell_angle_beta                   90.0
_cell_angle_gamma                  90.0
_cell_volume                       849.01
_cell_formula_units_Z              4
_symmetry_space_group_name_H-M     'P 21 3'
_symmetry_Int_Tables_number        198
loop_
_symmetry_equiv_pos_site_id
_symmetry_equiv_pos_as_xyz
  1	'-z+.5, -x, y+.5'
  2	'-y+.5, -z, x+.5'
  3	'-x+.5, -y, z+.5'
  4	'-z, x+.5, -y+.5'
  5	'-y, z+.5, -x+.5'
  6	'-x, y+.5, -z+.5'
  7	'z+.5, -x+.5, -y'
  8	'y+.5, -z+.5, -x'
  9	'x+.5, -y+.5, -z'
 10	'z, x, y'
 11	'y, z, x'
 12	'x, y, z'
loop_
_atom_type_symbol
_atom_type_oxidation_number
K1+	1
S2-	-2
Sb3+	3
loop_
_atom_site_label
_atom_site_type_symbol
_atom_site_symmetry_multiplicity
_atom_site_Wyckoff_symbol
_atom_site_fract_x
_atom_site_fract_y
_atom_site_fract_z
_atom_site_occupancy
_atom_site_attached_hydrogens
K1 K1+ 4 a 0.439 0.439 0.439 1. 0 
K2 K1+ 4 a 0.933 0.933 0.933 1. 0 
K3 K1+ 4 a 0.672 0.672 0.672 1. 0 
Sb1 Sb3+ 4 a 0.222 0.222 0.222 1. 0 
S1 S2- 12 b 0.146 0.472 0.249 1. 0 

#End of data_641323-ICSD


