data_20155-ICSD
#?2014 by Fachinformationszentrum Karlsruhe, and the U.S. Secretary of 
#Commerce on behalf of the United States.  All rights reserved.
_database_code_ICSD                20155
_audit_creation_date               1981/12/31
_audit_update_record               2012/08/01
_chemical_name_systematic
;
Trilithium Dihydroxooctaoxopentaborate
;
_chemical_formula_structural       'Li3 (B5 O8 (O H)2)'
_chemical_formula_sum              'H2 B5 Li3 O10'
_publ_section_title
;
The deformation electronic density in lithium borate Li3 B5 O8 (O H)2
;
loop_
_citation_id
_citation_journal_abbrev
_citation_year
_citation_journal_volume
_citation_page_first
_citation_page_last
_citation_journal_id_ASTM
primary 'Doklady Akademii Nauk SSSR' 1981 257 111 114 DANKAS
2 'Powder Diffraction' 1993 8 162 163 PODIE2
_publ_author_name
;
Sheviren, A.A.;Muradyan, L.A.;Simonov, V.I.;Egorov Tismenko, 
Yu.K.;Simonov, M.A.;Belov, N.V.
;
_cell_length_a                     6.848(2)
_cell_length_b                     6.848(2)
_cell_length_c                     14.564(6)
_cell_angle_alpha                  90.
_cell_angle_beta                   90.
_cell_angle_gamma                  90.
_cell_volume                       682.98
_cell_formula_units_Z              4
_symmetry_space_group_name_H-M     'P 41 21 2'
_symmetry_Int_Tables_number        92
loop_
_symmetry_equiv_pos_site_id
_symmetry_equiv_pos_as_xyz
  1	'x+.5, -y+.5, -z+.75'
  2	'-x+.5, y+.5, -z+.25'
  3	'-y, -x, -z+.5'
  4	'y, x, -z'
  5	'y+.5, -x+.5, z+.75'
  6	'-y+.5, x+.5, z+.25'
  7	'-x, -y, z+.5'
  8	'x, y, z'
loop_
_atom_type_symbol
_atom_type_oxidation_number
B3+	3
H1+	1
Li1+	1
O2-	-2
loop_
_atom_site_label
_atom_site_type_symbol
_atom_site_symmetry_multiplicity
_atom_site_Wyckoff_symbol
_atom_site_fract_x
_atom_site_fract_y
_atom_site_fract_z
_atom_site_occupancy
_atom_site_attached_hydrogens
_atom_site_B_iso_or_equiv
O1 O2- 8 b 0.1449(2) 0.0954(2) 0.26959(8) 1. 0 0 
O2 O2- 8 b 0.1917(2) 0.4500(2) 0.27081(7) 1. 0 0 
O3 O2- 8 b 0.4603(2) 0.2337(2) 0.23786(8) 1. 0 0 
O4 O2- 8 b 0.3241(2) 0.3731(2) 0.41789(7) 1. 0 0 
O5 O2- 8 b 0.1975(2) 0.2796(2) 0.12945(6) 1. 0 0 
B1 B3+ 8 b 0.2479(2) 0.2606(2) 0.22741(9) 1. 0 0 
B2 B3+ 8 b 0.0066(2) 0.2534(2) 0.10688(9) 1. 0 0 
B3 B3+ 4 a 0.5625(2) 0.5625(2) 0 1. 0 0 
Li1 Li1+ 8 b 0.1354(7) 0.1504(6) 0.4069(3) 1. 0 0 
Li2 Li1+ 4 a 0.3038(7) 0.3038(6) 0 1. 0 0 
H1 H1+ 8 b 0.377(4) -.015(3) 0.482(2) 1. 0 2.97 

#End of data_20155-ICSD


