data_162109-ICSD
#?2014 by Fachinformationszentrum Karlsruhe, and the U.S. Secretary of 
#Commerce on behalf of the United States.  All rights reserved.
_database_code_ICSD                162109
_audit_creation_date               2009/08/01
_chemical_name_systematic
;
Sodium Tetraoxohydroxodititanate - Nanowire
;
_chemical_formula_structural       'Na (Ti2 O4 (O H))'
_chemical_formula_sum              'H1 Na1 O5 Ti2'
_publ_section_title
;
Chimie douce route to sodium hydroxo titanate nanowires with 
modulated structure and conversion to highly photoactive titanium 
dioxides
;
loop_
_citation_id
_citation_journal_abbrev
_citation_year
_citation_journal_volume
_citation_journal_issue
_citation_page_first
_citation_page_last
_citation_journal_id_ASTM
primary 'Chemistry of Materials' 2008 20 23 7228 7236 CMATEX
_publ_author_name
;
Peng Chihwei;Richard-Plouet, M.;Ke Tsungyin;Lee Chiyoung;Chiu 
Hsintien;Marhic, C.;Puzenat, E.;Lemoigno, F.;Brohan, L.
;
_cell_length_a                     3.6414(3)
_cell_length_b                     17.286(6)
_cell_length_c                     3.025(2)
_cell_angle_alpha                  91.2
_cell_angle_beta                   89.9
_cell_angle_gamma                  88.2
_cell_volume                       190.27
_cell_formula_units_Z              2
_symmetry_space_group_name_H-M     'I 1'
_symmetry_Int_Tables_number        1
loop_
_symmetry_equiv_pos_site_id
_symmetry_equiv_pos_as_xyz
  1	'x, y, z'
  2	'x+.5, y+.5, z+.5'
loop_
_atom_type_symbol
_atom_type_oxidation_number
H1+	1
Na1+	1
O2-	-2
Ti4+	4
loop_
_atom_site_label
_atom_site_type_symbol
_atom_site_symmetry_multiplicity
_atom_site_Wyckoff_symbol
_atom_site_fract_x
_atom_site_fract_y
_atom_site_fract_z
_atom_site_occupancy
_atom_site_attached_hydrogens
Ti1 Ti4+ 2 a 0 0.312(4) 0.64(3) 1. 0 
Ti2 Ti4+ 2 a 0 0.688(4) 0.64(3) 1. 0 
H1 H1+ 2 a 0.360 0.095(9) 0.39(11) 1. 0 
O1 O2- 2 a 0 0.373(9) 0.10(11) 1. 0 
O2 O2- 2 a 0 0.784(10) 0.11(12) 1. 0 
O3 O2- 2 a 0 0 0.00(2) 1. 0 
O4 O2- 2 a 0 0.627(9) 0.10(11) 1. 0 
O5 O2- 2 a 0 0.216(10) 0.11(12) 1. 0 
Na1 Na1+ 2 a 0.5 0 0.5 1. 0 

#End of data_162109-ICSD


