data_165596-ICSD
#?2014 by Fachinformationszentrum Karlsruhe, and the U.S. Secretary of 
#Commerce on behalf of the United States.  All rights reserved.
_database_code_ICSD                165596
_audit_creation_date               2010/02/01
_chemical_name_systematic
;
Silver Copper Phosphate(V) - Alpha, Lt
;
_chemical_formula_structural       'Ag Cu (P O4)'
_chemical_formula_sum              'Ag1 Cu1 O4 P1'
_publ_section_title
;
Comparison of the crystal structures and magnetic properties of the 
low- and high-temperature forms of Ag Cu P O4: crystal structure 
determination, magnetic susceptibility measurements and spin dimer 
analysis
;
loop_
_citation_id
_citation_journal_abbrev
_citation_year
_citation_journal_volume
_citation_journal_issue
_citation_page_first
_citation_page_last
_citation_journal_id_ASTM
primary 'Inorganic Chemistry' 2006 45 14 5501 5509 INOCAJ
_publ_author_name
;
Ben Yahia, H.;Gaudin, E.;Darriet, J.;Dai Dadi;Whangbo Myunghwan
;
_cell_length_a                     7.83650(10)
_cell_length_b                     5.62685(7)
_cell_length_c                     7.49381(10)
_cell_angle_alpha                  90
_cell_angle_beta                   99.0673(11)
_cell_angle_gamma                  90
_cell_volume                       326.31
_cell_formula_units_Z              4
_symmetry_space_group_name_H-M     'P 1 21/c 1'
_symmetry_Int_Tables_number        14
_refine_ls_R_factor_all            .0474
loop_
_symmetry_equiv_pos_site_id
_symmetry_equiv_pos_as_xyz
  1	'x, -y+.5, z+.5'
  2	'-x, -y, -z'
  3	'-x, y+.5, -z+.5'
  4	'x, y, z'
loop_
_atom_type_symbol
_atom_type_oxidation_number
Ag1+	1
Cu2+	2
O2-	-2
P5+	5
loop_
_atom_site_label
_atom_site_type_symbol
_atom_site_symmetry_multiplicity
_atom_site_Wyckoff_symbol
_atom_site_fract_x
_atom_site_fract_y
_atom_site_fract_z
_atom_site_occupancy
_atom_site_attached_hydrogens
_atom_site_U_iso_or_equiv
Ag1 Ag1+ 4 e 0.9287(4) 0.1093(6) 0.1909(5) 1 0 0.0301(11) 
Cu1 Cu2+ 4 e 0.5834(6) 0.1205(12) 0.8533(7) 1 0 0.0243(18) 
P1 P5+ 4 e 0.2754(13) 0.115(2) 0.4925(15) 1 0 0.023(3) 
O1 O2- 4 e 0.315(3) -0.049(4) 0.648(3) 1 0 0.031(8) 
O2 O2- 4 e 0.276(2) -0.013(3) 0.312(3) 1 0 0.012(7) 
O3 O2- 4 e 0.099(3) 0.237(4) 0.492(3) 1 0 0.023(7) 
O4 O2- 4 e 0.428(3) 0.305(4) 0.520(3) 1 0 0.029(8) 

loop_
_atom_site_aniso_label
_atom_site_aniso_type_symbol
_atom_site_aniso_U_11
_atom_site_aniso_U_22
_atom_site_aniso_U_33
_atom_site_aniso_U_12
_atom_site_aniso_U_13
_atom_site_aniso_U_23
Ag1 Ag1+ 0.0204(17) 0.0310(18) 0.040(2) 0.000(2) 0.0092(15) -0.001(2)
#End of data_165596-ICSD


