data_261146-ICSD
#?2014 by Fachinformationszentrum Karlsruhe, and the U.S. Secretary of 
#Commerce on behalf of the United States.  All rights reserved.
_database_code_ICSD                261146
_audit_creation_date               2011/02/01
_chemical_name_systematic          'Dizinc(II) Diarsenate(V)'
_chemical_formula_structural       'Zn2 As2 O7'
_chemical_formula_sum              'As2 O7 Zn2'
_publ_section_title
;
Crystal chemistry of transition metal diarsenates M2 As2 O7 (M = Mn, 
Co, Ni, Zn): variants of the thortveitite structure
;
loop_
_citation_id
_citation_journal_abbrev
_citation_year
_citation_journal_volume
_citation_journal_issue
_citation_page_first
_citation_page_last
_citation_journal_id_ASTM
primary 'Acta Crystallographica, Section B: Structural Science'
 2010 66 6 603 614 ASBSDK
_publ_author_name                  'Weil, M.;Stoeger, B.'
_cell_length_a                     20.5802(3)
_cell_length_b                     8.43600(10)
_cell_length_c                     9.61800(10)
_cell_angle_alpha                  90
_cell_angle_beta                   106.5640(7)
_cell_angle_gamma                  90
_cell_volume                       1600.53
_cell_formula_units_Z              12
_symmetry_space_group_name_H-M     'I 1 2/c 1'
_symmetry_Int_Tables_number        15
_refine_ls_R_factor_all            .0234
loop_
_symmetry_equiv_pos_site_id
_symmetry_equiv_pos_as_xyz
  1	'-x, y, -z+.5'
  2	'-x, -y, -z'
  3	'x, -y, z+.5'
  4	'x, y, z'
  5	'-x+.5, y+.5, -z'
  6	'-x+.5, -y+.5, -z+.5'
  7	'x+.5, -y+.5, z'
  8	'x+.5, y+.5, z+.5'
loop_
_atom_type_symbol
_atom_type_oxidation_number
As5+	5
O2-	-2
Zn2+	2
loop_
_atom_site_label
_atom_site_type_symbol
_atom_site_symmetry_multiplicity
_atom_site_Wyckoff_symbol
_atom_site_fract_x
_atom_site_fract_y
_atom_site_fract_z
_atom_site_occupancy
_atom_site_attached_hydrogens
_atom_site_U_iso_or_equiv
As1 As5+ 8 f 0.258447(7) -0.016048(17 0.297700(15) 1 0 0.00454(3) 
As2 As5+ 8 f 0.596944(7) -0.000579(18 0.287254(16) 1 0 0.00519(3) 
As3 As5+ 8 f 0.930450(7) -0.014497(18 0.799505(15) 1 0 0.00486(4) 
Zn1 Zn2+ 8 f 0.181506(9) -0.18777(2) -0.01985(2) 1 0 0.00741(4) 
Zn2 Zn2+ 8 f 0.486477(9) -0.18695(2) 0.018840(19) 1 0 0.00698(4) 
Zn3 Zn2+ 8 f 0.835592(8) -0.18678(2) 0.001230(19) 1 0 0.00661(4) 
O1 O2- 8 f 0.20546(6) -0.00848(13) 0.13002(11) 1 0 0.0078(3) 
O2 O2- 8 f 0.53133(6) 0.01142(13) 0.13653(12) 1 0 0.0070(2) 
O3 O2- 8 f 0.86895(6) 0.00046(13) 0.14238(12) 1 0 0.0074(2) 
O4 O2- 8 f 0.33871(6) -0.05413(17) 0.28695(15) 1 0 0.0154(3) 
O5 O2- 4 e 1 -0.0844(2) 0.75 1 0 0.0136(5) 
O6 O2- 8 f 0.24586(6) -0.17238(13) 0.39308(12) 1 0 0.0079(3) 
O7 O2- 8 f 0.59151(6) -0.15981(13) 0.38681(12) 1 0 0.0078(3) 
O8 O2- 8 f 0.94481(6) -0.15382(14) 0.39066(13) 1 0 0.0130(3) 
O9 O2- 8 f 0.26127(6) -0.15497(13) 0.88728(12) 1 0 0.0081(3) 
O10 O2- 8 f 0.61163(6) -0.16112(14) 0.88652(14) 1 0 0.0136(3) 
O11 O2- 8 f 0.91458(6) -0.16593(13) 0.89733(12) 1 0 0.0082(3) 

loop_
_atom_site_aniso_label
_atom_site_aniso_type_symbol
_atom_site_aniso_U_11
_atom_site_aniso_U_22
_atom_site_aniso_U_33
_atom_site_aniso_U_12
_atom_site_aniso_U_13
_atom_site_aniso_U_23
As1 As5+ 0.00491(5) 0.00483(6) 0.00373(5) 0.00005(4) 0.00097(4) 0.00006(4)
As2 As5+ 0.00513(5) 0.00531(5) 0.00443(5) -0.00086(4) 0.00021(4) 0.00072(4)
As3 As5+ 0.00452(6) 0.00519(6) 0.00444(6) -0.00044(4) 0.00059(4) 0.00060(4)
Zn1 Zn2+ 0.00796(7) 0.00556(7) 0.00729(7) 0.00006(5) -0.00011(5) 
-0.00006(5)
Zn2 Zn2+ 0.00738(7) 0.00545(7) 0.00721(7) -0.00028(5) 0.00064(5) 0.00013(5)
Zn3 Zn2+ 0.00653(7) 0.00555(7) 0.00732(7) 0.00035(5) 0.00124(5) -0.00010(5)
O1 O2- 0.0111(4) 0.0060(4) 0.0045(4) 0.0009(3) -0.0008(3) -0.0003(3)
O2 O2- 0.0070(4) 0.0067(4) 0.0054(4) -0.0014(3) -0.0012(3) 0.0001(3)
O3 O2- 0.0076(4) 0.0065(4) 0.0059(4) 0.0001(3) -0.0018(3) -0.0005(3)
O4 O2- 0.0077(4) 0.0219(6) 0.0191(6) 0.0025(4) 0.0077(4) 0.0021(5)
O5 O2- 0.0075(6) 0.0144(7) 0.0218(8) 0 0.0089(6) 0
O6 O2- 0.0083(4) 0.0069(4) 0.0091(4) 0.0012(3) 0.0033(3) 0.0039(3)
O7 O2- 0.0080(4) 0.0075(4) 0.0086(4) 0.0017(3) 0.0034(3) 0.0039(3)
O8 O2- 0.0146(5) 0.0089(5) 0.0135(5) 0.0037(4) 0.0004(4) 0.0051(4)
O9 O2- 0.0093(4) 0.0066(4) 0.0089(4) 0.0021(3) 0.0034(3) 0.0036(3)
O10 O2- 0.0161(5) 0.0085(5) 0.0132(5) 0.0034(4) -0.0007(4) 0.0036(4)
O11 O2- 0.0088(4) 0.0082(4) 0.0088(4) 0.0019(3) 0.0045(3) 0.0035(3)
#End of data_261146-ICSD


