data_189390-ICSD
#?2014 by Fachinformationszentrum Karlsruhe, and the U.S. Secretary of 
#Commerce on behalf of the United States.  All rights reserved.
_database_code_ICSD                189390
_audit_creation_date               2014/02/01
_chemical_name_systematic
;
Disilver Diindium Silicon Hexasulfide
;
_chemical_formula_structural       'Ag2 In2 Si S6'
_chemical_formula_sum              'Ag2 In2 S6 Si1'
_publ_section_title
;
Electronic structure of quaternary chalcogenide Ag2 In2 Ge (Si) S6 
single crystals and the influence of replacing Ge by Si: experimental 
X-ray photoelectron spectroscopy and X - ray diffraction studies and 
theoretical calculations
;
loop_
_citation_id
_citation_journal_abbrev
_citation_year
_citation_journal_volume
_citation_journal_issue
_citation_page_first
_citation_page_last
_citation_journal_id_ASTM
primary 'Science of Advanced Materials' 2013 5 4 316 327 SAMCCU
_publ_author_name
;
Reshak, A.H.;Khyzhun, O.Y.;Kityk, I.V.;Fedorchuk, A.O.;Kamarudin, 
H.;Auluck, S.;Parasyuk, O.V.
;
_cell_length_a                     12.1481(6)
_cell_length_b                     7.1726(5)
_cell_length_c                     12.1263(7)
_cell_angle_alpha                  90.
_cell_angle_beta                   109.255(3)
_cell_angle_gamma                  90.
_cell_volume                       997.5
_cell_formula_units_Z              4
_symmetry_space_group_name_H-M     'C 1 c 1'
_symmetry_Int_Tables_number        9
loop_
_symmetry_equiv_pos_site_id
_symmetry_equiv_pos_as_xyz
  1	'x, -y, z+.5'
  2	'x, y, z'
  3	'x+.5, -y+.5, z+.5'
  4	'x+.5, y+.5, z'
loop_
_atom_type_symbol
_atom_type_oxidation_number
Ag1+	1
In3+	3
S2-	-2
Si4+	4
loop_
_atom_site_label
_atom_site_type_symbol
_atom_site_symmetry_multiplicity
_atom_site_Wyckoff_symbol
_atom_site_fract_x
_atom_site_fract_y
_atom_site_fract_z
_atom_site_occupancy
_atom_site_attached_hydrogens
Ag1 Ag1+ 4 a 0.3960(6) 0.5859(5) 0.2700(6) 1. 0 
Ag2 Ag1+ 4 a 0.5938(6) 0.2029(4) 0.4201(6) 1. 0 
In1 In3+ 4 a 0.4223(6) 0.0943(5) 0.0749(6) 1. 0 
In2 In3+ 4 a 0.2389(6) 0.0643(4) 0.2704(6) 1. 0 
Si1 Si4+ 4 a 0.1665(14) 0.745(2) 0.0140(14) 1. 0 
S1 S2- 4 a 0.353(2) 0.779(2) 0.0521(13) 1. 0 
S2 S2- 4 a 0.4202(12) 0.2460(13) 0.2469(12) 1. 0 
S3 S2- 4 a 0.1044(10) -0.009(2) 0.0682(10) 1. 0 
S4 S2- 4 a 0.0844(10) 0.2706(13) 0.3202(13) 1. 0 
S5 S2- 4 a 0.2992(13) 0.2297(13) 0.8792(14) 1. 0 
S6 S2- 4 a 0.6312(10) 0.029(2) 0.0857(10) 1. 0 

#End of data_189390-ICSD


