data_95785-ICSD
#?2014 by Fachinformationszentrum Karlsruhe, and the U.S. Secretary of 
#Commerce on behalf of the United States.  All rights reserved.
_database_code_ICSD                95785
_audit_creation_date               2004/04/01
_chemical_name_systematic          'Lithium Zinc Thiophosphate(V)'
_chemical_formula_structural       'Li Zn (P S4)'
_chemical_formula_sum              'Li1 P1 S4 Zn1'
_publ_section_title
;
Motive dichtester Kugelpackungen: die Verbindungen Zn3 (P S4)2 und Li 
Zn P S4
;
loop_
_citation_id
_citation_journal_abbrev
_citation_year
_citation_journal_volume
_citation_page_first
_citation_page_last
_citation_journal_id_ASTM
primary 'Zeitschrift fuer Anorganische und Allgemeine Chemie (1950) (DE)'
 2002 628 1765 1769 ZAACAB
_publ_author_name
;
Joergens, S.;Johrendt, D.;Mewis, A.
;
_cell_length_a                     5.738(1)
_cell_length_b                     5.738(1)
_cell_length_c                     8.914(1)
_cell_angle_alpha                  90
_cell_angle_beta                   90
_cell_angle_gamma                  90
_cell_volume                       293.49
_cell_formula_units_Z              2
_symmetry_space_group_name_H-M     'I -4'
_symmetry_Int_Tables_number        82
_refine_ls_R_factor_all            .04
loop_
_symmetry_equiv_pos_site_id
_symmetry_equiv_pos_as_xyz
  1	'-y, x, -z'
  2	'y, -x, -z'
  3	'-x, -y, z'
  4	'x, y, z'
  5	'-y+.5, x+.5, -z+.5'
  6	'y+.5, -x+.5, -z+.5'
  7	'-x+.5, -y+.5, z+.5'
  8	'x+.5, y+.5, z+.5'
loop_
_atom_type_symbol
_atom_type_oxidation_number
Li1+	1
P5+	5
S2-	-2
Zn2+	2
loop_
_atom_site_label
_atom_site_type_symbol
_atom_site_symmetry_multiplicity
_atom_site_Wyckoff_symbol
_atom_site_fract_x
_atom_site_fract_y
_atom_site_fract_z
_atom_site_occupancy
_atom_site_attached_hydrogens
_atom_site_U_iso_or_equiv
Li1 Li1+ 2 b 0 0 0.5 1. 0 0.0040(16) 
Zn1 Zn2+ 2 a 0 0 0 1. 0 0.0184(3) 
P1 P5+ 2 c 0 0.5 0.250 1. 0 0.0132(3) 
S1 S2- 8 g 0.7875(2) 0.2772(2) 0.1348(1) 1. 0 0.0186(2) 

#End of data_95785-ICSD


