data_245129-ICSD
#?2014 by Fachinformationszentrum Karlsruhe, and the U.S. Secretary of 
#Commerce on behalf of the United States.  All rights reserved.
_database_code_ICSD                245129
_audit_creation_date               2007/08/01
_audit_update_record               2013/02/01
_chemical_name_systematic
;
Sodium Lithium Titanium Oxide (2/2/6/14)
;
_chemical_formula_structural       'Na2 Li2 Ti6 O14'
_chemical_formula_sum              'Li2 Na2 O14 Ti6'
_publ_section_title
;
Phase formation and crystal structure of ternary compound Na2 Li2 Ti6 
O14
;
loop_
_citation_id
_citation_journal_abbrev
_citation_year
_citation_journal_volume
_citation_journal_issue
_citation_page_first
_citation_page_last
_citation_journal_id_ASTM
primary 'Solid State Sciences' 2006 8 11 1281 1289 SSSCFJ
_publ_author_name
;
Torres Martinez, L.M.;Ibarra, J.;Loredo, J.R.;Garza-Tovar, 
L.L.;Martinez-Bruno, O.
;
_cell_length_a                     16.4749(1)
_cell_length_b                     11.2161(1)
_cell_length_c                     14.4654(1)
_cell_angle_alpha                  90.
_cell_angle_beta                   90.
_cell_angle_gamma                  90.
_cell_volume                       2672.98
_cell_formula_units_Z              8
_symmetry_space_group_name_H-M     'C m c a'
_symmetry_Int_Tables_number        64
_refine_ls_R_factor_all            .144
loop_
_symmetry_equiv_pos_site_id
_symmetry_equiv_pos_as_xyz
  1	'-x, -y+.5, z+.5'
  2	'-x, y+.5, -z+.5'
  3	'-x, y, z'
  4	'-x, -y, -z'
  5	'x, y+.5, -z+.5'
  6	'x, -y+.5, z+.5'
  7	'x, -y, -z'
  8	'x, y, z'
  9	'-x+.5, -y, z+.5'
 10	'-x+.5, y, -z+.5'
 11	'-x+.5, y+.5, z'
 12	'-x+.5, -y+.5, -z'
 13	'x+.5, y, -z+.5'
 14	'x+.5, -y, z+.5'
 15	'x+.5, -y+.5, -z'
 16	'x+.5, y+.5, z'
loop_
_atom_type_symbol
_atom_type_oxidation_number
Li1+	1
Na1+	1
O2-	-2
Ti4+	4
loop_
_atom_site_label
_atom_site_type_symbol
_atom_site_symmetry_multiplicity
_atom_site_Wyckoff_symbol
_atom_site_fract_x
_atom_site_fract_y
_atom_site_fract_z
_atom_site_occupancy
_atom_site_attached_hydrogens
_atom_site_U_iso_or_equiv
Li1 Li1+ 16 g 0.176(2) 0.259(5) 0.140(2) 1. 0 0.011(6) 
Na1 Na1+ 8 f 0 0.372(2) 0.126(3) 1. 0 0.056(7) 
Na2 Na1+ 8 f 0 0.120(1) 0.129(2) 1. 0 0.029(6) 
Ti1 Ti4+ 8 e 0.25 0.002(1) 0.25 1. 0 0.005(2) 
Ti2 Ti4+ 8 d 0.2513(6) 0 0 1. 0 0.004(2) 
Ti3 Ti4+ 16 g 0.1086(3) 0.1223(7) 0.3747(8) 1. 0 0.007(2) 
Ti4 Ti4+ 16 g 0.1067(3) 0.3753(7) 0.3765(8) 1. 0 0.003(2) 
O1 O2- 16 g 0.272(1) 0.379(2) 0.129(2) 1. 0 0.062(7) 
O2 O2- 16 g 0.1202(8) 0.011(3) 0.246(3) 1. 0 0.073(7) 
O3 O2- 16 g 0.2606(6) 0.119(2) 0.123(2) 1. 0 0.013(4) 
O4 O2- 8 d 0.374(2) 0 0 1. 0 0.023(11) 
O5 O2- 8 d 0.1363(8) 0 0 1. 0 0.066(4) 
O6 O2- 16 g 0.1051(8) 0.255(2) 0.263(1) 1. 0 0.0010(20) 
O7 O2- 8 f 0 0.079(2) 0.372(2) 1. 0 0.0010(30) 
O8 O2- 16 g 0.3932(9) 0.249(2) 0.018(2) 1. 0 0.023(4) 
O9 O2- 8 f 0 0.411(2) 0.386(3) 1. 0 0.0010(20) 

#End of data_245129-ICSD


