data_15222-ICSD
#?2014 by Fachinformationszentrum Karlsruhe, and the U.S. Secretary of 
#Commerce on behalf of the United States.  All rights reserved.
_database_code_ICSD                15222
_audit_creation_date               1980/01/01
_audit_update_record               1988/10/28
_chemical_name_systematic          'Potassium Bromate(VII)'
_chemical_formula_structural       'K Br O4'
_chemical_formula_sum              'Br1 K1 O4'
_publ_section_title
;
The crystal structure of potassium perbromate
;
loop_
_citation_id
_citation_journal_abbrev
_citation_year
_citation_journal_volume
_citation_page_first
_citation_page_last
_citation_journal_id_ASTM
primary 'Inorganic Chemistry' 1969 8 1190 1191 INOCAJ
_publ_author_name                  'Siegel, S.;Tani, B.S.;Appelman, E.'
_cell_length_a                     8.930(4)
_cell_length_b                     5.921(4)
_cell_length_c                     7.488(4)
_cell_angle_alpha                  90.
_cell_angle_beta                   90.
_cell_angle_gamma                  90.
_cell_volume                       395.92
_cell_formula_units_Z              4
_symmetry_space_group_name_H-M     'P n m a'
_symmetry_Int_Tables_number        62
_refine_ls_R_factor_all            .076
loop_
_symmetry_equiv_pos_site_id
_symmetry_equiv_pos_as_xyz
  1	'x+.5, y, -z+.5'
  2	'x, -y+.5, z'
  3	'-x+.5, y+.5, z+.5'
  4	'-x, -y, -z'
  5	'-x+.5, -y, z+.5'
  6	'-x, y+.5, -z'
  7	'x+.5, -y+.5, -z+.5'
  8	'x, y, z'
loop_
_atom_type_symbol
_atom_type_oxidation_number
Br7+	7
K1+	1
O2-	-2
loop_
_atom_site_label
_atom_site_type_symbol
_atom_site_symmetry_multiplicity
_atom_site_Wyckoff_symbol
_atom_site_fract_x
_atom_site_fract_y
_atom_site_fract_z
_atom_site_occupancy
_atom_site_attached_hydrogens
_atom_site_B_iso_or_equiv
K1 K1+ 4 c 0.1776(5) 0.25 0.1623(6) 1. 0 2.27 
Br1 Br7+ 4 c 0.07019(18) 0.25 0.6847(2) 1. 0 1.59 
O1 O2- 4 c 0.207(2) 0.25 0.548(2) 1. 0 3.1 
O2 O2- 4 c 0.914(2) 0.25 0.577(2) 1. 0 3.7 
O3 O2- 8 d 0.0811(10) 0.0277(17) 0.809(1) 1. 0 3.2 

#End of data_15222-ICSD


