data_69051-ICSD
#?2014 by Fachinformationszentrum Karlsruhe, and the U.S. Secretary of 
#Commerce on behalf of the United States.  All rights reserved.
_database_code_ICSD                69051
_audit_creation_date               1992/01/20
_chemical_name_systematic          'Lithium Copper(I) Copper Oxide'
_chemical_formula_structural       'Li Cu2 O2'
_chemical_formula_sum              'Cu2 Li1 O2'
_publ_section_title
;
LiCu2O2 and LiCu3O3: new mixed valent copper oxides
;
loop_
_citation_id
_citation_journal_abbrev
_citation_year
_citation_journal_volume
_citation_page_first
_citation_page_last
_citation_journal_id_ASTM
primary 'Journal of Solid State Chemistry' 1990 88 534 542 JSSCBI
_publ_author_name
;
Hibble, S.J.;Koehler, J.;Simon, A.;Paider, S.
;
_cell_length_a                     5.719(1)
_cell_length_b                     5.719(1)
_cell_length_c                     12.401(4)
_cell_angle_alpha                  90.
_cell_angle_beta                   90.
_cell_angle_gamma                  90.
_cell_volume                       405.6
_cell_formula_units_Z              8
_symmetry_space_group_name_H-M     'P 42/n m c Z'
_symmetry_Int_Tables_number        137
_refine_ls_R_factor_all            .044
loop_
_symmetry_equiv_pos_site_id
_symmetry_equiv_pos_as_xyz
  1	'y+.5, x+.5, -z+.5'
  2	'-y, x+.5, -z+.5'
  3	'y+.5, -x, -z+.5'
  4	'-y, -x, -z+.5'
  5	'x+.5, y+.5, -z'
  6	'-x, y+.5, -z'
  7	'x+.5, -y, -z'
  8	'-x, -y, -z'
  9	'-y+.5, -x+.5, z+.5'
 10	'y, -x+.5, z+.5'
 11	'-y+.5, x, z+.5'
 12	'y, x, z+.5'
 13	'-x+.5, -y+.5, z'
 14	'x, -y+.5, z'
 15	'-x+.5, y, z'
 16	'x, y, z'
loop_
_atom_type_symbol
_atom_type_oxidation_number
Cu1+	1
Cu2+	2
Li1+	1
O2-	-2
loop_
_atom_site_label
_atom_site_type_symbol
_atom_site_symmetry_multiplicity
_atom_site_Wyckoff_symbol
_atom_site_fract_x
_atom_site_fract_y
_atom_site_fract_z
_atom_site_occupancy
_atom_site_attached_hydrogens
_atom_site_U_iso_or_equiv
Cu1 Cu1+ 8 g 0.4947(1) 0.75 0.9949(1) 1. 0 0 
Cu2 Cu2+ 8 g 0.25 0.5004(3) 0.1557(1) 1. 0 0 
O1 O2- 8 g 0.011(2) 0.25 0.1551(5) 1. 0 0 
O2 O2- 8 g 0.487(2) 0.75 0.1436(5) 1. 0 0 
Li1 Li1+ 8 g 0.75 0.989(3) 0.179(1) 1. 0 0.0065(25) 

loop_
_atom_site_aniso_label
_atom_site_aniso_type_symbol
_atom_site_aniso_U_11
_atom_site_aniso_U_22
_atom_site_aniso_U_33
_atom_site_aniso_U_12
_atom_site_aniso_U_13
_atom_site_aniso_U_23
Cu1 Cu1+ 0.0146(7) 0.0032(5) 0.0081(5) 0 0 0.0008(25)
Cu2 Cu2+ 0.0046(4) 0.0039(5) 0.0096(5) 0 0 0.0010(33)
O1 O2- 0.0064(27) 0.0122(25) 0.0010(33) 0 0 0.0006(98)
O2 O2- 0.0032(27) 0.0100(24) 0.0080(22) 0 0 0.0004(83)
#End of data_69051-ICSD


