data_39243-ICSD
#?2014 by Fachinformationszentrum Karlsruhe, and the U.S. Secretary of 
#Commerce on behalf of the United States.  All rights reserved.
_database_code_ICSD                39243
_audit_creation_date               1990/12/27
_audit_update_record               2010/02/01
_chemical_name_systematic          'Titanium(II) Tetrabromoaluminate'
_chemical_formula_structural       'Ti (Al Br4)2'
_chemical_formula_sum              'Al2 Br8 Ti1'
_publ_section_title
;
Synthesis and crystal structures of TiBr4, TiBr3 and Ti(AlBr4)2
;
loop_
_citation_id
_citation_journal_abbrev
_citation_year
_citation_journal_volume
_citation_page_first
_citation_page_last
_citation_journal_id_ASTM
primary 'Zhurnal Neorganicheskoi Khimii' 1990 35 882 887 ZNOKAQ
2 'Russian Journal of Inorganic Chemistry' 1990 35 494 498 RJICAQ
_publ_author_name
;
Troyanov, S.I.;Rybakov, V.B.;Ionov, V.M.
;
_cell_length_a                     6.274(1)
_cell_length_b                     12.801(4)
_cell_length_c                     8.676(3)
_cell_angle_alpha                  90.
_cell_angle_beta                   90.
_cell_angle_gamma                  90.
_cell_volume                       696.8
_cell_formula_units_Z              2
_symmetry_space_group_name_H-M     'P n n 2'
_symmetry_Int_Tables_number        34
_refine_ls_R_factor_all            .065
loop_
_symmetry_equiv_pos_site_id
_symmetry_equiv_pos_as_xyz
  1	'x+.5, -y+.5, z+.5'
  2	'-x+.5, y+.5, z+.5'
  3	'-x, -y, z'
  4	'x, y, z'
loop_
_atom_type_symbol
_atom_type_oxidation_number
Al3+	3
Br1-	-1
Ti2+	2
loop_
_atom_site_label
_atom_site_type_symbol
_atom_site_symmetry_multiplicity
_atom_site_Wyckoff_symbol
_atom_site_fract_x
_atom_site_fract_y
_atom_site_fract_z
_atom_site_occupancy
_atom_site_attached_hydrogens
_atom_site_B_iso_or_equiv
Ti1 Ti2+ 2 a 0 0 0 1. 0 1.7(1) 
Al1 Al3+ 4 c 0.605(2) 0.1865(7) 0.001(3) 1. 0 1.7(2) 
Br1 Br1- 4 c 0.2349(5) 0.1796(2) -.009(2) 1. 0 2.60(6) 
Br2 Br1- 4 c -.257(1) 0.0925(3) 0.1936(5) 1. 0 2.72(7) 
Br3 Br1- 4 c -.2612(6) 0.0935(4) -.2196(5) 1. 0 2.63(7) 
Br4 Br1- 4 c 0.7131(7) 0.3541(3) -.013(1) 1. 0 3.37(7) 

#End of data_39243-ICSD


