data_417710-ICSD
#?2014 by Fachinformationszentrum Karlsruhe, and the U.S. Secretary of 
#Commerce on behalf of the United States.  All rights reserved.
_database_code_ICSD                417710
_audit_creation_date               2008/08/01
_chemical_name_systematic
;
Calcium Catena-yphosphate(V) - Alpha, Ht, Metastable
;
_chemical_formula_structural       'Ca (P O3)2'
_chemical_formula_sum              'Ca1 O6 P2'
_publ_section_title
;
Synthesis, crystal structure and characterization (vibrational and 
solid-state (31)P MAS NMR spectroscopy) of the high-temperature 
modification of calcium catena-polyphosphate(V)
;
loop_
_citation_id
_citation_journal_abbrev
_citation_year
_citation_journal_volume
_citation_page_first
_citation_page_last
_citation_journal_id_ASTM
primary 'Chemistry of Materials' 2007 19 5067 5073 CMATEX
_publ_author_name
;
Weil, M.;Puchberger, M.;Schmedt auf der Guenne, J.;Weber, J.
;
_cell_length_a                     13.6835(14)
_cell_length_b                     19.981(2)
_cell_length_c                     6.7535(7)
_cell_angle_alpha                  90.00
_cell_angle_beta                   94.514(2)
_cell_angle_gamma                  90.00
_cell_volume                       1840.75
_cell_formula_units_Z              16
_symmetry_space_group_name_H-M     'C 1 c 1'
_symmetry_Int_Tables_number        9
_refine_ls_R_factor_all            .0561
loop_
_symmetry_equiv_pos_site_id
_symmetry_equiv_pos_as_xyz
  1	'x, -y, z+.5'
  2	'x, y, z'
  3	'x+.5, -y+.5, z+.5'
  4	'x+.5, y+.5, z'
loop_
_atom_type_symbol
_atom_type_oxidation_number
Ca2+	2
O2-	-2
P5+	5
loop_
_atom_site_label
_atom_site_type_symbol
_atom_site_symmetry_multiplicity
_atom_site_Wyckoff_symbol
_atom_site_fract_x
_atom_site_fract_y
_atom_site_fract_z
_atom_site_occupancy
_atom_site_attached_hydrogens
_atom_site_U_iso_or_equiv
Ca1 Ca2+ 4 a 0.16162(13) 0.19102(5) 0.7002(2) 1 0 0.0127(2) 
Ca2 Ca2+ 4 a 0.16979(12) 0.31000(5) 0.1847(2) 1 0 0.0110(3) 
Ca3 Ca2+ 4 a 0.41482(11) 0.05595(7) 0.69535(19) 1 0 0.0121(3) 
Ca4 Ca2+ 4 a 0.41442(10) 0.43450(7) 0.1884(2) 1 0 0.0123(3) 
P1 P5+ 4 a 0.06836(13) 0.06829(9) 0.0662(3) 1 0 0.0096(4) 
P2 P5+ 4 a 0.24801(12) 0.06940(9) 0.3222(3) 1 0 0.0082(4) 
P3 P5+ 4 a 0.33021(12) 0.17038(9) 0.0395(3) 1 0 0.0083(3) 
P4 P5+ 4 a 0.48088(13) 0.19247(9) 0.3587(3) 1 0 0.0131(4) 
P5 P5+ 4 a 0.34433(13) 0.29889(9) 0.5210(3) 1 0 0.0107(3) 
P6 P5+ 4 a 0.49644(12) 0.32365(9) 0.8354(2) 1 0 0.0085(3) 
P7 P5+ 4 a 0.22959(14) 0.55554(9) 0.3637(3) 1 0 0.0110(4) 
P8 P5+ 4 a 0.09696(12) 0.44556(9) 0.5056(3) 1 0 0.0088(4) 
O1 O2- 4 a 0.0004(3) 0.0136(2) -0.0026(7) 1 0 0.0120(9) 
O2 O2- 4 a 0.0159(4) 0.1075(2) 0.2320(7) 1 0 0.0158(10) 
O3 O2- 4 a 0.0995(4) 0.1130(3) -0.0893(8) 1 0 0.0263(12) 
O4 O2- 4 a 0.1605(4) 0.03582(16) 0.1923(8) 1 0 0.0124(7) 
O5 O2- 4 a 0.2137(4) 0.1154(3) 0.4700(8) 1 0 0.0240(12) 
O6 O2- 4 a 0.3164(3) 0.0151(2) 0.3938(7) 1 0 0.0166(10) 
O7 O2- 4 a 0.3038(4) 0.1073(3) 0.1622(8) 1 0 0.0238(11) 
O8 O2- 4 a 0.3373(4) 0.1482(2) -0.1675(7) 1 0 0.0177(10) 
O9 O2- 4 a 0.2613(4) 0.2256(2) 0.0590(8) 1 0 0.0202(11) 
O10 O2- 4 a 0.4381(3) 0.1869(2) 0.1349(7) 1 0 0.0124(9) 
O11 O2- 4 a 0.4713(5) 0.1298(3) 0.4665(8) 1 0 0.0367(15) 
O12 O2- 4 a 0.5800(4) 0.2217(3) 0.3596(8) 1 0 0.0239(12) 
O13 O2- 4 a 0.4083(7) 0.2430(5) 0.4463(13) 1 0 0.074(3) 
O14 O2- 4 a 0.2434(4) 0.2720(3) 0.5203(7) 1 0 0.0199(11) 
O15 O2- 4 a 0.3501(5) 0.3593(3) 0.4038(8) 1 0 0.0382(16) 
O16 O2- 4 a 0.3890(3) 0.3067(2) 0.7448(7) 1 0 0.0130(10) 
O17 O2- 4 a 0.5658(4) 0.2704(2) 0.7901(8) 1 0 0.0211(11) 
O18 O2- 4 a 0.4924(3) 0.3409(2) 1.0495(7) 1 0 0.0159(10) 
O19 O2- 4 a 0.1650(5) 0.58706(18) 0.1794(9) 1 0 0.0173(8) 
O20 O2- 4 a 0.2589(3) 0.6105(2) 0.5056(7) 1 0 0.0180(10) 
O21 O2- 4 a 0.3086(4) 0.5140(2) 0.2995(8) 1 0 0.0245(12) 
O22 O2- 4 a 0.1492(4) 0.5133(2) 0.4673(7) 1 0 0.0204(10) 
O23 O2- 4 a 0.0934(4) 0.4011(2) 0.3332(7) 1 0 0.0197(11) 
O24 O2- 4 a -0.0009(3) 0.4658(2) 0.5655(7) 1 0 0.0177(10) 

loop_
_atom_site_aniso_label
_atom_site_aniso_type_symbol
_atom_site_aniso_U_11
_atom_site_aniso_U_22
_atom_site_aniso_U_33
_atom_site_aniso_U_12
_atom_site_aniso_U_13
_atom_site_aniso_U_23
Ca1 Ca2+ 0.0136(5) 0.0132(5) 0.0113(5) -0.0004(6) 0.0014(4) 0.0010(6)
Ca2 Ca2+ 0.0117(6) 0.0097(5) 0.0116(5) 0.0007(5) 0.0017(4) -0.0038(6)
Ca3 Ca2+ 0.0162(7) 0.0114(6) 0.0088(6) 0.0015(5) 0.0012(5) -0.0025(5)
Ca4 Ca2+ 0.0097(6) 0.0128(6) 0.0144(7) -0.0012(5) 0.0013(5) 0.0014(5)
P1 P5+ 0.0089(9) 0.0098(7) 0.0098(9) 0.0013(6) -0.0008(7) 0.0006(6)
P2 P5+ 0.0070(8) 0.0098(7) 0.0077(8) 0.0001(6) -0.0010(6) 0.0023(6)
P3 P5+ 0.0053(8) 0.0089(7) 0.0102(8) 0.0012(6) -0.0025(6) -0.0008(6)
P4 P5+ 0.0090(9) 0.0187(8) 0.0106(9) 0.0000(7) -0.0050(7) 0.0013(7)
P5 P5+ 0.0095(9) 0.0138(8) 0.0090(8) -0.0012(6) 0.0017(6) -0.0011(6)
P6 P5+ 0.0101(9) 0.0082(6) 0.0073(8) -0.0008(6) 0.0011(7) 0.0021(6)
P7 P5+ 0.0121(9) 0.0092(8) 0.0115(9) -0.0012(7) -0.0004(7) -0.0037(6)
P8 P5+ 0.0060(9) 0.0108(7) 0.0090(9) 0.0013(6) -0.0035(7) 0.0013(6)
O1 O2- 0.011(2) 0.013(2) 0.012(2) -0.0033(17) -0.0035(18) -0.0001(17)
O2 O2- 0.017(2) 0.017(2) 0.013(2) 0.0006(18) 0.0012(19) 0.0000(18)
O3 O2- 0.034(3) 0.026(3) 0.018(3) -0.003(2) -0.002(2) 0.010(2)
O4 O2- 0.0089(16) 0.0124(15) 0.0151(17) -0.005(2) -0.0040(13) 0.007(2)
O5 O2- 0.022(3) 0.027(3) 0.022(3) 0.002(2) 0.001(2) -0.014(2)
O6 O2- 0.012(2) 0.018(2) 0.020(3) 0.0034(18) -0.001(2) 0.0078(19)
O7 O2- 0.017(3) 0.029(3) 0.024(3) -0.008(2) -0.004(2) 0.012(2)
O8 O2- 0.019(3) 0.022(2) 0.012(2) 0.0013(19) -0.002(2) -0.0007(19)
O9 O2- 0.019(3) 0.017(2) 0.025(3) 0.0099(19) 0.000(2) -0.002(2)
O10 O2- 0.011(2) 0.017(2) 0.009(2) 0.0025(17) -0.0042(18) -0.0036(18)
O11 O2- 0.041(4) 0.046(3) 0.022(3) -0.024(3) -0.006(3) 0.014(3)
O12 O2- 0.011(3) 0.034(3) 0.025(3) -0.013(2) -0.008(2) 0.002(2)
O13 O2- 0.042(3) 0.126(6) 0.050(3) 0.061(4) -0.030(3) -0.064(4)
O14 O2- 0.016(3) 0.030(3) 0.014(2) -0.010(2) -0.001(2) 0.011(2)
O15 O2- 0.054(4) 0.039(3) 0.020(3) -0.020(3) -0.013(3) 0.022(3)
O16 O2- 0.008(2) 0.024(2) 0.007(2) -0.0075(18) -0.0020(17) -0.0011(18)
O17 O2- 0.012(2) 0.021(2) 0.030(3) 0.0061(19) 0.000(2) -0.006(2)
O18 O2- 0.017(2) 0.019(2) 0.011(2) -0.0029(18) 0.0008(19) 0.0000(18)
O19 O2- 0.022(2) 0.0150(16) 0.014(2) -0.001(2) -0.0040(16) 0.003(2)
O20 O2- 0.022(3) 0.016(2) 0.014(2) -0.0038(18) -0.0073(19) 0.0004(18)
O21 O2- 0.016(3) 0.031(3) 0.026(3) 0.015(2) -0.003(2) -0.003(2)
O22 O2- 0.021(3) 0.016(2) 0.024(3) -0.0055(19) 0.001(2) 0.0061(19)
O23 O2- 0.024(3) 0.018(2) 0.016(2) -0.0002(19) -0.002(2) -0.0041(18)
O24 O2- 0.010(2) 0.019(2) 0.025(3) 0.0013(17) 0.0071(18) -0.0046(19)
#End of data_417710-ICSD


