data_50492-ICSD
#?2014 by Fachinformationszentrum Karlsruhe, and the U.S. Secretary of 
#Commerce on behalf of the United States.  All rights reserved.
_database_code_ICSD                50492
_audit_creation_date               1999/11/30
_chemical_name_systematic
;
Tripotassium Triselenoarsenate(III)
;
_chemical_formula_structural       'K3 (As Se3)'
_chemical_formula_sum              'As1 K3 Se3'
_publ_section_title
;
Na3 As Se3 und K3 As Se3 - Darstellung und Kristallstruktur
;
loop_
_citation_id
_citation_journal_abbrev
_citation_year
_citation_journal_volume
_citation_page_first
_citation_page_last
_citation_journal_id_ASTM
primary 'Zeitschrift fuer Anorganische und Allgemeine Chemie (1950) (DE)'
 1998 624 553 554 ZAACAB
_publ_author_name                  'Bronger, W.;Donike, A.;Schmitz, D.'
_cell_length_a                     9.683(3)
_cell_length_b                     9.683(3)
_cell_length_c                     9.683(3)
_cell_angle_alpha                  90.
_cell_angle_beta                   90.
_cell_angle_gamma                  90.
_cell_volume                       907.88
_cell_formula_units_Z              4
_symmetry_space_group_name_H-M     'P 21 3'
_symmetry_Int_Tables_number        198
_refine_ls_R_factor_all            .02
loop_
_symmetry_equiv_pos_site_id
_symmetry_equiv_pos_as_xyz
  1	'-z+.5, -x, y+.5'
  2	'-y+.5, -z, x+.5'
  3	'-x+.5, -y, z+.5'
  4	'-z, x+.5, -y+.5'
  5	'-y, z+.5, -x+.5'
  6	'-x, y+.5, -z+.5'
  7	'z+.5, -x+.5, -y'
  8	'y+.5, -z+.5, -x'
  9	'x+.5, -y+.5, -z'
 10	'z, x, y'
 11	'y, z, x'
 12	'x, y, z'
loop_
_atom_type_symbol
_atom_type_oxidation_number
As3+	3
K1+	1
Se2-	-2
loop_
_atom_site_label
_atom_site_type_symbol
_atom_site_symmetry_multiplicity
_atom_site_Wyckoff_symbol
_atom_site_fract_x
_atom_site_fract_y
_atom_site_fract_z
_atom_site_occupancy
_atom_site_attached_hydrogens
_atom_site_B_iso_or_equiv
Se1 Se2- 12 b 0.21024(6) 0.59926(5) 0.49418(6) 1. 0 2.213(8) 
K1 K1+ 4 a 0.31562(8) 0.31562(8) 0.31562(8) 1. 0 2.306(8) 
K2 K1+ 4 a 0.57590(9) 0.57590(9) 0.57590(9) 1. 0 3.26(1) 
K3 K1+ 4 a 0.81266(7) 0.81266(7) 0.81266(7) 1. 0 2.060(8) 
As1 As3+ 4 a 0.02464(3) 0.02464(3) 0.02464(3) 1. 0 2.052(4) 

#End of data_50492-ICSD


