data_246767-ICSD
#?2014 by Fachinformationszentrum Karlsruhe, and the U.S. Secretary of 
#Commerce on behalf of the United States.  All rights reserved.
_database_code_ICSD                246767
_audit_creation_date               2010/02/01
_chemical_name_systematic
;
Sodium Dizinc Pentakis(tetrahydridoborate)
;
_chemical_formula_structural       'Na Zn2 (B H4)5'
_chemical_formula_sum              'H20 B5 Na1 Zn2'
_publ_section_title
;
A series of mixed-metal borohydrides
;
loop_
_citation_id
_citation_journal_abbrev
_citation_year
_citation_journal_volume
_citation_journal_issue
_citation_page_first
_citation_page_last
_citation_journal_id_ASTM
primary 'Angewandte Chemie. International Edition' 2009 48 36 6659 6663 ACIEF5
_publ_author_name
;
Ravnsbaek, D.;Filinchuk, Y.;Cerenius, Y.;Jakobsen, H.J.;Besenbacher, 
F.;Skibsted, J.;Jensen, T.R.
;
_cell_length_a                     9.397(2)
_cell_length_b                     16.635(3)
_cell_length_c                     9.1359(16)
_cell_angle_alpha                  90.
_cell_angle_beta                   112.658(19)
_cell_angle_gamma                  90.
_cell_volume                       1317.89
_cell_formula_units_Z              4
_symmetry_space_group_name_H-M     'P 1 21/c 1'
_symmetry_Int_Tables_number        14
_refine_ls_R_factor_all            .0751
loop_
_symmetry_equiv_pos_site_id
_symmetry_equiv_pos_as_xyz
  1	'x, -y+.5, z+.5'
  2	'-x, -y, -z'
  3	'-x, y+.5, -z+.5'
  4	'x, y, z'
loop_
_atom_type_symbol
_atom_type_oxidation_number
B3+	3
H1-	-1
Na1+	1
Zn2+	2
loop_
_atom_site_label
_atom_site_type_symbol
_atom_site_symmetry_multiplicity
_atom_site_Wyckoff_symbol
_atom_site_fract_x
_atom_site_fract_y
_atom_site_fract_z
_atom_site_occupancy
_atom_site_attached_hydrogens
Na1 Na1+ 4 e 0.245(6) 0.436(3) 0.117(8) 1. 0 
Zn1 Zn2+ 4 e 0.2873(16) 0.7660(11) 0.643(3) 1. 0 
Zn2 Zn2+ 4 e 0.8412(17) 0.6268(8) 0.395(2) 1. 0 
B1 B3+ 4 e 0.52120 0.32340 0.26060 1. 0 
B2 B3+ 4 e 0.71020 0.09540 0.35510 1. 0 
B3 B3+ 4 e 0.08440 0.69340 0.54220 1. 0 
B4 B3+ 4 e 0.77660 0.58740 0.61120 1. 0 
B5 B3+ 4 e 0.77660 0.91260 0.66540 1. 0 
H1 H1- 4 e 0.39820 0.33570 0.19910 1. 0 
H2 H1- 4 e 0.58240 0.38690 0.29120 1. 0 
H3 H1- 4 e 0.55300 0.21450 0.67070 1. 0 
H4 H1- 4 e 0.55300 0.28550 0.38230 1. 0 
H5 H1- 4 e 0.60980 0.13940 0.30490 1. 0 
H6 H1- 4 e 0.81400 0.13630 0.40700 1. 0 
H7 H1- 4 e 0.70760 0.44520 0.74760 1. 0 
H8 H1- 4 e 0.70760 0.05480 0.46000 1. 0 
H9 H1- 4 e 0.98800 0.73940 0.49400 1. 0 
H10 H1- 4 e 0.04280 0.62500 0.52140 1. 0 
H11 H1- 4 e 0.15480 0.70380 0.68330 1. 0 
H12 H1- 4 e 0.15480 0.79620 0.97150 1. 0 
H13 H1- 4 e 0.83040 0.53540 0.56770 1. 0 
H14 H1- 4 e 0.85740 0.61480 0.73720 1. 0 
H15 H1- 4 e 0.73700 0.64150 0.51290 1. 0 
H16 H1- 4 e 0.67500 0.56170 0.62060 1. 0 
H17 H1- 4 e 0.83040 0.96460 0.76270 1. 0 
H18 H1- 4 e 0.85740 0.88520 0.62020 1. 0 
H19 H1- 4 e 0.73700 0.85850 0.72410 1. 0 
H20 H1- 4 e 0.67500 0.93830 0.55440 1. 0 

#End of data_246767-ICSD


