data_410863-ICSD
#?2014 by Fachinformationszentrum Karlsruhe, and the U.S. Secretary of 
#Commerce on behalf of the United States.  All rights reserved.
_database_code_ICSD                410863
_audit_creation_date               2000/07/15
_chemical_name_systematic
;
Hexapotassium Hexaselenodistannate(III)
;
_chemical_formula_structural       'K6 (Sn2 Se6)'
_chemical_formula_sum              'K6 Se6 Sn2'
_publ_section_title
;
Hexakaliumhexaselenodistannat(III) K6 Sn2 Se6: Synthese, Struktur und 
Eigenschaften einer neuen salzartigen Sn(III)-Verbindung
;
loop_
_citation_id
_citation_journal_abbrev
_citation_year
_citation_journal_volume
_citation_page_first
_citation_page_last
_citation_journal_id_ASTM
primary 'Zeitschrift fuer Anorganische und Allgemeine Chemie (1950) (DE)'
 1999 625 1963 1965 ZAACAB
_publ_author_name                  'Zimmermann, C.;Dehnen, S.'
_cell_length_a                     9.056(2)
_cell_length_b                     12.774(3)
_cell_length_c                     8.887(2)
_cell_angle_alpha                  90.
_cell_angle_beta                   115.85(3)
_cell_angle_gamma                  90.
_cell_volume                       925.19
_cell_formula_units_Z              2
_symmetry_space_group_name_H-M     'P 1 21/c 1'
_symmetry_Int_Tables_number        14
_refine_ls_R_factor_all            .0432
loop_
_symmetry_equiv_pos_site_id
_symmetry_equiv_pos_as_xyz
  1	'x, -y+.5, z+.5'
  2	'-x, -y, -z'
  3	'-x, y+.5, -z+.5'
  4	'x, y, z'
loop_
_atom_type_symbol
_atom_type_oxidation_number
K1+	1
Se2-	-2
Sn3+	3
loop_
_atom_site_label
_atom_site_type_symbol
_atom_site_symmetry_multiplicity
_atom_site_Wyckoff_symbol
_atom_site_fract_x
_atom_site_fract_y
_atom_site_fract_z
_atom_site_occupancy
_atom_site_attached_hydrogens
Sn1 Sn3+ 4 e 0.65840(5) 0.00793(4) 0.62773(6) 1. 0 
Se2 Se2- 4 e 0.75789(9) 0.19029(6) 0.62029(9) 1. 0 
Se3 Se2- 4 e 0.65417(8) -.02876(6) 0.90297(9) 1. 0 
Se4 Se2- 4 e 0.82740(8) -.12846(6) 0.56973(9) 1. 0 
K1 K1+ 4 e 0.7756(2) 0.06858(14) 0.2873(2) 1. 0 
K2 K1+ 4 e 1.0009(2) 0.16460(14) 1.0137(2) 1. 0 
K3 K1+ 4 e 0.4407(2) 0.2120(2) 0.8112(2) 1. 0 

loop_
_atom_site_aniso_label
_atom_site_aniso_type_symbol
_atom_site_aniso_U_11
_atom_site_aniso_U_22
_atom_site_aniso_U_33
_atom_site_aniso_U_12
_atom_site_aniso_U_13
_atom_site_aniso_U_23
Sn1 Sn3+ 0.0056(2) 0.0100(3) 0.0034(3) 0.0006(2) -.0009(2) -.0003(2)
Se2 Se2- 0.0191(4) 0.0130(4) 0.0089(4) -.0058(3) 0.0014(3) -.0005(3)
Se3 Se2- 0.0158(4) 0.0210(4) 0.0062(4) 0.0017(3) 0.0040(3) 0.0016(3)
Se4 Se2- 0.0104(3) 0.0161(4) 0.0097(4) 0.0055(3) 0.0015(3) -.0019(3)
K1 K1+ 0.0190(8) 0.0220(9) 0.0117(8) -.0060(7) 0.0049(6) -.0019(7)
K2 K1+ 0.0148(7) 0.0213(9) 0.0106(8) 0.0037(7) 0.0018(6) 0.0036(7)
K3 K1+ 0.0242(9) 0.0273(11) 0.0248(10) 0.0040(8) -.0063(8) -.0104(9)
#End of data_410863-ICSD


