data_202380-ICSD
#?2014 by Fachinformationszentrum Karlsruhe, and the U.S. Secretary of 
#Commerce on behalf of the United States.  All rights reserved.
_database_code_ICSD                202380
_audit_creation_date               1988/05/17
_chemical_name_systematic          'Potassium Iron(III) Sulfide'
_chemical_formula_structural       'K Fe S2'
_chemical_formula_sum              'Fe1 K1 S2'
_publ_section_title
;
The antiferromagnetic structures of K Fe S2, Rb Fe S2, K Fe Se2, and 
Rb Fe Se2 and the correlation between magnetic moments and crystal 
field calculations
;
loop_
_citation_id
_citation_journal_abbrev
_citation_year
_citation_journal_volume
_citation_page_first
_citation_page_last
_citation_journal_id_ASTM
primary 'Journal of Solid State Chemistry' 1987 70 262 270 JSSCBI
_publ_author_name                  'Bronger, W.;Kyas, A.;Muller, P.'
_cell_length_a                     7.084(3)
_cell_length_b                     11.303(4)
_cell_length_c                     5.394(2)
_cell_angle_alpha                  90.
_cell_angle_beta                   113.2(1)
_cell_angle_gamma                  90.
_cell_volume                       396.97
_cell_formula_units_Z              4
_symmetry_space_group_name_H-M     'C 1 2/c 1'
_symmetry_Int_Tables_number        15
_refine_ls_R_factor_all            .03
loop_
_symmetry_equiv_pos_site_id
_symmetry_equiv_pos_as_xyz
  1	'x, -y, z+.5'
  2	'-x, -y, -z'
  3	'-x, y, -z+.5'
  4	'x, y, z'
  5	'x+.5, -y+.5, z+.5'
  6	'-x+.5, -y+.5, -z'
  7	'-x+.5, y+.5, -z+.5'
  8	'x+.5, y+.5, z'
loop_
_atom_type_symbol
_atom_type_oxidation_number
Fe3+	3
K1+	1
S2-	-2
loop_
_atom_site_label
_atom_site_type_symbol
_atom_site_symmetry_multiplicity
_atom_site_Wyckoff_symbol
_atom_site_fract_x
_atom_site_fract_y
_atom_site_fract_z
_atom_site_occupancy
_atom_site_attached_hydrogens
Fe1 Fe3+ 4 e 0 0.99668(8) 0.25 1. 0 
K1 K1+ 4 e 0 0.3572(1) 0.25 1. 0 
S1 S2- 8 f 0.1960(2) 0.1098(1) 0.1068(2) 1. 0 

loop_
_atom_site_aniso_label
_atom_site_aniso_type_symbol
_atom_site_aniso_U_11
_atom_site_aniso_U_22
_atom_site_aniso_U_33
_atom_site_aniso_U_12
_atom_site_aniso_U_13
_atom_site_aniso_U_23
Fe1 Fe3+ 0.0176(2) 0.0193(3) 0.0114(2) 0 0.0064(2) 0
K1 K1+ 0.0283(5) 0.0291(6) 0.0270(5) 0 0.0062(4) 0
S1 S2- 0.0247(3) 0.0239(4) 0.0172(3) -.0082(3) 0.0093(2) -.0028(2)
#End of data_202380-ICSD


