data_203108-ICSD
#?2014 by Fachinformationszentrum Karlsruhe, and the U.S. Secretary of 
#Commerce on behalf of the United States.  All rights reserved.
_database_code_ICSD                203108
_audit_creation_date               1990/12/27
_audit_update_record               2009/08/01
_chemical_name_systematic          'Potassium Tetrafluorogallate'
_chemical_formula_structural       'K (Ga F4)'
_chemical_formula_sum              'F4 Ga1 K1'
_publ_section_title
;
ESR study of Cr3+ and Fe3+ ions in K Ga F4 single crystals
;
loop_
_citation_id
_citation_journal_abbrev
_citation_year
_citation_journal_volume
_citation_page_first
_citation_page_last
_citation_journal_id_ASTM
primary 'Journal of Solid State Chemistry' 1989 81 285 292 JSSCBI
2 'Phase Transition' 1992 38 127 220 PHTRDP
_publ_author_name
;
Courbion, G.;Randrianohavy, J.V.;Rousseau, J.J.
;
_cell_length_a                     12.211(7)
_cell_length_b                     7.496(2)
_cell_length_c                     7.635(3)
_cell_angle_alpha                  90.
_cell_angle_beta                   90.
_cell_angle_gamma                  90.
_cell_volume                       698.86
_cell_formula_units_Z              8
_symmetry_space_group_name_H-M     'P n m a'
_symmetry_Int_Tables_number        62
_refine_ls_R_factor_all            .0256
loop_
_symmetry_equiv_pos_site_id
_symmetry_equiv_pos_as_xyz
  1	'x+.5, y, -z+.5'
  2	'x, -y+.5, z'
  3	'-x+.5, y+.5, z+.5'
  4	'-x, -y, -z'
  5	'-x+.5, -y, z+.5'
  6	'-x, y+.5, -z'
  7	'x+.5, -y+.5, -z+.5'
  8	'x, y, z'
loop_
_atom_type_symbol
_atom_type_oxidation_number
F1-	-1
Ga3+	3
K1+	1
loop_
_atom_site_label
_atom_site_type_symbol
_atom_site_symmetry_multiplicity
_atom_site_Wyckoff_symbol
_atom_site_fract_x
_atom_site_fract_y
_atom_site_fract_z
_atom_site_occupancy
_atom_site_attached_hydrogens
Ga1 Ga3+ 8 d 0.2491 0.0004 0.1249 1. 0 
K1 K1+ 4 c 0.518 0.75 0.1237(1) 1. 0 
K2 K1+ 4 c 0.9747 0.25 0.1242(1) 1. 0 
F1 F1- 8 d 0.7520(1) 0.0358(2) 0.1246(2) 1. 0 
F2 F1- 4 c 0.2805(1) 0.75 0.1580(2) 1. 0 
F3 F1- 4 c 0.2167(1) 0.25 0.0924(2) 1. 0 
F4 F1- 8 d 0.1024(1) -.0426(1) 0.1284(2) 1. 0 
F5 F1- 8 d 0.3957(1) 0.0437(1) 0.1163(2) 1. 0 

loop_
_atom_site_aniso_label
_atom_site_aniso_type_symbol
_atom_site_aniso_U_11
_atom_site_aniso_U_22
_atom_site_aniso_U_33
_atom_site_aniso_U_12
_atom_site_aniso_U_13
_atom_site_aniso_U_23
Ga1 Ga3+ 0.0100(1) 0.0051(1) 0.0066(1) -0.0004 0.0001 0.0001
K1 K1+ 0.0224(2) 0.0134(2) 0.0161(2) 0 -0.0003(3) 0
K2 K1+ 0.0222(2) 0.0141(2) 0.0163(2) 0 0.0000(3) 0
F1 F1- 0.0360(7) 0.0186(5) 0.0072(4) 0.0021(4) -0.0002(3) -0.0004(5)
F2 F1- 0.0211(6) 0.0060(5) 0.0197(6) 0 -0.0031(5) 0
F3 F1- 0.0208(6) 0.0057(5) 0.0198(7) 0 -0.0023(5) 0
F4 F1- 0.0110(3) 0.0146(4) 0.0250(4) -0.0017(3) 0.0005(5) -0.0012(6)
F5 F1- 0.0111(3) 0.0143(4) 0.0209(4) -0.0020(3) 0.0005(4) 0.0019(5)
#End of data_203108-ICSD


