data_172981-ICSD
#?2014 by Fachinformationszentrum Karlsruhe, and the U.S. Secretary of 
#Commerce on behalf of the United States.  All rights reserved.
_database_code_ICSD                172981
_audit_creation_date               2008/02/01
_chemical_name_systematic          'Dizinc Trioxoselenium Dichloride'
_chemical_formula_structural       'Zn2 (Se O3) Cl2'
_chemical_formula_sum              'Cl2 O3 Se1 Zn2'
_publ_section_title
;
Zinc selenium oxochloride, beta-Zn2 (Se O3) Cl2, a synthetic 
polymorph of the mineral sophiite
;
loop_
_citation_id
_citation_journal_abbrev
_citation_year
_citation_journal_volume
_citation_journal_issue
_citation_page_first
_citation_page_last
_citation_journal_id_ASTM
primary 'Acta Crystallographica, Section C: Crystal Structure Communications'
 2007 63 5 i34 i36 ACSCEE
_publ_author_name                  'Johnsson, M.;Toernroos, K.W.'
_cell_length_a                     7.6699(8)
_cell_length_b                     10.2612(11)
_cell_length_c                     7.6571(8)
_cell_angle_alpha                  90.00
_cell_angle_beta                   100.004(2)
_cell_angle_gamma                  90.00
_cell_volume                       593.47
_cell_formula_units_Z              4
_symmetry_space_group_name_H-M     'P 1 21/c 1'
_symmetry_Int_Tables_number        14
_refine_ls_R_factor_all            .0154
loop_
_symmetry_equiv_pos_site_id
_symmetry_equiv_pos_as_xyz
  1	'x, -y+.5, z+.5'
  2	'-x, -y, -z'
  3	'-x, y+.5, -z+.5'
  4	'x, y, z'
loop_
_atom_type_symbol
_atom_type_oxidation_number
Cl1-	-1
O2-	-2
Se4+	4
Zn2+	2
loop_
_atom_site_label
_atom_site_type_symbol
_atom_site_symmetry_multiplicity
_atom_site_Wyckoff_symbol
_atom_site_fract_x
_atom_site_fract_y
_atom_site_fract_z
_atom_site_occupancy
_atom_site_attached_hydrogens
_atom_site_U_iso_or_equiv
Se1 Se4+ 4 e 0.814070(17) 0.532687(12) 0.185624(16) 1 0 0.00879(4) 
Zn1 Zn2+ 4 e 1.23059(2) 0.512495(15) 0.39561(2) 1 0 0.01097(4) 
Zn2 Zn2+ 4 e 0.91497(2) 0.778634(15) 0.37326(2) 1 0 0.01199(4) 
Cl1 Cl1- 4 e 1.40404(5) 0.40258(4) 0.24339(4) 1 0 0.01666(7) 
Cl2 Cl1- 4 e 1.22516(5) 0.72269(3) 0.46610(4) 1 0 0.01458(7) 
O1 O2- 4 e 0.80793(13) 0.58925(9) 0.39417(12) 1 0 0.01222(18) 
O2 O2- 4 e 1.01471(13) 0.45454(9) 0.22034(13) 1 0 0.01211(18) 
O3 O2- 4 e 0.87607(13) 0.68185(9) 0.12038(12) 1 0 0.01166(18) 

loop_
_atom_site_aniso_label
_atom_site_aniso_type_symbol
_atom_site_aniso_U_11
_atom_site_aniso_U_22
_atom_site_aniso_U_33
_atom_site_aniso_U_12
_atom_site_aniso_U_13
_atom_site_aniso_U_23
Se1 Se4+ 0.01005(7) 0.00769(6) 0.00854(6) -0.00035(4) 0.00135(4) 
-0.00062(4)
Zn1 Zn2+ 0.01247(8) 0.01043(8) 0.01031(7) -0.00046(5) 0.00284(5) 0.00028(5)
Zn2 Zn2+ 0.01889(9) 0.00836(8) 0.00924(7) -0.00206(5) 0.00391(6) 
-0.00084(5)
Cl1 Cl1- 0.01446(15) 0.02138(16) 0.01493(15) 0.00337(12) 0.00473(12) 
-0.00135(11)
Cl2 Cl1- 0.01543(15) 0.01019(14) 0.01694(15) -0.00068(11) -0.00045(12) 
-0.00019(11)
O1 O2- 0.0176(5) 0.0100(4) 0.0100(4) -0.0012(3) 0.0049(4) -0.0011(3)
O2 O2- 0.0119(4) 0.0100(4) 0.0139(4) 0.0014(3) 0.0007(4) -0.0021(3)
O3 O2- 0.0173(5) 0.0082(4) 0.0095(4) -0.0010(3) 0.0022(4) 0.0005(3)
#End of data_172981-ICSD


