data_67654-ICSD
#?2014 by Fachinformationszentrum Karlsruhe, and the U.S. Secretary of 
#Commerce on behalf of the United States.  All rights reserved.
_database_code_ICSD                67654
_audit_creation_date               1994/01/19
_chemical_name_systematic
;
Calcium Ytterbium Tetraselenidoindate
;
_chemical_formula_structural       'Ca Yb (In Se4)'
_chemical_formula_sum              'Ca1 In1 Se4 Yb1'
_publ_section_title
;
Synthesis and Characterization of Two New Quaternary 
Chalcogenides,CaYbInQ4 (Q = S and Se), with an Olivine-Type Structure
;
loop_
_citation_id
_citation_journal_abbrev
_citation_year
_citation_journal_volume
_citation_page_first
_citation_page_last
_citation_journal_id_ASTM
primary 'Chemistry of Materials' 1992 4 1368 1372 CMATEX
_publ_author_name                  'Carpenter, J.D.;Hwu, S.-J.'
_cell_length_a                     14.282(3)
_cell_length_b                     8.247(2)
_cell_length_c                     6.776(1)
_cell_angle_alpha                  90.
_cell_angle_beta                   90.
_cell_angle_gamma                  90.
_cell_volume                       798.1
_cell_formula_units_Z              4
_symmetry_space_group_name_H-M     'P n m a'
_symmetry_Int_Tables_number        62
_refine_ls_R_factor_all            .041
loop_
_symmetry_equiv_pos_site_id
_symmetry_equiv_pos_as_xyz
  1	'x+.5, y, -z+.5'
  2	'x, -y+.5, z'
  3	'-x+.5, y+.5, z+.5'
  4	'-x, -y, -z'
  5	'-x+.5, -y, z+.5'
  6	'-x, y+.5, -z'
  7	'x+.5, -y+.5, -z+.5'
  8	'x, y, z'
loop_
_atom_type_symbol
_atom_type_oxidation_number
Ca2+	2
In3+	3
Se2-	-2
Yb3+	3
loop_
_atom_site_label
_atom_site_type_symbol
_atom_site_symmetry_multiplicity
_atom_site_Wyckoff_symbol
_atom_site_fract_x
_atom_site_fract_y
_atom_site_fract_z
_atom_site_occupancy
_atom_site_attached_hydrogens
Ca1 Ca2+ 4 c 0.2668(2) 0.25 0.9973(6) 1. 0 
Yb1 Yb3+ 4 a 0.5 0 0.5 1. 0 
In1 In3+ 4 c 0.0874(1) 0.25 0.4111(2) 1. 0 
Se1 Se2- 4 c 0.0869(2) 0.25 0.7837(3) 1. 0 
Se2 Se2- 4 c 0.4251(2) 0.25 0.2673(4) 1. 0 
Se3 Se2- 8 d 0.1616(1) 0.0046(2) 0.2348(2) 1. 0 

loop_
_atom_site_aniso_label
_atom_site_aniso_type_symbol
_atom_site_aniso_U_11
_atom_site_aniso_U_22
_atom_site_aniso_U_33
_atom_site_aniso_U_12
_atom_site_aniso_U_13
_atom_site_aniso_U_23
Ca1 Ca2+ 0.017(2) 0.021(2) 0.018(2) 0 0.002(2) 0
Yb1 Yb3+ 0.0162(4) 0.0157(5) 0.0144(5) -.0014(4) 0.0018(4) 0.0011(6)
In1 In3+ 0.0194(7) 0.0191(8) 0.00122(8) 0 -.0006(7) 0
Se1 Se2- 0.018(1) 0.018(1) 0.010(1) 0 0.000(1) 0
Se2 Se2- 0.016(1) 0.020(1) 0.016(1) 0 -.002(1) 0
Se3 Se2- 0.0177(6) 0.0176(8) 0.0150(7) 0.0015(7) -.0015(6) 0.0025(8)
#End of data_67654-ICSD


