data_415379-ICSD
#?2014 by Fachinformationszentrum Karlsruhe, and the U.S. Secretary of 
#Commerce on behalf of the United States.  All rights reserved.
_database_code_ICSD                415379
_audit_creation_date               2007/08/01
_chemical_name_systematic
;
Dipotassium Sulfato(VI)trifluoromanganate(III) - Lt
;
_chemical_formula_structural       'K2 (Mn F3 (S O4))'
_chemical_formula_sum              'F3 K2 Mn1 O4 S1'
_publ_section_title
;
Jahn-Teller-Ordnung in Mangan(III)-fluoridsulfaten.  II. 
Phasen?bergang und Verzwillingung bei K2 (Mn F3 (S O4)) und 1D 
Magnetismus in Verbindungen A2 (Mn F3 (S O4)) (A = K, N H4, Rb, Cs)
;
loop_
_citation_id
_citation_journal_abbrev
_citation_year
_citation_journal_volume
_citation_page_first
_citation_page_last
_citation_journal_id_ASTM
primary 'Zeitschrift fuer Anorganische und Allgemeine Chemie (1950) (DE)'
 2005 631 1785 1792 ZAACAB
_publ_author_name
;
Klein, U.;Hahn, F.;Massa, W.;Pebler, J.
;
_cell_length_a                     7.2304(6)
_cell_length_b                     10.7526(14)
_cell_length_c                     8.4514(9)
_cell_angle_alpha                  90.00
_cell_angle_beta                   91.015(8)
_cell_angle_gamma                  90.00
_cell_volume                       656.96
_cell_formula_units_Z              4
_symmetry_space_group_name_H-M     'P 1 21/c 1'
_symmetry_Int_Tables_number        14
_refine_ls_R_factor_all            .0312
loop_
_symmetry_equiv_pos_site_id
_symmetry_equiv_pos_as_xyz
  1	'x, -y+.5, z+.5'
  2	'-x, -y, -z'
  3	'-x, y+.5, -z+.5'
  4	'x, y, z'
loop_
_atom_type_symbol
_atom_type_oxidation_number
F1-	-1
K1+	1
Mn3+	3
O2-	-2
S6+	6
loop_
_atom_site_label
_atom_site_type_symbol
_atom_site_symmetry_multiplicity
_atom_site_Wyckoff_symbol
_atom_site_fract_x
_atom_site_fract_y
_atom_site_fract_z
_atom_site_occupancy
_atom_site_attached_hydrogens
_atom_site_U_iso_or_equiv
K1 K1+ 4 e 0.19393(6) 0.19088(4) 0.32777(5) 1 0 0.02605(11) 
K2 K1+ 4 e -0.30392(6) 0.30924(4) 0.17318(5) 1 0 0.02519(11) 
Mn1 Mn3+ 2 b 0.5000 0.0000 0.0000 1 0 0.01282(9) 
Mn2 Mn3+ 2 a 0.0000 0.0000 0.0000 1 0 0.01267(9) 
F1 F1- 4 e 0.47605(16) 0.16217(10) -0.05720(14) 1 0 0.0206(2) 
F2 F1- 4 e -0.02563(16) 0.16190(10) 0.05402(14) 1 0 0.0207(2) 
F3 F1- 4 e 0.24426(16) 0.00057(11) 0.10983(14) 1 0 0.0208(2) 
S1 S6+ 4 e 0.74935(6) -0.00047(4) 0.31147(5) 1 0 0.01672(10) 
O1 O2- 4 e 0.8909(2) -0.06060(13) 0.21053(16) 1 0 0.0214(3) 
O2 O2- 4 e 0.60681(19) 0.05900(13) 0.20253(15) 1 0 0.0196(2) 
O3 O2- 4 e 0.6628(2) -0.09635(18) 0.4045(2) 1 0 0.0331(4) 
O4 O2- 4 e 0.8325(2) 0.09922(17) 0.40448(19) 1 0 0.0312(3) 

loop_
_atom_site_aniso_label
_atom_site_aniso_type_symbol
_atom_site_aniso_U_11
_atom_site_aniso_U_22
_atom_site_aniso_U_33
_atom_site_aniso_U_12
_atom_site_aniso_U_13
_atom_site_aniso_U_23
K1 K1+ 0.0320(2) 0.02057(19) 0.02527(19) -0.00190(14) -0.00693(15) 
-0.00047(14)
K2 K1+ 0.0311(2) 0.01992(19) 0.02480(19) 0.00146(14) 0.00771(15) 
-0.00094(13)
Mn1 Mn3+ 0.01121(16) 0.01154(16) 0.01573(17) 0.00067(10) 0.00052(11) 
0.00057(10)
Mn2 Mn3+ 0.01124(16) 0.01182(16) 0.01494(17) 0.00094(10) 0.00062(11) 
-0.00063(10)
F1 F1- 0.0240(5) 0.0136(5) 0.0242(5) 0.0022(4) -0.0013(4) 0.0019(4)
F2 F1- 0.0242(5) 0.0124(4) 0.0256(5) 0.0018(4) 0.0027(4) -0.0031(4)
F3 F1- 0.0169(5) 0.0257(6) 0.0198(5) 0.0003(4) 0.0014(4) -0.0004(4)
S1 S6+ 0.01710(19) 0.0190(2) 0.01410(18) -0.00159(12) 0.00069(13) 
-0.00013(12)
O1 O2- 0.0222(6) 0.0205(6) 0.0215(6) 0.0029(5) 0.0028(4) 0.0009(5)
O2 O2- 0.0222(6) 0.0177(6) 0.0189(6) 0.0020(4) -0.0020(4) -0.0013(4)
O3 O2- 0.0279(7) 0.0407(9) 0.0307(7) -0.0052(6) 0.0023(6) 0.0191(7)
O4 O2- 0.0286(7) 0.0367(9) 0.0283(7) -0.0038(6) -0.0015(5) -0.0152(6)
#End of data_415379-ICSD


