data_27398-ICSD
#?2014 by Fachinformationszentrum Karlsruhe, and the U.S. Secretary of 
#Commerce on behalf of the United States.  All rights reserved.
_database_code_ICSD                27398
_audit_creation_date               1980/01/01
_audit_update_record               2012/08/01
_chemical_name_systematic
;
Tripotassium Tetrakis(sulfato(VI))duo-dimolybdate(II) 3.5-hydrate
;
_chemical_formula_structural       'K3 (Mo2 (S O4)4) (H2 O)3.5'
_chemical_formula_sum              'H7 K3 Mo2 O19.5 S4'
_publ_section_title
;
Magnetic and electrochemical properties of transition metal complexes 
with multiple metal-to-metal bonds. III. Characterization of 
tetrapotassium and tripotassium tetrasulfatodimolybdates
;
loop_
_citation_id
_citation_journal_abbrev
_citation_year
_citation_journal_volume
_citation_page_first
_citation_page_last
_citation_journal_id_ASTM
primary 'Inorganic Chemistry' 1975 14 391 398 INOCAJ
2 'Journal of the American Chemical Society' 1973 95 4431 4432 JACSAT
_publ_author_name
;
Cotton, F.A.;Frenz, B.A.;Pedersen, E.;Webb, T.R.
;
_cell_length_a                     30.654(4)
_cell_length_b                     9.528(1)
_cell_length_c                     12.727(1)
_cell_angle_alpha                  90.
_cell_angle_beta                   97.43(1)
_cell_angle_gamma                  90.
_cell_volume                       3685.98
_cell_formula_units_Z              8
_symmetry_space_group_name_H-M     'C 1 2/c 1'
_symmetry_Int_Tables_number        15
_refine_ls_R_factor_all            .026
loop_
_symmetry_equiv_pos_site_id
_symmetry_equiv_pos_as_xyz
  1	'x, -y, z+.5'
  2	'-x, -y, -z'
  3	'-x, y, -z+.5'
  4	'x, y, z'
  5	'x+.5, -y+.5, z+.5'
  6	'-x+.5, -y+.5, -z'
  7	'-x+.5, y+.5, -z+.5'
  8	'x+.5, y+.5, z'
loop_
_atom_type_symbol
_atom_type_oxidation_number
H1+	1
K1+	1
Mo2.5+	2.5
O2-	-2
S6+	6
loop_
_atom_site_label
_atom_site_type_symbol
_atom_site_symmetry_multiplicity
_atom_site_Wyckoff_symbol
_atom_site_fract_x
_atom_site_fract_y
_atom_site_fract_z
_atom_site_occupancy
_atom_site_attached_hydrogens
_atom_site_B_iso_or_equiv
Mo1 Mo2.5+ 8 f 0.22389(1) 0.24931(4) 0.04984(3) 1. 0 0 
S1 S6+ 8 f 0.19270(4) 0.4134(1) -.1607(1) 1. 0 0 
S2 S6+ 8 f 0.21434(4) -.0082(1) -.1041(1) 1. 0 0 
O1 O2- 8 f 0.2367(1) 0.3476(4) -.1747(3) 1. 0 0 
O2 O2- 8 f 0.1787(1) 0.3461(4) -.0619(3) 1. 0 0 
O3 O2- 8 f 0.1613(1) 0.3799(4) -.2513(3) 1. 0 0 
O4 O2- 8 f 0.1991(1) 0.5623(4) -.1432(3) 1. 0 0 
O5 O2- 8 f 0.2578(1) 0.0602(4) -.1202(3) 1. 0 0 
O6 O2- 8 f 0.2015(1) 0.0564(4) -.0031(3) 1. 0 0 
O7 O2- 8 f 0.1816(1) 0.0258(4) -.1932(3) 1. 0 0 
O8 O2- 8 f 0.2205(1) -.1560(4) -.0859(3) 1. 0 0 
O9 O2- 8 f 0.1711(1) 0.2568(5) 0.1890(3) 1. 0 0 
H1 H1+ 8 f 0.172(3) 0.176(10) 0.222(7) 1. 0 4. 
H2 H1+ 8 f 0.182(3) 0.299(10) 0.230(7) 1. 0 4. 
Mo2 Mo2.5+ 8 f 0.00281(1) 0.04341(5) 0.42270(3) 1. 0 0 
S3 S6+ 8 f 0.09850(4) -.0052(1) 0.5464(1) 1. 0 0 
S4 S6+ 8 f -.00355(4) 0.2861(1) 0.5878(1) 1. 0 0 
O10 O2- 8 f 0.0699(1) 0.0677(4) 0.4515(3) 1. 0 0 
O11 O2- 8 f 0.0638(1) -.0249(4) 0.6272(3) 1. 0 0 
O12 O2- 8 f 0.1103(1) -.1396(4) 0.5137(3) 1. 0 0 
O13 O2- 8 f 0.1300(1) 0.0892(4) 0.5914(3) 1. 0 0 
O14 O2- 8 f -.0057(1) 0.2483(4) 0.4717(3) 1. 0 0 
O15 O2- 8 f -.0129(1) 0.1488(4) 0.6426(3) 1. 0 0 
O16 O2- 8 f -.0390(1) 0.3827(4) 0.6001(3) 1. 0 0 
O17 O2- 8 f 0.0395(1) 0.3357(4) 0.6289(3) 1. 0 0 
O18 O2- 4 e 0 0.1798(6) 0.25 1. 0 0 
H3 H1+ 8 f 0.019(3) 0.216(9) 0.250(8) 1. 0 4. 
K1 K1+ 8 f 0.21463(4) 0.1757(1) -.3601(1) 1. 0 0 
K2 K1+ 8 f 0.09849(4) 0.1810(1) -.2097(1) 1. 0 0 
K3 K1+ 8 f 0.09767(5) 0.4264(2) 0.0889(1) 1. 0 0 
O19 O2- 8 f 0.0647(2) 0.3791(5) 0.2816(4) 1. 0 0 
O20 O2- 8 f 0.1265(2) 0.3525(5) 0.4667(4) 1. 0 0 
H4 H1+ 8 f 0.151(3) 0.361(10) 0.450(7) 1. 0 4. 
H5 H1+ 8 f 0.126(3) 0.279(10) 0.491(8) 1. 0 4. 
H6 H1+ 8 f 0.087(3) 0.353(9) 0.339(7) 1. 0 4. 
H7 H1+ 8 f 0.051(3) 0.419(11) 0.293(8) 1. 0 4. 

#End of data_27398-ICSD


