data_81538-ICSD
#?2014 by Fachinformationszentrum Karlsruhe, and the U.S. Secretary of 
#Commerce on behalf of the United States.  All rights reserved.
_database_code_ICSD                81538
_audit_creation_date               1997/05/13
_chemical_name_systematic          'Sodium Yttrium Titanate'
_chemical_formula_structural       'Na Y (Ti O4)'
_chemical_formula_sum              'Na1 O4 Ti1 Y1'
_publ_section_title
;
Crystal structure determination and ionic conductivity of layered 
perovskite compounds Na Ln Ti O4 (Ln = rare earth)
;
loop_
_citation_id
_citation_journal_abbrev
_citation_year
_citation_journal_volume
_citation_page_first
_citation_page_last
_citation_journal_id_ASTM
primary 'Journal of Alloys and Compounds' 1996 234 19 25 JALCEU
_publ_author_name
;
Toda, K.;Kameo, Y.;Kurita, S.;Sato, M.
;
_cell_length_a                     12.2134(3)
_cell_length_b                     5.3517(3)
_cell_length_c                     5.3509(3)
_cell_angle_alpha                  90.
_cell_angle_beta                   90.
_cell_angle_gamma                  90.
_cell_volume                       349.75
_cell_formula_units_Z              4
_symmetry_space_group_name_H-M     'P b c m'
_symmetry_Int_Tables_number        57
_refine_ls_R_factor_all            .023
loop_
_symmetry_equiv_pos_site_id
_symmetry_equiv_pos_as_xyz
  1	'x, -y+.5, z+.5'
  2	'-x, y+.5, z'
  3	'x, y, -z+.5'
  4	'-x, -y, -z'
  5	'-x, y+.5, -z+.5'
  6	'x, -y+.5, -z'
  7	'-x, -y, z+.5'
  8	'x, y, z'
loop_
_atom_type_symbol
_atom_type_oxidation_number
Na1+	1
O2-	-2
Ti4+	4
Y3+	3
loop_
_atom_site_label
_atom_site_type_symbol
_atom_site_symmetry_multiplicity
_atom_site_Wyckoff_symbol
_atom_site_fract_x
_atom_site_fract_y
_atom_site_fract_z
_atom_site_occupancy
_atom_site_attached_hydrogens
_atom_site_B_iso_or_equiv
Na1 Na1+ 4 d 0.5905(9) 0.0154(36) 0.25 1. 0 2.3(3) 
Y1 Y3+ 4 d 0.8931(2) 0.0298(8) 0.25 1. 0 0.4(1) 
Ti1 Ti4+ 4 d 0.2610(5) 0.0111(17) 0.25 1. 0 0.5(1) 
O1 O2- 4 c 0.2062(16) 0.25 0 1. 0 1.0(6) 
O2 O2- 4 c 0.7571(17) 0.25 0 1. 0 1.0(6) 
O3 O2- 4 d 0.0703(15) -.0809(50) 0.25 1. 0 1.2(7) 
O4 O2- 4 d 0.3980(14) 0.0568(49) 0.25 1. 0 1.1(5) 

#End of data_81538-ICSD


