data_9783-ICSD
#?2014 by Fachinformationszentrum Karlsruhe, and the U.S. Secretary of 
#Commerce on behalf of the United States.  All rights reserved.
_database_code_ICSD                9783
_audit_creation_date               1980/01/01
_audit_update_record               2002/04/01
_chemical_name_systematic          'Sodium Zinc Molybdate Hydroxide'
_chemical_formula_structural       'Na Zn (Mo O4) (O H)'
_chemical_formula_sum              'H1 Mo1 Na1 O5 Zn1'
_publ_section_title
;
Some Incorrect Space Groups in Inorganic Chemistry, Volume 16
;
loop_
_citation_id
_citation_journal_abbrev
_citation_year
_citation_journal_volume
_citation_page_first
_citation_page_last
_citation_journal_id_ASTM
primary 'Inorganic Chemistry' 1979 18 2331 2336 INOCAJ
2 'Inorganic Chemistry' 1977 16 628 628 INOCAJ
_publ_author_name                  'Marsh, R.E.;Schomaker, V.'
_cell_length_a                     7.85
_cell_length_b                     9.292
_cell_length_c                     6.148
_cell_angle_alpha                  90.
_cell_angle_beta                   90.
_cell_angle_gamma                  90.
_cell_volume                       448.45
_cell_formula_units_Z              4
_symmetry_space_group_name_H-M     'P n a m'
_symmetry_Int_Tables_number        62
_refine_ls_R_factor_all            .025
loop_
_symmetry_equiv_pos_site_id
_symmetry_equiv_pos_as_xyz
  1	'x+.5, -y+.5, z'
  2	'x, y, -z+.5'
  3	'-x+.5, y+.5, z+.5'
  4	'-x, -y, -z'
  5	'-x+.5, y+.5, -z'
  6	'-x, -y, z+.5'
  7	'x+.5, -y+.5, -z+.5'
  8	'x, y, z'
loop_
_atom_type_symbol
_atom_type_oxidation_number
H1+	1
Mo6+	6
Na1+	1
O2-	-2
Zn2+	2
loop_
_atom_site_label
_atom_site_type_symbol
_atom_site_symmetry_multiplicity
_atom_site_Wyckoff_symbol
_atom_site_fract_x
_atom_site_fract_y
_atom_site_fract_z
_atom_site_occupancy
_atom_site_attached_hydrogens
_atom_site_B_iso_or_equiv
Na1 Na1+ 4 c 0.36433(5) 0.3104(3) 0.75 1. 0 0 
Zn1 Zn2+ 4 b 0.5 0 0.5 1. 0 0 
Mo1 Mo6+ 4 c 0.12379(5) 0.17058(5) 0.25 1. 0 0 
O1 O2- 8 d 0.1140(4) 0.2785(3) 0.0153(4) 1. 0 0 
O2 O2- 4 c 0.4529(7) 0.4480(6) 0.25 1. 0 0 
O3 O2- 4 c 0.8691(5) 0.4357(4) 0.75 1. 0 0 
O4 O2- 4 c 0.3125(5) 0.0617(5) 0.25 1. 0 0 
H1 H1+ 4 c 0.783(13) 0.457(10) 0.75 1. 0 4. 

#End of data_9783-ICSD


