data_20404-ICSD
#?2014 by Fachinformationszentrum Karlsruhe, and the U.S. Secretary of 
#Commerce on behalf of the United States.  All rights reserved.
_database_code_ICSD                20404
_audit_creation_date               1982/12/31
_chemical_name_systematic          'Erbium Dipotassium Pentafluoride'
_chemical_formula_structural       'K2 Er F5'
_chemical_formula_sum              'Er1 F5 K2'
_publ_section_title
;
The crystal structure of erbium potassium pentafluoride K2 Er F5
;
loop_
_citation_id
_citation_journal_abbrev
_citation_year
_citation_journal_volume
_citation_page_first
_citation_page_last
_citation_journal_id_ASTM
primary 'Zhurnal Strukturnoi Khimii (Issue-No. from 1981)'
 1982 23 158 160 ZSTKAI
_publ_author_name
;
Podberezskaya, N.V.;Borisov, S.V.;Alekseev, V.I.;Tzejtlin, 
M.N.;Kurbanov, H.M.
;
_cell_length_a                     6.592(1)
_cell_length_b                     7.221(1)
_cell_length_c                     10.764(2)
_cell_angle_alpha                  90.
_cell_angle_beta                   90.
_cell_angle_gamma                  90.
_cell_volume                       512.38
_cell_formula_units_Z              4
_symmetry_space_group_name_H-M     'P c 21 n'
_symmetry_Int_Tables_number        33
_refine_ls_R_factor_all            .071
loop_
_symmetry_equiv_pos_site_id
_symmetry_equiv_pos_as_xyz
  1	'-x+.5, y, z+.5'
  2	'x+.5, y+.5, -z+.5'
  3	'-x, y+.5, -z'
  4	'x, y, z'
loop_
_atom_type_symbol
_atom_type_oxidation_number
Er3+	3
F1-	-1
K1+	1
loop_
_atom_site_label
_atom_site_type_symbol
_atom_site_symmetry_multiplicity
_atom_site_Wyckoff_symbol
_atom_site_fract_x
_atom_site_fract_y
_atom_site_fract_z
_atom_site_occupancy
_atom_site_attached_hydrogens
_atom_site_B_iso_or_equiv
Er1 Er3+ 4 a 0.06766(7) -.00499 0.00366(5) 1. 0 0.03 
K1 K1+ 4 a 0.046(2) 0.261(1) 0.328(1) 1. 0 0.75 
K2 K1+ 4 a 0.037(2) 0.748(1) 0.330(1) 1. 0 0.35 
F1 F1- 4 a 0.397(1) -.019(4) 0.012(1) 1. 0 0.2 
F2 F1- 4 a 0.157(5) 0.280(4) 0.064(2) 1. 0 0.3 
F3 F1- 4 a 0.154(5) 0.703(3) 0.079(3) 1. 0 0.5 
F4 F1- 4 a 0.341(2) 0.011(3) 0.308(1) 1. 0 0.3 
F5 F1- 4 a 0.379(2) 0.481(4) 0.330(1) 1. 0 0.6 

#End of data_20404-ICSD


