data_81731-ICSD
#?2014 by Fachinformationszentrum Karlsruhe, and the U.S. Secretary of 
#Commerce on behalf of the United States.  All rights reserved.
_database_code_ICSD                81731
_audit_creation_date               1997/05/13
_chemical_name_systematic
;
Dipotassium Phyllo-tetrathiotriniccolate
;
_chemical_formula_structural       'K2 (Ni3 S4)'
_chemical_formula_sum              'K2 Ni3 S4'
_publ_section_title
;
Structural and electronic properties of K2 Ni3 S4, a pseudo-two 
dimensional compound with a honeycomb-like arrangement
;
loop_
_citation_id
_citation_journal_abbrev
_citation_year
_citation_journal_volume
_citation_page_first
_citation_page_last
_citation_journal_id_ASTM
primary 'Journal of Alloys and Compounds' 1996 235 135 142 JALCEU
_publ_author_name
;
Elder, S.H.;Jobic, S.;Brec, R.;Gelabert, M.C.;DiSalvo, F.J.
;
_cell_length_a                     5.723(2)
_cell_length_b                     10.040(3)
_cell_length_c                     26.0590(70)
_cell_angle_alpha                  90.
_cell_angle_beta                   90.
_cell_angle_gamma                  90.
_cell_volume                       1497.32
_cell_formula_units_Z              8
_symmetry_space_group_name_H-M     'F d d d Z'
_symmetry_Int_Tables_number        70
_refine_ls_R_factor_all            .038
loop_
_symmetry_equiv_pos_site_id
_symmetry_equiv_pos_as_xyz
  1	'x+.75, y+.75, -z'
  2	'x+.75, -y, z+.75'
  3	'-x, y+.75, z+.75'
  4	'-x, -y, -z'
  5	'-x+.25, -y+.25, z'
  6	'-x+.25, y, -z+.25'
  7	'x, -y+.25, -z+.25'
  8	'x, y, z'
  9	'x+.75, y+.25, -z+.5'
 10	'x+.25, y+.75, -z+.5'
 11	'x+.25, y+.25, -z'
 12	'x+.75, -y+.5, z+.25'
 13	'x+.25, -y, z+.25'
 14	'x+.25, -y+.5, z+.75'
 15	'-x, y+.25, z+.25'
 16	'-x+.5, y+.75, z+.25'
 17	'-x+.5, y+.25, z+.75'
 18	'-x, -y+.5, -z+.5'
 19	'-x+.5, -y, -z+.5'
 20	'-x+.5, -y+.5, -z'
 21	'-x+.25, -y+.75, z+.5'
 22	'-x+.75, -y+.25, z+.5'
 23	'-x+.75, -y+.75, z'
 24	'-x+.25, y+.5, -z+.75'
 25	'-x+.75, y, -z+.75'
 26	'-x+.75, y+.5, -z+.25'
 27	'x, -y+.75, -z+.75'
 28	'x+.5, -y+.25, -z+.75'
 29	'x+.5, -y+.75, -z+.25'
 30	'x, y+.5, z+.5'
 31	'x+.5, y, z+.5'
 32	'x+.5, y+.5, z'
loop_
_atom_type_symbol
_atom_type_oxidation_number
K1+	1
Ni2+	2
S2-	-2
loop_
_atom_site_label
_atom_site_type_symbol
_atom_site_symmetry_multiplicity
_atom_site_Wyckoff_symbol
_atom_site_fract_x
_atom_site_fract_y
_atom_site_fract_z
_atom_site_occupancy
_atom_site_attached_hydrogens
Ni1 Ni2+ 8 a 0.125 0.125 0.125 1. 0 
Ni2 Ni2+ 16 g 0.375 0.375 0.12443(5) 1. 0 
K1 K1+ 16 g 0.625 0.125 0.04451(9) 1. 0 
S1 S2- 32 h 0.1292(4) -.0413(2) 0.06876(7) 1. 0 

loop_
_atom_site_aniso_label
_atom_site_aniso_type_symbol
_atom_site_aniso_U_11
_atom_site_aniso_U_22
_atom_site_aniso_U_33
_atom_site_aniso_U_12
_atom_site_aniso_U_13
_atom_site_aniso_U_23
Ni1 Ni2+ 0.0127(7) 0.0082(8) 0.0143(7) 0 0 0
Ni2 Ni2+ 0.0111(4) 0.0076(5) 0.0139(4) -.0010(5) 0 0
K1 K1+ 0.023(1) 0.020(1) 0.022(1) -.002(2) 0 0
S1 S2- 0.0160(7) 0.0107(8) 0.0143(7) 0.000(1) 0.0002(8) -.0006(6)
#End of data_81731-ICSD


