data_88023-ICSD
#?2014 by Fachinformationszentrum Karlsruhe, and the U.S. Secretary of 
#Commerce on behalf of the United States.  All rights reserved.
_database_code_ICSD                88023
_audit_creation_date               2001/07/16
_chemical_name_systematic          'Dimagnesium Silicate'
_chemical_formula_structural       'Mg2 (Si O4)'
_chemical_formula_sum              'Mg2 O4 Si1'
_publ_section_title
;
Rietveld refinement of site-occupancy parameters of Mg2-x Mnx Si O4 
using a new weight function in least-squares fitting
;
loop_
_citation_id
_citation_journal_abbrev
_citation_year
_citation_journal_volume
_citation_page_first
_citation_page_last
_citation_journal_id_ASTM
primary 'Journal of Applied Crystallography' 1999 32 51 59 JACGAR
_publ_author_name                  'Yamazaki, S.;Toraya, H.'
_cell_length_a                     10.20141(7)
_cell_length_b                     5.98348(4)
_cell_length_c                     4.75534(4)
_cell_angle_alpha                  90.
_cell_angle_beta                   90.
_cell_angle_gamma                  90.
_cell_volume                       290.27
_cell_formula_units_Z              4
_symmetry_space_group_name_H-M     'P n m a'
_symmetry_Int_Tables_number        62
loop_
_symmetry_equiv_pos_site_id
_symmetry_equiv_pos_as_xyz
  1	'x+.5, y, -z+.5'
  2	'x, -y+.5, z'
  3	'-x+.5, y+.5, z+.5'
  4	'-x, -y, -z'
  5	'-x+.5, -y, z+.5'
  6	'-x, y+.5, -z'
  7	'x+.5, -y+.5, -z+.5'
  8	'x, y, z'
loop_
_atom_type_symbol
_atom_type_oxidation_number
Mg2+	2
O2-	-2
Si4+	4
loop_
_atom_site_label
_atom_site_type_symbol
_atom_site_symmetry_multiplicity
_atom_site_Wyckoff_symbol
_atom_site_fract_x
_atom_site_fract_y
_atom_site_fract_z
_atom_site_occupancy
_atom_site_attached_hydrogens
_atom_site_B_iso_or_equiv
Mg1 Mg2+ 4 a 0 0 0 1. 0 0.66(2) 
Mg2 Mg2+ 4 c 0.2773(1) 0.25 0.9915(2) 1. 0 0.60(2) 
Si1 Si4+ 4 c 0.0940(1) 0.25 0.4264(2) 1. 0 0.50(2) 
O1 O2- 4 c 0.0916(2) 0.25 0.7653(5) 1. 0 0.57(3) 
O2 O2- 4 c 0.4469(2) 0.25 0.2211(5) 1. 0 0.52(4) 
O3 O2- 8 d 0.1627(1) 0.0332(2) 0.2778(3) 1. 0 0.57(3) 

#End of data_88023-ICSD


