data_186224-ICSD
#?2014 by Fachinformationszentrum Karlsruhe, and the U.S. Secretary of 
#Commerce on behalf of the United States.  All rights reserved.
_database_code_ICSD                186224
_audit_creation_date               2013/02/01
_chemical_name_systematic          'Calcium Titanium Oxide'
_chemical_formula_structural       'Ca (Ti O3)'
_chemical_formula_sum              'Ca1 O3 Ti1'
_publ_section_title
;
Structural refinement and photoluminescence properties of irregular 
cube-like (Ca1-x Cux) Ti O3 microcrystals synthesized by the 
microwave-hydrothermal method
;
loop_
_citation_id
_citation_journal_abbrev
_citation_year
_citation_journal_volume
_citation_journal_issue
_citation_page_first
_citation_page_last
_citation_journal_id_ASTM
primary 'Materials Chemistry and Physics' 2012 136 1 130 139 MCHPDR
_publ_author_name
;
Oliveira, L.H.;de Moura, A.P.;Mazzo, T.M.;Ramirez, M.A.;Cavalcante, 
L.S.;Antonio, S.G.;Avansi, W.;Mastelaro, V.R.;Longo, E.;Varela, J.A.
;
_cell_length_a                     5.4035(2)
_cell_length_b                     5.4878(2)
_cell_length_c                     7.6626(2)
_cell_angle_alpha                  90.
_cell_angle_beta                   90.
_cell_angle_gamma                  90.
_cell_volume                       227.22
_cell_formula_units_Z              4
_symmetry_space_group_name_H-M     'P b n m'
_symmetry_Int_Tables_number        62
_refine_ls_R_factor_all            .016
loop_
_symmetry_equiv_pos_site_id
_symmetry_equiv_pos_as_xyz
  1	'-x+.5, y+.5, z'
  2	'x, y, -z+.5'
  3	'x+.5, -y+.5, z+.5'
  4	'-x, -y, -z'
  5	'x+.5, -y+.5, -z'
  6	'-x, -y, z+.5'
  7	'-x+.5, y+.5, -z+.5'
  8	'x, y, z'
loop_
_atom_type_symbol
_atom_type_oxidation_number
Ca2+	2
O2-	-2
Ti4+	4
loop_
_atom_site_label
_atom_site_type_symbol
_atom_site_symmetry_multiplicity
_atom_site_Wyckoff_symbol
_atom_site_fract_x
_atom_site_fract_y
_atom_site_fract_z
_atom_site_occupancy
_atom_site_attached_hydrogens
Ca1 Ca2+ 4 c -0.007 0.04 0.25 1. 0 
Ti1 Ti4+ 4 b 0 0.5 0 1. 0 
O1 O2- 4 c 0.082 0.485 0.25 1. 0 
O2 O2- 8 d 0.71 0.29 0.036 1. 0 

#End of data_186224-ICSD


