data_16907-ICSD
#?2014 by Fachinformationszentrum Karlsruhe, and the U.S. Secretary of 
#Commerce on behalf of the United States.  All rights reserved.
_database_code_ICSD                16907
_audit_creation_date               1980/01/01
_audit_update_record               1999/01/19
_chemical_name_systematic          'Sodium Tecto-borotrisilicate *'
_chemical_formula_structural       'Na (B Si3 O8)'
_chemical_formula_sum              'B1 Na1 O8 Si3'
_chemical_name_mineral             Reedmergnerite
_publ_section_title
;
Crystal structure of reedmergnerite, a boron albite, and ist relation 
to feldspar crystal chemistry
;
loop_
_citation_id
_citation_journal_abbrev
_citation_year
_citation_journal_volume
_citation_page_first
_citation_page_last
_citation_journal_id_ASTM
primary 'American Mineralogist' 1965 50 1827 1850 AMMIAY
_publ_author_name                  'Appleman, D.E.;Clark, J.R.'
_cell_length_a                     7.833(1)
_cell_length_b                     12.360(2)
_cell_length_c                     6.803(1)
_cell_angle_alpha                  93.308(12)
_cell_angle_beta                   116.352(8)
_cell_angle_gamma                  92.005(13)
_cell_volume                       587.86
_cell_formula_units_Z              4
_symmetry_space_group_name_H-M     'C -1'
_symmetry_Int_Tables_number        2
_refine_ls_R_factor_all            .109
loop_
_symmetry_equiv_pos_site_id
_symmetry_equiv_pos_as_xyz
  1	'-x, -y, -z'
  2	'x, y, z'
  3	'-x+.5, -y+.5, -z'
  4	'x+.5, y+.5, z'
loop_
_atom_type_symbol
_atom_type_oxidation_number
B3+	3
Na1+	1
O2-	-2
Si4+	4
loop_
_atom_site_label
_atom_site_type_symbol
_atom_site_symmetry_multiplicity
_atom_site_Wyckoff_symbol
_atom_site_fract_x
_atom_site_fract_y
_atom_site_fract_z
_atom_site_occupancy
_atom_site_attached_hydrogens
_atom_site_B_iso_or_equiv
O1 O2- 4 i 0.0076(4) 0.1364(4) 0.0040(4) 1. 0 0.56(3) 
O2 O2- 4 i 0.5929(4) 0.9812(4) 0.2758(4) 1. 0 0.55(3) 
O3 O2- 4 i 0.8455(4) 0.0995(4) 0.2126(4) 1. 0 0.70(3) 
O4 O2- 4 i 0.8163(4) 0.8347(4) 0.2335(4) 1. 0 0.71(3) 
O5 O2- 4 i 0.0064(4) 0.2762(4) 0.2725(4) 1. 0 0.66(3) 
O6 O2- 4 i 0.0289(4) 0.6799(4) 0.2070(4) 1. 0 0.74(3) 
O7 O2- 4 i 0.1900(4) 0.1200(4) 0.3815(4) 1. 0 0.66(3) 
O8 O2- 4 i 0.1922(4) 0.8682(4) 0.4172(4) 1. 0 0.63(3) 
B1 B3+ 4 i 0.0127(6) 0.1617(6) 0.2217(6) 1. 0 0.38(4) 
Si1 Si4+ 4 i 0.0059(2) 0.8100(2) 0.2097(2) 1. 0 0.28(1) 
Si2 Si4+ 4 i 0.7029(2) 0.1015(2) 0.3204(2) 1. 0 0.31(1) 
Si3 Si4+ 4 i 0.6847(2) 0.8644(2) 0.3547(2) 1. 0 0.31(1) 
Na1 Na1+ 4 i 0.2586(3) 0.0075(3) 0.1332(3) 1. 0 1.22(3) 

#End of data_16907-ICSD


