data_174336-ICSD
#?2014 by Fachinformationszentrum Karlsruhe, and the U.S. Secretary of 
#Commerce on behalf of the United States.  All rights reserved.
_database_code_ICSD                174336
_audit_creation_date               2010/08/01
_audit_update_record               2012/02/01
_chemical_name_systematic          'Potassium Magnesium Borate'
_chemical_formula_structural       'K Mg (B O3)'
_chemical_formula_sum              'B1 K1 Mg1 O3'
_publ_section_title
;
Structure determination and relative properties of novel chiral 
orthoborate K Mg B O3
;
loop_
_citation_id
_citation_journal_abbrev
_citation_year
_citation_journal_volume
_citation_journal_issue
_citation_page_first
_citation_page_last
_citation_journal_id_ASTM
primary 'Inorganic Chemistry' 2010 49 6 2715 2720 INOCAJ
2 'Inorganic Chemistry' 2010 49 8 3958 3958 INOCAJ
_publ_author_name
;
Wu, L.;Sun, J.C.;Zhang, Y.;Jin, S.-F.;Kong, Y.-F.;Xu, J.-J.
;
_cell_length_a                     6.83443(4)
_cell_length_b                     6.83443(4)
_cell_length_c                     6.83443(4)
_cell_angle_alpha                  90.00
_cell_angle_beta                   90.00
_cell_angle_gamma                  90.00
_cell_volume                       319.23
_cell_formula_units_Z              4
_symmetry_space_group_name_H-M     'P 21 3'
_symmetry_Int_Tables_number        198
_refine_ls_R_factor_all            .0649
loop_
_symmetry_equiv_pos_site_id
_symmetry_equiv_pos_as_xyz
  1	'-z+.5, -x, y+.5'
  2	'-y+.5, -z, x+.5'
  3	'-x+.5, -y, z+.5'
  4	'-z, x+.5, -y+.5'
  5	'-y, z+.5, -x+.5'
  6	'-x, y+.5, -z+.5'
  7	'z+.5, -x+.5, -y'
  8	'y+.5, -z+.5, -x'
  9	'x+.5, -y+.5, -z'
 10	'z, x, y'
 11	'y, z, x'
 12	'x, y, z'
loop_
_atom_type_symbol
_atom_type_oxidation_number
B3+	3
K1+	1
Mg2+	2
O2-	-2
loop_
_atom_site_label
_atom_site_type_symbol
_atom_site_symmetry_multiplicity
_atom_site_Wyckoff_symbol
_atom_site_fract_x
_atom_site_fract_y
_atom_site_fract_z
_atom_site_occupancy
_atom_site_attached_hydrogens
_atom_site_U_iso_or_equiv
Mg1 Mg2+ 4 a .8542(2) .8542(2) .8542(2) 1 0 .0072(1) 
K1 K1+ 4 a .1344(1) .1344(1) .1344(1) 1 0 .01454(7) 
O1 O2- 12 b .4153(1) .2576(1) .5376(1) 1 0 .0105(1) 
B1 B3+ 4 a .4002(1) .4002(1) .4002(1) 1 0 .0301(5) 

#End of data_174336-ICSD


