data_35085-ICSD
#?2014 by Fachinformationszentrum Karlsruhe, and the U.S. Secretary of 
#Commerce on behalf of the United States.  All rights reserved.
_database_code_ICSD                35085
_audit_creation_date               1982/12/31
_audit_update_record               2012/08/01
_chemical_name_systematic          'Calcium Hexaoxotellurate'
_chemical_formula_structural       'Ca3 Te O6'
_chemical_formula_sum              'Ca3 O6 Te1'
_publ_section_title
;
Cadmiumorthotellurat(VI) Cd3 Te O6: ein pseudoorthorhombischer 
Kryolith im Vergleich mit Ca3 Te O6
;
loop_
_citation_id
_citation_journal_abbrev
_citation_year
_citation_journal_volume
_citation_page_first
_citation_page_last
_citation_journal_id_ASTM
primary 'Acta Crystallographica B (24,1968-38,1982)' 1982 38 2450 2452 ACBCAR
_publ_author_name
;
Burckhardt, H.G.;Platte, C.;Troemel, M.
;
_cell_length_a                     5.5782(8)
_cell_length_b                     5.7998(9)
_cell_length_c                     8.017(1)
_cell_angle_alpha                  90.
_cell_angle_beta                   90.217(5)
_cell_angle_gamma                  90.
_cell_volume                       259.37
_cell_formula_units_Z              2
_symmetry_space_group_name_H-M     'P 1 21/n 1'
_symmetry_Int_Tables_number        14
_refine_ls_R_factor_all            .033
loop_
_symmetry_equiv_pos_site_id
_symmetry_equiv_pos_as_xyz
  1	'-x+.5, y+.5, -z+.5'
  2	'-x, -y, -z'
  3	'x+.5, -y+.5, z+.5'
  4	'x, y, z'
loop_
_atom_type_symbol
_atom_type_oxidation_number
Ca2+	2
O2-	-2
Te6+	6
loop_
_atom_site_label
_atom_site_type_symbol
_atom_site_symmetry_multiplicity
_atom_site_Wyckoff_symbol
_atom_site_fract_x
_atom_site_fract_y
_atom_site_fract_z
_atom_site_occupancy
_atom_site_attached_hydrogens
Te1 Te6+ 2 a 0 0 0 1. 0 
Ca1 Ca2+ 2 b 0 0 0.5 1. 0 
Ca2 Ca2+ 4 e 0.5143(2) -.0525(3) 0.2459(1) 1. 0 
O1 O2- 4 e 0.1097(7) 0.0529(9) 0.2249(5) 1. 0 
O2 O2- 4 e -.2820(7) 0.1760(8) 0.0476(5) 1. 0 
O3 O2- 4 e 0.1700(7) 0.2744(8) -.0676(5) 1. 0 

loop_
_atom_site_aniso_label
_atom_site_aniso_type_symbol
_atom_site_aniso_U_11
_atom_site_aniso_U_22
_atom_site_aniso_U_33
_atom_site_aniso_U_12
_atom_site_aniso_U_13
_atom_site_aniso_U_23
Te1 Te6+ 0.0025(3) 0.0047(3) 0.0030(2) 0.0002(1) -.0007(1) 0.0000(2)
Ca1 Ca2+ 0.0047(7) 0.0078(9) 0.0064(6) -.0004(5) -.0013(4) 0.0007(5)
Ca2 Ca2+ 0.0077(5) 0.0081(6) 0.0093(4) -.0010(3) -.0002(3) 0.0001(4)
O1 O2- 0.0094(20) 0.0119(21) 0.0040(15) 0.0005(13) -.0014(12) -.0025(14)
O2 O2- 0.0057(19) 0.0108(23) 0.0109(16) 0.0041(14) 0.0031(13) 0.0037(15)
O3 O2- 0.0059(18) 0.0084(22) 0.0113(16) -.0010(13) -.0020(12) 0.0061(15)
#End of data_35085-ICSD


