data_63260-ICSD
#?2014 by Fachinformationszentrum Karlsruhe, and the U.S. Secretary of 
#Commerce on behalf of the United States.  All rights reserved.
_database_code_ICSD                63260
_audit_creation_date               1989/12/04
_audit_update_record               2013/02/01
_chemical_name_systematic
;
Hexacopper(I) Silver Lead Dodecabismuth Docosasulfide
;
_chemical_formula_structural       'Cu6 Ag Pb Bi12 S22'
_chemical_formula_sum              'Ag1 Bi12 Cu6 Pb1 S22'
_chemical_name_mineral             Paderaite
_publ_section_title
;
The crystal structure of paderaite, a mineral of the cuprobismutite 
series.
;
loop_
_citation_id
_citation_journal_abbrev
_citation_year
_citation_journal_volume
_citation_journal_issue
_citation_page_first
_citation_page_last
_citation_journal_id_ASTM
primary 'Canadian Mineralogist' 1986 24- 513 521 CAMIA6
2 'Neues Jahrbuch fuer Mineralogie. Monatshefte (Band=Jahr) (1950-)'
 1985 1985 12 557 567 NJMMAW
_publ_author_name                  'Mumme, W.G.'
_cell_length_a                     28.440(80)
_cell_length_b                     3.90(3)
_cell_length_c                     17.550(80)
_cell_angle_alpha                  90.
_cell_angle_beta                   106.0(2)
_cell_angle_gamma                  90.
_cell_volume                       1871.17
_cell_formula_units_Z              2
_symmetry_space_group_name_H-M     'P 1 21/m 1'
_symmetry_Int_Tables_number        11
_refine_ls_R_factor_all            .06
loop_
_symmetry_equiv_pos_site_id
_symmetry_equiv_pos_as_xyz
  1	'x, -y+.5, z'
  2	'-x, -y, -z'
  3	'-x, y+.5, -z'
  4	'x, y, z'
loop_
_atom_type_symbol
_atom_type_oxidation_number
Ag1+	1
Bi2.917+	2.917
Cu1+	1
Pb2+	2
S2-	-2
loop_
_atom_site_label
_atom_site_type_symbol
_atom_site_symmetry_multiplicity
_atom_site_Wyckoff_symbol
_atom_site_fract_x
_atom_site_fract_y
_atom_site_fract_z
_atom_site_occupancy
_atom_site_attached_hydrogens
_atom_site_U_iso_or_equiv
Ag1 Ag1+ 2 e 0.0004(15) 0.25 0.4125(23) 1. 0 0.0258(99) 
Pb1 Pb2+ 2 e 0.1810(5) 0.25 0.3400(8) 1. 0 0.0074(34) 
Cu1 Cu1+ 2 e 0.3058(25) 0.25 0.368(25) 1. 0 0.048(25) 
Cu2 Cu1+ 2 e 0.4937(14) 0.25 0.3413(23) 1. 0 0.0013(30) 
Bi1 Bi2.917+ 2 e 0.6190(4) 0.75 0.2756(7) 1. 0 0.0023(28) 
Bi2 Bi2.917+ 2 e 0.7740(6) 0.75 0.2937(9) 1. 0 0.0127(38) 
Bi3 Bi2.917+ 2 e 0.9187(6) 0.75 0.2819(10) 1. 0 0.0166(41) 
Cu3 Cu1+ 2 e 0.0614(16) 0.25 0.3068(24) 1. 0 0.0051(29) 
Cu4 Cu1+ 2 e 0.2467(17) 0.75 0.2191(26) 1. 0 0.0075(36) 
Bi4 Bi2.917+ 2 e 0.3811(5) 0.75 0.2286(8) 1. 0 0.0069(39) 
Cu5 Cu1+ 2 e 0.5123(19) 0.25 0.1633(29) 1. 0 0.0027(85) 
Cu6 Cu1+ 2 e 0.6976(17) 0.25 0.1232(27) 1. 0 0.0037(75) 
Bi5 Bi2.917+ 2 e 0.8210(4) 0.25 0.1185(7) 1. 0 0.0025(35) 
Bi6 Bi2.917+ 2 e 0.0048(5) 0.75 0.1062(8) 1. 0 0.0011(34) 
Bi7 Bi2.917+ 2 e 0.1349(6) 0.25 0.0956(9) 1. 0 0.0146(41) 
Bi8 Bi2.917+ 2 e 0.2824(5) 0.25 0.0552(7) 1. 0 0.0009(30) 
Bi9 Bi2.917+ 2 e 0.5694(5) 0.75 0.0150(8) 1. 0 0.0045(33) 
Bi10 Bi2.917+ 2 e 0.4299(4) 0.75 0.4813(7) 1. 0 0.0047(35) 
Bi11 Bi2.917+ 2 e 0.7203(5) 0.25 0.4613(8) 1. 0 0.0090(51) 
Bi12 Bi2.917+ 2 e 0.8786(5) 0.25 0.4784(8) 1. 0 0.0011(31) 
S1 S2- 2 e 0.6522(39) 0.75 0.4267(61) 1. 0 0.040(28) 
S2 S2- 2 e 0.7938(46) 0.75 0.4708(71) 1. 0 0.025(32) 
S3 S2- 2 e 0.9400(53) 0.75 0.4800(84) 1. 0 0.019(46) 
S4 S2- 2 e 0.0984(26) 0.75 0.3656(40) 1. 0 0.005(15) 
S5 S2- 2 e 0.2646(28) 0.75 0.3858(44) 1. 0 0.007(13) 
S6 S2- 2 e 0.3886(26) 0.25 0.3933(39) 1. 0 0.004(16) 
S7 S2- 2 e 0.4998(31) 0.75 0.4086(48) 1. 0 0.015(31) 
S8 S2- 2 e 0.5683(31) 0.25 0.2951(49) 1. 0 0.003(32) 
S9 S2- 2 e 0.7062(30) 0.25 0.2846(47) 1. 0 0.004(28) 
S10 S2- 2 e 0.8388(52) 0.25 0.2854(82) 1. 0 0.062(45) 
S11 S2- 2 e 0.9798(36) 0.25 0.2722(56) 1. 0 0.021(36) 
S12 S2- 2 e 0.1662(22) 0.75 0.2042(33) 1. 0 0.0009(58) 
S13 S2- 2 e 0.2990(32) 0.25 0.1996(48) 1. 0 0.0007(63) 
S14 S2- 2 e 0.4449(36) 0.25 0.2217(56) 1. 0 0.015(21) 
S15 S2- 2 e 0.6096(26) 0.25 0.1093(41) 1. 0 0.005(20) 
S16 S2- 2 e 0.7340(31) 0.75 0.1334(48) 1. 0 0.003(18) 
S17 S2- 2 e 0.8799(42) 0.75 0.1215(64) 1. 0 0.031(36) 
S18 S2- 2 e 0.0602(28) 0.75 0.0049(43) 1. 0 0.0009(39) 
S19 S2- 2 e 0.2059(43) 0.75 0.0375(67) 1. 0 0.022(21) 
S20 S2- 2 e 0.3505(26) 0.75 0.0714(40) 1. 0 0.0008(46) 
S21 S2- 2 e 0.5027(24) 0.75 0.0898(37) 1. 0 0.0015(63) 
S22 S2- 2 e 0.0712(29) 0.25 0.1818(45) 1. 0 0.0051(79) 

#End of data_63260-ICSD


