data_628460-ICSD
#?2014 by Fachinformationszentrum Karlsruhe, and the U.S. Secretary of 
#Commerce on behalf of the United States.  All rights reserved.
_database_code_ICSD                628460
_audit_creation_date               2013/02/01
_chemical_name_systematic          'Sodium Copper Sulfide (2/4/3)'
_chemical_formula_structural       'Na2 Cu4 S3'
_chemical_formula_sum              'Cu4 Na2 S3'
_publ_section_title                'Study of the Pb O - Fe~g3 S system'
loop_
_citation_id
_citation_journal_abbrev
_citation_year
_citation_journal_volume
_citation_journal_issue
_citation_page_first
_citation_page_last
_citation_journal_id_ASTM
primary 'Russian Journal of Inorganic Chemistry' 1964 9 6 762 763 RJICAQ
_publ_author_name
;
Kopylov, N.I.;Novoselov, S.S.;Yuzbak, L.A.;Kashaev, A.A.
;
_cell_length_a                     16.0
_cell_length_b                     3.80
_cell_length_c                     11.9
_cell_angle_alpha                  90.0
_cell_angle_beta                   96
_cell_angle_gamma                  90.0
_cell_volume                       719.56
_cell_formula_units_Z              4
_symmetry_space_group_name_H-M     'C 1 2/m 1'
_symmetry_Int_Tables_number        12
loop_
_symmetry_equiv_pos_site_id
_symmetry_equiv_pos_as_xyz
  1	'-x, y, -z'
  2	'-x, -y, -z'
  3	'x, -y, z'
  4	'x, y, z'
  5	'-x+.5, y+.5, -z'
  6	'-x+.5, -y+.5, -z'
  7	'x+.5, -y+.5, z'
  8	'x+.5, y+.5, z'
loop_
_atom_type_symbol
_atom_type_oxidation_number
Cu1+	1
Na1+	1
S2-	-2
loop_
_atom_site_label
_atom_site_type_symbol
_atom_site_symmetry_multiplicity
_atom_site_Wyckoff_symbol
_atom_site_fract_x
_atom_site_fract_y
_atom_site_fract_z
_atom_site_occupancy
_atom_site_attached_hydrogens
Na1 Na1+ 4 i 0.332 0 0.160 1. 0 
Na2 Na1+ 4 i 0.187 0 0.342 1. 0 
Cu1 Cu1+ 4 i 0.011 0 0.878 1. 0 
Cu2 Cu1+ 4 i 0.020 0 0.633 1. 0 
Cu3 Cu1+ 4 i 0.594 0 0.092 1. 0 
Cu4 Cu1+ 4 i 0.595 0 0.513 1. 0 
S1 S2- 4 i 0.145 0 0.042 1. 0 
S2 S2- 4 i 0.160 0 0.613 1. 0 
S3 S2- 4 i 0.466 0 0.720 1. 0 

#End of data_628460-ICSD


