data_73216-ICSD
#?2014 by Fachinformationszentrum Karlsruhe, and the U.S. Secretary of 
#Commerce on behalf of the United States.  All rights reserved.
_database_code_ICSD                73216
_audit_creation_date               1994/06/30
_chemical_name_systematic          'Tripotassium Niccolate(I)'
_chemical_formula_structural       'K3 (Ni O2)'
_chemical_formula_sum              'K3 Ni1 O2'
_publ_section_title
;
Das erste Oxoferrat(I): zur Konstitution von K3(FeO2) und K3(NiO2)
;
loop_
_citation_id
_citation_journal_abbrev
_citation_year
_citation_journal_volume
_citation_page_first
_citation_page_last
_citation_journal_id_ASTM
primary 'Zeitschrift fuer Anorganische und Allgemeine Chemie (1950) (DE)'
 1993 619 969 975 ZAACAB
_publ_author_name                  'Bernhardt, F.;Hoppe, R.'
_cell_length_a                     6.036(1)
_cell_length_b                     6.036(1)
_cell_length_c                     14.052(2)
_cell_angle_alpha                  90.
_cell_angle_beta                   90.
_cell_angle_gamma                  90.
_cell_volume                       511.96
_cell_formula_units_Z              4
_symmetry_space_group_name_H-M     'P 41 21 2'
_symmetry_Int_Tables_number        92
_refine_ls_R_factor_all            .087
loop_
_symmetry_equiv_pos_site_id
_symmetry_equiv_pos_as_xyz
  1	'x+.5, -y+.5, -z+.75'
  2	'-x+.5, y+.5, -z+.25'
  3	'-y, -x, -z+.5'
  4	'y, x, -z'
  5	'y+.5, -x+.5, z+.75'
  6	'-y+.5, x+.5, z+.25'
  7	'-x, -y, z+.5'
  8	'x, y, z'
loop_
_atom_type_symbol
_atom_type_oxidation_number
K1+	1
Ni1+	1
O2-	-2
loop_
_atom_site_label
_atom_site_type_symbol
_atom_site_symmetry_multiplicity
_atom_site_Wyckoff_symbol
_atom_site_fract_x
_atom_site_fract_y
_atom_site_fract_z
_atom_site_occupancy
_atom_site_attached_hydrogens
Ni1 Ni1+ 4 a 0.9949(2) 0.9949(2) 0 1. 0 
K1 K1+ 4 a 0.4475(3) 0.4475(3) 0 1. 0 
K2 K1+ 8 b 0.9787(3) 0.5191(3) 0.8768(3) 1. 0 
O1 O2- 8 b 0.7889(7) 0.1995(7) 0.9893(3) 1. 0 

loop_
_atom_site_aniso_label
_atom_site_aniso_type_symbol
_atom_site_aniso_U_11
_atom_site_aniso_U_22
_atom_site_aniso_U_33
_atom_site_aniso_U_12
_atom_site_aniso_U_13
_atom_site_aniso_U_23
Ni1 Ni1+ 0.0128(3) 0.0128(3) 0.0219(4) 0.0033(4) 0.0001(4) -.0001(4)
K1 K1+ 0.0372(10) 0.0372(10) 0.1035(25) 0.0288(11) 0.0015(16) -.0015(16)
K2 K1+ 0.0237(11) 0.0197(11) 0.0197(7) 0.0012(10) 0.0008(9) -.0038(8)
O1 O2- 0.0103(22) 0.0147(23) 0.0444(30) 0.0055(12) -.0019(37) 0.0003(38)
#End of data_73216-ICSD


