data_24866-ICSD
#?2014 by Fachinformationszentrum Karlsruhe, and the U.S. Secretary of 
#Commerce on behalf of the United States.  All rights reserved.
_database_code_ICSD                24866
_audit_creation_date               1980/01/01
_audit_update_record               2010/02/01
_chemical_name_systematic          'Disodium Zirconium Disilicate'
_chemical_formula_structural       'Na2 Zr (Si2 O7)'
_chemical_formula_sum              'Na2 O7 Si2 Zr1'
_chemical_name_mineral             Parakeldyshite
_publ_section_title
;
Crystal structure of a new natural modification of Na2 Zr (Si2 O7)
;
loop_
_citation_id
_citation_journal_abbrev
_citation_year
_citation_journal_volume
_citation_page_first
_citation_page_last
_citation_journal_id_ASTM
primary 'Zhurnal Strukturnoi Khimii (Issue-No. from 1981)'
 1970 11 932 933 ZSTKAI
2 'Powder Diffraction' 1987 2 176 179 PODIE2
_publ_author_name
;
Voronkov, A.A.;Shumyatskaya, N.G.;Pyatenko, Yu.A.
;
_cell_length_a                     6.66(3)
_cell_length_b                     8.83(4)
_cell_length_c                     5.42(2)
_cell_angle_alpha                  92.75
_cell_angle_beta                   94.25
_cell_angle_gamma                  72.33
_cell_volume                       302.76
_cell_formula_units_Z              2
_symmetry_space_group_name_H-M     'P -1'
_symmetry_Int_Tables_number        2
_refine_ls_R_factor_all            .145
loop_
_symmetry_equiv_pos_site_id
_symmetry_equiv_pos_as_xyz
  1	'-x, -y, -z'
  2	'x, y, z'
loop_
_atom_type_symbol
_atom_type_oxidation_number
Na1+	1
O2-	-2
Si4+	4
Zr4+	4
loop_
_atom_site_label
_atom_site_type_symbol
_atom_site_symmetry_multiplicity
_atom_site_Wyckoff_symbol
_atom_site_fract_x
_atom_site_fract_y
_atom_site_fract_z
_atom_site_occupancy
_atom_site_attached_hydrogens
Zr1 Zr4+ 2 i 0.289 0.271 0.22 1. 0 
Si1 Si4+ 2 i 0.642 0.146 0.772 1. 0 
Si2 Si4+ 2 i 0.935 0.336 0.689 1. 0 
Na1 Na1+ 2 i 0.874 0.099 0.264 1. 0 
Na2 Na1+ 2 i 0.299 0.492 0.738 1. 0 
O1 O2- 2 i 0.296 0.037 0.176 1. 0 
O2 O2- 2 i 0.884 0.169 0.745 1. 0 
O3 O2- 2 i 0.497 0.206 0.524 1. 0 
O4 O2- 2 i 0.557 0.252 0.023 1. 0 
O5 O2- 2 i 0.002 0.316 0.395 1. 0 
O6 O2- 2 i 0.123 0.34 0.886 1. 0 
O7 O2- 2 i 0.3 0.52 0.23 1. 0 

#End of data_24866-ICSD


