data_85320-ICSD
#?2014 by Fachinformationszentrum Karlsruhe, and the U.S. Secretary of 
#Commerce on behalf of the United States.  All rights reserved.
_database_code_ICSD                85320
_audit_creation_date               1999/06/02
_audit_update_record               2003/04/01
_chemical_name_systematic          'Potassium Calcium Fluoride'
_chemical_formula_structural       'K Ca F3'
_chemical_formula_sum              'Ca1 F3 K1'
_publ_section_title
;
Crystal structure of K Ca F3 determined by the Rietveld profile 
method
;
loop_
_citation_id
_citation_journal_abbrev
_citation_year
_citation_journal_volume
_citation_journal_issue
_citation_page_first
_citation_page_last
_citation_journal_id_ASTM
primary 'Powder Diffraction' 1997 12 2 70 75 PODIE2
2 'Phase Transition' 1992 38- 127 220 PHTRDP
_publ_author_name
;
Ratuszna, A.;Rousseau, M.;Daniel, P.
;
_cell_length_a                     8.754(2)
_cell_length_b                     8.765(4)
_cell_length_c                     8.760(5)
_cell_angle_alpha                  90.
_cell_angle_beta                   90.48(3)
_cell_angle_gamma                  90.
_cell_volume                       672.12
_cell_formula_units_Z              8
_symmetry_space_group_name_H-M     'B 1 21/m 1'
_symmetry_Int_Tables_number        11
_refine_ls_R_factor_all            .05
loop_
_symmetry_equiv_pos_site_id
_symmetry_equiv_pos_as_xyz
  1	'x, -y+.5, z'
  2	'-x, y+.5, -z'
  3	'-x, -y, -z'
  4	'x, y, z'
  5	'x+.5, -y+.5, z+.5'
  6	'-x+.5, y+.5, -z+.5'
  7	'-x+.5, -y, -z+.5'
  8	'x+.5, y, z+.5'
loop_
_atom_type_symbol
_atom_type_oxidation_number
Ca2+	2
F1-	-1
K1+	1
loop_
_atom_site_label
_atom_site_type_symbol
_atom_site_symmetry_multiplicity
_atom_site_Wyckoff_symbol
_atom_site_fract_x
_atom_site_fract_y
_atom_site_fract_z
_atom_site_occupancy
_atom_site_attached_hydrogens
_atom_site_B_iso_or_equiv
Ca1 Ca2+ 4 a 0 0 0 1. 0 3.63(18) 
Ca2 Ca2+ 4 b 0 0 0.5 1. 0 3.63(18) 
K1 K1+ 4 e 0.248(5) 0.25 0.248(3) 1. 0 3.21(19) 
K2 K1+ 4 e 0.253(1) 0.25 0.755(2) 1. 0 3.21(19) 
F1 F1- 4 e 0.010(3) 0.25 -.059(2) 1. 0 0 
F2 F1- 4 e -.027(3) 0.25 0.519(4) 1. 0 0 
F3 F1- 8 f 0.254(1) -.002(3) -.019(9) 1. 0 0 
F4 F1- 8 f 0.032(2) 0.011(1) 0.258(3) 1. 0 0 

#End of data_85320-ICSD


