data_20713-ICSD
#?2014 by Fachinformationszentrum Karlsruhe, and the U.S. Secretary of 
#Commerce on behalf of the United States.  All rights reserved.
_database_code_ICSD                20713
_audit_creation_date               1980/01/01
_audit_update_record               2008/02/01
_chemical_name_systematic
;
Dipotassium Nitrosopentachlororuthenate(II)
;
_chemical_formula_structural       'K2 (Ru (N O) Cl5)'
_chemical_formula_sum              'Cl5 K2 N1 O1 Ru1'
_publ_section_title
;
The refinement of the crystal structure of potassium 
nitropentachlororuthenate
;
loop_
_citation_id
_citation_journal_abbrev
_citation_year
_citation_journal_volume
_citation_page_first
_citation_page_last
_citation_journal_id_ASTM
primary 'Zhurnal Strukturnoi Khimii (Issue-No. from 1981)'
 1964 5 144 146 ZSTKAI
2 'Zhurnal Strukturnoi Khimii (Issue-No. from 1981)' 1960 1 151 151 ZSTKAI
_publ_author_name                  'Khodashova, T.S.;Bokii, G.B.'
_cell_length_a                     13.31(5)
_cell_length_b                     10.25(5)
_cell_length_c                     6.84(3)
_cell_angle_alpha                  90.
_cell_angle_beta                   90.
_cell_angle_gamma                  90.
_cell_volume                       933.16
_cell_formula_units_Z              4
_symmetry_space_group_name_H-M     'P n m a'
_symmetry_Int_Tables_number        62
_refine_ls_R_factor_all            .146
loop_
_symmetry_equiv_pos_site_id
_symmetry_equiv_pos_as_xyz
  1	'x+.5, y, -z+.5'
  2	'x, -y+.5, z'
  3	'-x+.5, y+.5, z+.5'
  4	'-x, -y, -z'
  5	'-x+.5, -y, z+.5'
  6	'-x, y+.5, -z'
  7	'x+.5, -y+.5, -z+.5'
  8	'x, y, z'
loop_
_atom_type_symbol
_atom_type_oxidation_number
Cl1-	-1
K1+	1
N3+	3
O2-	-2
Ru2+	2
loop_
_atom_site_label
_atom_site_type_symbol
_atom_site_symmetry_multiplicity
_atom_site_Wyckoff_symbol
_atom_site_fract_x
_atom_site_fract_y
_atom_site_fract_z
_atom_site_occupancy
_atom_site_attached_hydrogens
_atom_site_B_iso_or_equiv
Ru1 Ru2+ 4 c 0.1085(12) 0.25 0.1712(12) 1. 0 -2.14 
Cl1 Cl1- 4 c 0.0034(41) 0.25 0.4495(41) 1. 0 -2.26 
Cl2 Cl1- 4 c 0.2495(41) 0.25 0.3823(41) 1. 0 -2.34 
Cl3 Cl1- 4 c 0.2241(41) 0.25 -.0915(41) 1. 0 -2.14 
Cl4 Cl1- 8 d 0.1119(41) 0.012(13) 0.1817(41) 1. 0 -3.85 
N1 N3+ 4 c 0.003(13) 0.25 0.006(13) 1. 0 -3.21 
O1 O2- 4 c -0.052(11) 0.25 -0.112(11) 1. 0 4.92 
K1 K1+ 8 d 0.1469(36) -.0014(12) 0.6498(36) 1. 0 -3.46 

#End of data_20713-ICSD


