data_47116-ICSD
#?2014 by Fachinformationszentrum Karlsruhe, and the U.S. Secretary of 
#Commerce on behalf of the United States.  All rights reserved.
_database_code_ICSD                47116
_audit_creation_date               1985/06/11
_chemical_name_systematic          'Lithium Cerium Oxide'
_chemical_formula_structural       'Li Ce O2'
_chemical_formula_sum              'Ce1 Li1 O2'
_publ_section_title
;
Zum Magnetismus von Cerium(III)-Verbindungen: Kristalldeffekt in Li 
Ce O2
;
loop_
_citation_id
_citation_journal_abbrev
_citation_year
_citation_journal_volume
_citation_page_first
_citation_page_last
_citation_journal_id_ASTM
primary 'Zeitschrift fuer Anorganische und Allgemeine Chemie (1950) (DE)'
 1984 516 107 118 ZAACAB
_publ_author_name                  'Lueken, H.;Hannibal, P.;Stamm, U.'
_cell_length_a                     5.824(1)
_cell_length_b                     6.616(1)
_cell_length_c                     5.793(1)
_cell_angle_alpha                  90.
_cell_angle_beta                   102.48(2)
_cell_angle_gamma                  90.
_cell_volume                       217.94
_cell_formula_units_Z              4
_symmetry_space_group_name_H-M     'P 1 21/c 1'
_symmetry_Int_Tables_number        14
loop_
_symmetry_equiv_pos_site_id
_symmetry_equiv_pos_as_xyz
  1	'x, -y+.5, z+.5'
  2	'-x, -y, -z'
  3	'-x, y+.5, -z+.5'
  4	'x, y, z'
loop_
_atom_type_symbol
_atom_type_oxidation_number
Ce3+	3
Li1+	1
O2-	-2
loop_
_atom_site_label
_atom_site_type_symbol
_atom_site_symmetry_multiplicity
_atom_site_Wyckoff_symbol
_atom_site_fract_x
_atom_site_fract_y
_atom_site_fract_z
_atom_site_occupancy
_atom_site_attached_hydrogens
Li1 Li1+ 4 e 0.649(4) 0.138(4) 0.158(4) 1. 0 
Ce1 Ce3+ 4 e 0.2008(6) 0.06802(7) 0.30630(7) 1. 0 
O1 O2- 4 e -.0859(10) 0.2612(10) 0.4886(10) 1. 0 
O2 O2- 4 e 0.4295(10) 0.1275(10) 0.7137(11) 1. 0 

#End of data_47116-ICSD


