data_47134-ICSD
#?2014 by Fachinformationszentrum Karlsruhe, and the U.S. Secretary of 
#Commerce on behalf of the United States.  All rights reserved.
_database_code_ICSD                47134
_audit_creation_date               1985/06/11
_audit_update_record               2003/10/01
_chemical_name_systematic          'Potassium Iodate(V) - Iii'
_chemical_formula_structural       'K (I O3)'
_chemical_formula_sum              'I1 K1 O3'
_publ_section_title
;
Structure (Neutron) of Room-Temperature Phase III Potassium Iodate, K 
I O3
;
loop_
_citation_id
_citation_journal_abbrev
_citation_year
_citation_journal_volume
_citation_page_first
_citation_page_last
_citation_journal_id_ASTM
primary 'Acta Crystallographica, Section C: Crystal Structure Communications'
 1984 40 1989 1992 ACSCEE
2 'Doklady Akademii Nauk SSSR' 1978 239 590 593 DANKAS
_publ_author_name                  'Lucas, B.W.'
_cell_length_a                     7.7436(4)
_cell_length_b                     7.7183(4)
_cell_length_c                     7.7328(5)
_cell_angle_alpha                  108.986(4)
_cell_angle_beta                   109.449(4)
_cell_angle_gamma                  109.209(5)
_cell_volume                       359.11
_cell_formula_units_Z              4
_symmetry_space_group_name_H-M     'P 1'
_symmetry_Int_Tables_number        1
_refine_ls_R_factor_all            .075
loop_
_symmetry_equiv_pos_site_id
_symmetry_equiv_pos_as_xyz
  1	'x, y, z'
loop_
_atom_type_symbol
_atom_type_oxidation_number
I5+	5
K1+	1
O2-	-2
loop_
_atom_site_label
_atom_site_type_symbol
_atom_site_symmetry_multiplicity
_atom_site_Wyckoff_symbol
_atom_site_fract_x
_atom_site_fract_y
_atom_site_fract_z
_atom_site_occupancy
_atom_site_attached_hydrogens
_atom_site_B_iso_or_equiv
K1 K1+ 1 a 0.0056(67) 0.0220(58) 0.4934(68) 1. 0 2.2 
K2 K1+ 1 a -.0017(64) 0.4971(73) 0.0164(77) 1. 0 2.1 
K3 K1+ 1 a 0.5225(59) -.0026(72) 0.0454(67) 1. 0 2.1 
K4 K1+ 1 a 0.5199(72) 0.5203(70) 0.5438(6) 1. 0 1.9 
I1 I5+ 1 a 0 0 0 1. 0 1.0 
I2 I5+ 1 a 0.0074(55) 0.5203(49) 0.5266(59) 1. 0 0.9 
I3 I5+ 1 a 0.5166(51) -.0099(54) 0.5185(49) 1. 0 1.0 
I4 I5+ 1 a 0.5060(61) 0.4864(53) 0.0192(50) 1. 0 0.9 
O1 O2- 1 a 0.0791(59) -.1694(62) -.1414(69) 1. 0 4.3 
O2 O2- 1 a 0.7881(67) -.2133(55) -.0020(69) 1. 0 4.4 
O3 O2- 1 a 0.8722(82) 0.0587(75) -.1828(74) 1. 0 2.9 
O4 O2- 1 a 0.0489(70) 0.3382(66) 0.3173(71) 1. 0 3.7 
O5 O2- 1 a 0.8081(53) 0.3345(60) 0.5287(59) 1. 0 2.9 
O6 O2- 1 a 0.8413(17) 0.5776(53) 0.3481(69) 1. 0 4.2 
O7 O2- 1 a 0.5166(61) -.1829(58) 0.3076(57) 1. 0 3.5 
O8 O2- 1 a 0.3619(71) -.2001(51) 0.5648(68) 1. 0 3.0 
O9 O2- 1 a 0.2942(60) 0.0157(59) 0.3689(60) 1. 0 3.2 
O10 O2- 1 a 0.3637(51) 0.345(5) 0.1177(54) 1. 0 3.5 
O11 O2- 1 a 0.3098(60) 0.4900(57) -.1780(57) 1. 0 3.8 
O12 O2- 1 a 0.5624(68) 0.3083(62) -.1305(62) 1. 0 3.3 

#End of data_47134-ICSD


