data_82164-ICSD
#?2014 by Fachinformationszentrum Karlsruhe, and the U.S. Secretary of 
#Commerce on behalf of the United States.  All rights reserved.
_database_code_ICSD                82164
_audit_creation_date               1999/11/30
_chemical_name_systematic
;
Tricalcium Cobalt Tetrakis(selenate(IV))
;
_chemical_formula_structural       'Ca3 Co (Se O3)4'
_chemical_formula_sum              'Ca3 Co1 O12 Se4'
_publ_section_title
;
Polarized electronic absorption spectra of tetrahedrally coordinated 
Co(2+) ions in the new compound Ca3 Co (Se O3)4 and its structural 
characterization
;
loop_
_citation_id
_citation_journal_abbrev
_citation_year
_citation_journal_volume
_citation_page_first
_citation_page_last
_citation_journal_id_ASTM
primary 'Journal of Solid State Chemistry' 1996 124 143 150 JSSCBI
_publ_author_name                  'Wildner, M.'
_cell_length_a                     7.571(1)
_cell_length_b                     7.571(1)
_cell_length_c                     22.493(3)
_cell_angle_alpha                  90.
_cell_angle_beta                   90.
_cell_angle_gamma                  90.
_cell_volume                       1289.3
_cell_formula_units_Z              4
_symmetry_space_group_name_H-M     'I 41/a Z'
_symmetry_Int_Tables_number        88
_refine_ls_R_factor_all            .024
loop_
_symmetry_equiv_pos_site_id
_symmetry_equiv_pos_as_xyz
  1	'-y+.75, x+.75, -z+.75'
  2	'y+.25, -x+.75, -z+.75'
  3	'x, y+.5, -z'
  4	'-x, -y, -z'
  5	'y+.25, -x+.25, z+.25'
  6	'-y+.75, x+.25, z+.25'
  7	'-x, -y+.5, z'
  8	'x, y, z'
  9	'-y+.25, x+.25, -z+.25'
 10	'y+.75, -x+.25, -z+.25'
 11	'x+.5, y, -z+.5'
 12	'-x+.5, -y+.5, -z+.5'
 13	'y+.75, -x+.75, z+.75'
 14	'-y+.25, x+.75, z+.75'
 15	'-x+.5, -y, z+.5'
 16	'x+.5, y+.5, z+.5'
loop_
_atom_type_symbol
_atom_type_oxidation_number
Ca2+	2
Co2+	2
O2-	-2
Se4+	4
loop_
_atom_site_label
_atom_site_type_symbol
_atom_site_symmetry_multiplicity
_atom_site_Wyckoff_symbol
_atom_site_fract_x
_atom_site_fract_y
_atom_site_fract_z
_atom_site_occupancy
_atom_site_attached_hydrogens
_atom_site_U_iso_or_equiv
Ca1 Ca2+ 8 e 0 0.25 0.44878(2) 1. 0 0.0138 
Ca2 Ca2+ 4 b 0 0.25 0.625 1. 0 0.014 
Co1 Co2+ 4 a 0 0.25 0.125 1. 0 0.0153 
Se1 Se4+ 16 f 0.32054(2) 0.41824(3) 0.19219(1) 1. 0 0.0136 
O1 O2- 16 f 0.3536(2) 0.6207(2) 0.2200(1) 1. 0 0.0216 
O2 O2- 16 f 0.1011(2) 0.4373(2) 0.1754(1) 1. 0 0.0198 
O3 O2- 16 f 0.4184(2) 0.4451(2) 0.1262(1) 1. 0 0.0222 

#End of data_82164-ICSD


