data_401943-ICSD
#?2014 by Fachinformationszentrum Karlsruhe, and the U.S. Secretary of 
#Commerce on behalf of the United States.  All rights reserved.
_database_code_ICSD                401943
_audit_creation_date               1996/10/14
_chemical_name_systematic
;
Dipotassium Trimanganese Tetrakis(sulfate(V)) Pentahydrate
;
_chemical_formula_structural       'K2 Mn3 (S O4)4 (H2 O)5'
_chemical_formula_sum              'H10 K2 Mn3 O21 S4'
_publ_section_title
;
Crystal structure of dipotassium trimanganese tetrakis(sulfate) 
pentahydrate K2 Mn3 (S O4)4 (H2 O)5
;
loop_
_citation_id
_citation_journal_abbrev
_citation_year
_citation_journal_volume
_citation_page_first
_citation_page_last
_citation_journal_id_ASTM
primary 'Zeitschrift fuer Kristallographie (1979-2010)' 1996 211 153 157 ZEKRDZ
_publ_author_name
;
Hidalgo, H.;Veintemillas, S.;Rodriguez-Clemente, R.;Molins, 
E.;Balarew, C.;Keremidchieva, B.;Spasov, V.
;
_cell_length_a                     9.969(2)
_cell_length_b                     9.750(2)
_cell_length_c                     19.168(4)
_cell_angle_alpha                  90.
_cell_angle_beta                   103.96
_cell_angle_gamma                  90.
_cell_volume                       1808.06
_cell_formula_units_Z              4
_symmetry_space_group_name_H-M     'P 1 21/a 1'
_symmetry_Int_Tables_number        14
_refine_ls_R_factor_all            .031
loop_
_symmetry_equiv_pos_site_id
_symmetry_equiv_pos_as_xyz
  1	'x+.5, -y+.5, z'
  2	'-x, -y, -z'
  3	'-x+.5, y+.5, -z'
  4	'x, y, z'
loop_
_atom_type_symbol
_atom_type_oxidation_number
H1+	1
K1+	1
Mn2+	2
O2-	-2
S6+	6
loop_
_atom_site_label
_atom_site_type_symbol
_atom_site_symmetry_multiplicity
_atom_site_Wyckoff_symbol
_atom_site_fract_x
_atom_site_fract_y
_atom_site_fract_z
_atom_site_occupancy
_atom_site_attached_hydrogens
_atom_site_U_iso_or_equiv
Mn1 Mn2+ 4 e 0.46341 0.63868 0.83944 1. 0 0 
Mn2 Mn2+ 4 e 0.19595 0.34492 0.82088 1. 0 0 
Mn3 Mn2+ 4 e -.05728 0.21649 0.557 1. 0 0 
K1 K1+ 4 e 0.36239 0.65003 0.61966 1. 0 0 
K2 K1+ 4 e -.20963 0.51129 0.7622 1. 0 0 
O1 O2- 4 e 0.8251 0.52323 0.62763 1. 0 0 
S1 S6+ 4 e 0.72122 0.47655 0.56532 1. 0 0 
O2 O2- 4 e 0.76439 0.34912 0.53591 1. 0 0 
O3 O2- 4 e 0.58762 0.45295 0.58362 1. 0 0 
O4 O2- 4 e 0.70434 0.58093 0.50831 1. 0 0 
S2 S6+ 4 e 0.70149 0.41422 0.93592 1. 0 0 
O5 O2- 4 e 0.77244 0.31837 0.89715 1. 0 0 
O6 O2- 4 e 0.65862 0.53629 0.89143 1. 0 0 
O7 O2- 4 e 0.79388 0.44817 1.00503 1. 0 0 
O8 O2- 4 e 0.57717 0.34506 0.9502 1. 0 0 
S3 S6+ 4 e -.05469 0.1412 0.73156 1. 0 0 
O9 O2- 4 e -.1251 0.15593 0.65492 1. 0 0 
O10 O2- 4 e 0.08492 0.19974 0.7453 1. 0 0 
O11 O2- 4 e -.04501 -.00628 0.74874 1. 0 0 
O12 O2- 4 e -.13321 0.21353 0.77635 1. 0 0 
S4 S6+ 4 e 0.1308 0.65852 0.74947 1. 0 0 
O13 O2- 4 e 0.12951 0.50706 0.74636 1. 0 0 
O14 O2- 4 e 0.00405 0.70465 0.76948 1. 0 0 
O15 O2- 4 e 0.25107 0.70733 0.80481 1. 0 0 
O16 O2- 4 e 0.13504 0.71382 0.6794 1. 0 0 
O17 O2- 4 e 0.4154 0.87618 0.38979 1. 0 0 
O18 O2- 4 e 0.03981 0.41381 0.87645 1. 0 0 
O19 O2- 4 e 0.35303 0.47959 0.89535 1. 0 0 
O20 O2- 4 e 0.48545 0.77501 0.92965 1. 0 0 
O21 O2- 4 e 0.49408 0.80915 0.53509 1. 0 0 
H1 H1+ 4 e 0.43883 0.91718 0.3601 1. 0 0.06793 
H2 H1+ 4 e 0.33485 0.85951 0.37513 1. 0 0.07154 
H3 H1+ 4 e 0.07101 0.45439 0.91356 1. 0 0.05749 
H4 H1+ 4 e -.01222 0.35814 0.88549 1. 0 0.05294 
H5 H1+ 4 e 0.31244 0.50718 0.92354 1. 0 0.03787 
H6 H1+ 4 e 0.41543 0.43357 0.91673 1. 0 0.03408 
H7 H1+ 4 e 0.47626 0.74975 0.96838 1. 0 0.09617 
H8 H1+ 4 e 0.41234 0.80966 0.91237 1. 0 0.1119 
H9 H1+ 4 e 0.42822 0.85827 0.52518 1. 0 0.07424 
H10 H1+ 4 e 0.53743 0.82444 0.57274 1. 0 0.07248 

loop_
_atom_site_aniso_label
_atom_site_aniso_type_symbol
_atom_site_aniso_U_11
_atom_site_aniso_U_22
_atom_site_aniso_U_33
_atom_site_aniso_U_12
_atom_site_aniso_U_13
_atom_site_aniso_U_23
Mn1 Mn2+ 0.01441 0.01287 0.0155 0.00008 0.0016 0.00012
Mn2 Mn2+ 0.01473 0.01278 0.01553 -.00039 0.00295 0.00056
Mn3 Mn2+ 0.01508 0.01435 0.01605 0.00075 0.00364 0.0004
K1 K1+ 0.0425 0.04295 0.0274 0.00895 0.01059 0.00198
K2 K1+ 0.03206 0.02273 0.04437 -.00102 0.01589 -.00513
O1 O2- 0.013 0.01206 0.01741 0.00167 0.00263 0.00005
S1 S6+ 0.02667 0.04404 0.03133 -.01575 -.00032 -.00808
O2 O2- 0.02521 0.02154 0.03485 -.00768 0.00077 0.00911
O3 O2- 0.02671 0.02791 0.03648 -.00687 0.01796 -.01088
O4 O2- 0.02888 0.034 0.04934 0.02902 0.01091 0.00843
S2 S6+ 0.02185 0.02377 0.01277 -.00196 0.00039 0.00911
O5 O2- 0.02079 0.02925 0.02632 -.01366 0.0071 -.00026
O6 O2- 0.02187 0.02874 0.03912 0.01248 -.00048 0.00417
O7 O2- 0.03721 0.04564 0.02405 -.01333 -.01044 0.01349
O8 O2- 0.03008 0.03918 0.04135 0.01591 0.01669 0.01274
S3 S6+ 0.01023 0.01137 0.01152 0.00062 0.00192 -.00037
O9 O2- 0.01532 0.03026 0.01207 0.00401 0.00055 0.00014
O10 O2- 0.01232 0.02199 0.02356 -.00519 0.00435 -.00523
O11 O2- 0.03138 0.01201 0.02023 0.00299 0.0064 0.0002
O12 O2- 0.01917 0.01835 0.02236 -.00369 0.01042 -.00069
S4 S6+ 0.01193 0.01066 0.01611 0.00108 0.00316 0.00149
O13 O2- 0.02666 0.01051 0.02099 -.00166 0.0013 0.00384
O14 O2- 0.01445 0.01856 0.03813 -.00893 0.00973 0.0006
O15 O2- 0.01468 0.02126 0.03019 -.00551 -.00195 -.00023
O16 O2- 0.0376 0.031 0.02274 0.01078 0.00895 -.00201
O17 O2- 0.02157 0.02893 0.02367 0.00703 0.00456 0.0036
O18 O2- 0.02526 0.02614 0.03142 -.00907 0.01341 -.00639
O19 O2- 0.01985 0.01876 0.01738 -.00164 0.00518 -.00106
O20 O2- 0.0456 0.0387 0.02731 -.0132 0.01191 -.01736
O21 O2- 0.03903 0.04192 0.02284 -.00766 0.01082 0.0058
#End of data_401943-ICSD


