data_262881-ICSD
#?2014 by Fachinformationszentrum Karlsruhe, and the U.S. Secretary of 
#Commerce on behalf of the United States.  All rights reserved.
_database_code_ICSD                262881
_audit_creation_date               2012/08/01
_chemical_name_systematic
;
Sodium Barium Aluminium Boron Oxygen Chloride (1/4/2/8/18/3)
;
_chemical_formula_structural       'Na Ba4 Al2 B8 O18 Cl3'
_chemical_formula_sum              'Al2 B8 Ba4 Cl3 Na1 O18'
_publ_section_title
;
New nonlinear optical crystal: Na Ba4 Al2 B8 O18 Cl3
;
loop_
_citation_id
_citation_journal_abbrev
_citation_year
_citation_journal_volume
_citation_journal_issue
_citation_page_first
_citation_page_last
_citation_journal_id_ASTM
primary 'Inorganic Chemistry' 2012 51 12 6682 6686 INOCAJ
_publ_author_name
;
Zhang Jianxiu;Zhang Shufeng;Wu Yicheng;Wang Jiyang
;
_cell_length_a                     12.048(2)
_cell_length_b                     12.048(2)
_cell_length_c                     6.8165(11)
_cell_angle_alpha                  90.00
_cell_angle_beta                   90.00
_cell_angle_gamma                  90.00
_cell_volume                       989.44
_cell_formula_units_Z              2
_symmetry_space_group_name_H-M     'P 42 n m'
_symmetry_Int_Tables_number        102
_refine_ls_R_factor_all            .0589
loop_
_symmetry_equiv_pos_site_id
_symmetry_equiv_pos_as_xyz
  1	'-y+.5, x+.5, z+.5'
  2	'y+.5, -x+.5, z+.5'
  3	'-y, -x, z'
  4	'y, x, z'
  5	'-x+.5, y+.5, z+.5'
  6	'x+.5, -y+.5, z+.5'
  7	'-x, -y, z'
  8	'x, y, z'
loop_
_atom_type_symbol
_atom_type_oxidation_number
Al3+	3
B3+	3
Ba2+	2
Cl1-	-1
Na1+	1
O2-	-2
loop_
_atom_site_label
_atom_site_type_symbol
_atom_site_symmetry_multiplicity
_atom_site_Wyckoff_symbol
_atom_site_fract_x
_atom_site_fract_y
_atom_site_fract_z
_atom_site_occupancy
_atom_site_attached_hydrogens
_atom_site_U_iso_or_equiv
Ba1 Ba2+ 8 d 0.98290(4) 0.72321(6) 0.22151(13) 1 0 0.0266(3) 
Al1 Al3+ 4 c 0.2979(2) 0.7021(2) 0.2133(8) 1 0 0.0111(6) 
Na1 Na1+ 2 a 0.0000 0.0000 -0.107(2) 1 0 0.049(3) 
O1 O2- 8 d 0.1158(7) 0.7425(8) 0.5451(11) 1 0 0.0237(16) 
O2 O2- 8 d 0.0627(6) 0.7980(6) 0.8691(11) 1 0 0.0175(14) 
Cl1 Cl1- 2 a 0.0000 0.0000 0.2824(10) 1 0 0.0305(12) 
Cl2 Cl1- 4 b 0.0000 0.5000 0.4488(16) 1 0 0.0589(19) 
O3 O2- 4 c 0.3028(5) 0.6972(5) 0.4709(13) 1 0 0.0108(16) 
O4 O2- 4 c 0.2002(6) 0.7998(6) 0.1242(13) 1 0 0.0145(18) 
O5 O2- 4 c 0.2550(6) 0.7450(6) -0.2042(16) 1 0 0.0136(19) 
B1 B3+ 4 c 0.2335(11) 0.7665(11) 0.583(3) 1 0 0.017(3) 
O6 O2- 8 d 0.4276(7) 0.7400(9) 0.1250(12) 1 0 0.0284(19) 
B2 B3+ 4 c 0.1854(8) 0.8146(8) -0.0800(19) 1 0 0.010(2) 
B3 B3+ 8 d 0.5326(9) 0.7330(10) 0.1811(13) 1 0 0.013(2) 

loop_
_atom_site_aniso_label
_atom_site_aniso_type_symbol
_atom_site_aniso_U_11
_atom_site_aniso_U_22
_atom_site_aniso_U_33
_atom_site_aniso_U_12
_atom_site_aniso_U_13
_atom_site_aniso_U_23
Ba1 Ba2+ 0.0147(3) 0.0503(4) 0.0148(3) -0.0032(2) -0.0012(4) 0.0012(4)
Al1 Al3+ 0.0118(8) 0.0118(8) 0.0097(15) -0.0006(10) -0.0001(14) 0.0001(14)
Na1 Na1+ 0.057(5) 0.057(5) 0.033(6) 0.026(7) 0.000 0.000
O1 O2- 0.016(3) 0.043(5) 0.012(3) 0.002(3) 0.002(3) -0.009(3)
O2 O2- 0.016(3) 0.022(3) 0.015(3) 0.000(3) -0.003(3) -0.003(3)
Cl1 Cl1- 0.0261(16) 0.0261(16) 0.039(3) 0.000(2) 0.000 0.000
Cl2 Cl1- 0.056(4) 0.027(3) 0.094(6) 0.001(4) 0.000 0.000
O3 O2- 0.011(2) 0.011(2) 0.010(4) 0.003(3) 0.001(2) -0.001(2)
O4 O2- 0.018(3) 0.018(3) 0.007(4) 0.008(3) 0.001(2) -0.001(2)
O5 O2- 0.015(3) 0.015(3) 0.011(4) 0.005(4) -0.002(2) 0.002(2)
B1 B3+ 0.015(5) 0.015(5) 0.023(8) -0.009(6) 0.002(5) -0.002(5)
O6 O2- 0.020(4) 0.056(6) 0.010(4) -0.004(4) 0.002(3) 0.007(3)
B2 B3+ 0.010(3) 0.010(3) 0.009(5) 0.000(4) 0.003(3) -0.003(3)
B3 B3+ 0.009(4) 0.025(5) 0.005(6) 0.001(3) 0.002(3) 0.002(3)
#End of data_262881-ICSD


