data_279618-ICSD
#?2014 by Fachinformationszentrum Karlsruhe, and the U.S. Secretary of 
#Commerce on behalf of the United States.  All rights reserved.
_database_code_ICSD                279618
_audit_creation_date               2002/10/01
_chemical_name_systematic
;
Tripotassium Lanthanum Bis(tetrathiophosphate(V))
;
_chemical_formula_structural       'K3 La (P S4)2'
_chemical_formula_sum              'K3 La1 P2 S8'
_publ_section_title
;
Thiophosphate phase diagrams developed in conjunction with the 
synthesis of the new compounds K La P2 S6, K2 La (P2 S6)1/2 (P S4), 
K3 La (P S4)2, k4 La0.67 (P S4)2, K9-x La1+x/3 (P S4)4 (x = 0.5), K4 
Eu (P S4)2, and K Eu P S4
;
loop_
_citation_id
_citation_journal_abbrev
_citation_year
_citation_journal_volume
_citation_page_first
_citation_page_last
_citation_journal_id_ASTM
primary 'Inorganic Chemistry' 2001 40 2884 2891 INOCAJ
_publ_author_name                  'Evenson, C.R.IV.;Dorhout, P.K.'
_cell_length_a                     9.141(2)
_cell_length_b                     17.056(4)
_cell_length_c                     9.470(2)
_cell_angle_alpha                  90.
_cell_angle_beta                   90.290(15)
_cell_angle_gamma                  90.
_cell_volume                       1476.44
_cell_formula_units_Z              4
_symmetry_space_group_name_H-M     'P 1 21/c 1'
_symmetry_Int_Tables_number        14
_refine_ls_R_factor_all            .06
loop_
_symmetry_equiv_pos_site_id
_symmetry_equiv_pos_as_xyz
  1	'x, -y+.5, z+.5'
  2	'-x, -y, -z'
  3	'-x, y+.5, -z+.5'
  4	'x, y, z'
loop_
_atom_type_symbol
_atom_type_oxidation_number
K1+	1
La3+	3
P5+	5
S2-	-2
loop_
_atom_site_label
_atom_site_type_symbol
_atom_site_symmetry_multiplicity
_atom_site_Wyckoff_symbol
_atom_site_fract_x
_atom_site_fract_y
_atom_site_fract_z
_atom_site_occupancy
_atom_site_attached_hydrogens
La1 La3+ 4 e 0.22688(3) 0.01370(2) 0.96968(3) 1. 0 
K1 K1+ 4 e 0.1194(2) 0.20389(8) 0.3761(2) 1. 0 
K2 K1+ 4 e 0.3843(2) -.28813(8) 0.6299(2) 1. 0 
K3 K1+ 4 e 0.27017(14) -.02724(7) 0.51465(12) 1. 0 
S1 S2- 4 e -.03991(15) 0.12764(8) 0.96313(13) 1. 0 
S2 S2- 4 e 0.04785(15) 0.01502(8) 0.25461(13) 1. 0 
S3 S2- 4 e 0.53714(14) 0.01949(8) 0.81505(13) 1. 0 
S4 S2- 4 e 0.31289(15) -.13115(8) 0.82255(14) 1. 0 
S5 S2- 4 e 0.20905(15) 0.12011(8) 0.71888(14) 1. 0 
S6 S2- 4 e -.1304(2) 0.17422(8) 0.63015(14) 1. 0 
S7 S2- 4 e 0.5651(2) -.12701(8) 0.57448(13) 1. 0 
S8 S2- 4 e 0.33791(15) 0.15870(8) 0.09194(14) 1. 0 
P1 P5+ 4 e 0.52307(14) -.10015(8) 0.77614(13) 1. 0 
P2 P5+ 4 e -.00838(15) 0.10398(8) 0.75279(13) 1. 0 

loop_
_atom_site_aniso_label
_atom_site_aniso_type_symbol
_atom_site_aniso_U_11
_atom_site_aniso_U_22
_atom_site_aniso_U_33
_atom_site_aniso_U_12
_atom_site_aniso_U_13
_atom_site_aniso_U_23
La1 La3+ 0.01093(15) 0.00829(15) 0.01160(14) -.00011(12) 0.00206(11) 
-.00006(12)
K1 K1+ 0.0306(8) 0.0185(7) 0.0453(8) 0.0071(6) 0.0160(7) 0.0044(6)
K2 K1+ 0.0492(9) 0.0209(7) 0.0407(8) -.0140(7) 0.0237(7) -.0140(6)
K3 K1+ 0.0229(6) 0.0190(7) 0.0199(6) -.0008(5) -.0030(5) 0.0007(5)
S1 S2- 0.0166(7) 0.0134(7) 0.0134(6) -.0022(5) 0.0054(5) -.0016(5)
S2 S2- 0.0194(7) 0.0090(6) 0.0156(6) 0.0005(5) 0.0010(5) -.0003(5)
S3 S2- 0.0145(6) 0.0095(6) 0.0146(6) 0.0003(5) 0.0016(5) 0.0003(5)
S4 S2- 0.0147(7) 0.0138(7) 0.0237(7) -.0038(5) 0.0081(6) -.0053(5)
S5 S2- 0.0138(6) 0.0174(7) 0.0171(6) -.0009(5) 0.0051(5) 0.0020(5)
S6 S2- 0.0240(8) 0.0153(7) 0.0213(7) 0.0050(6) 0.0009(6) 0.0066(6)
S7 S2- 0.0215(7) 0.0179(7) 0.0128(6) -.0013(5) 0.0045(5) -.0035(5)
S8 S2- 0.0210(7) 0.0110(6) 0.0188(6) 0.0017(5) -.0020(6) 0.0005(5)
P1 P5+ 0.0119(7) 0.0091(7) 0.0132(6) -.0012(5) 0.0036(5) -.0012(5)
P2 P5+ 0.0129(7) 0.0102(7) 0.0115(6) -.0011(5) 0.0029(5) 0.0001(5)
#End of data_279618-ICSD


