data_402917-ICSD
#?2014 by Fachinformationszentrum Karlsruhe, and the U.S. Secretary of 
#Commerce on behalf of the United States.  All rights reserved.
_database_code_ICSD                402917
_audit_creation_date               1997/05/13
_chemical_name_systematic          'Magnesium Diselenate(IV)'
_chemical_formula_structural       'Mg (Se2 O5)'
_chemical_formula_sum              'Mg1 O5 Se2'
_publ_section_title
;
Crystal structure of magnesium diselenite, Mg Se2 O5
;
loop_
_citation_id
_citation_journal_abbrev
_citation_year
_citation_journal_volume
_citation_page_first
_citation_page_last
_citation_journal_id_ASTM
primary 'Zeitschrift fuer Kristallographie (1979-2010)' 1996 211 700 700 ZEKRDZ
_publ_author_name
;
Mueller, H.;Unterderweide, K.;Engelen, B.
;
_cell_length_a                     6.7787(7)
_cell_length_b                     10.371(2)
_cell_length_c                     6.0525(4)
_cell_angle_alpha                  90.
_cell_angle_beta                   90.
_cell_angle_gamma                  90.
_cell_volume                       425.5
_cell_formula_units_Z              4
_symmetry_space_group_name_H-M     'P b c n'
_symmetry_Int_Tables_number        60
_refine_ls_R_factor_all            .0235
loop_
_symmetry_equiv_pos_site_id
_symmetry_equiv_pos_as_xyz
  1	'x, -y, z+.5'
  2	'-x+.5, y+.5, z'
  3	'x+.5, y+.5, -z+.5'
  4	'-x, -y, -z'
  5	'-x, y, -z+.5'
  6	'x+.5, -y+.5, -z'
  7	'-x+.5, -y+.5, z+.5'
  8	'x, y, z'
loop_
_atom_type_symbol
_atom_type_oxidation_number
Mg2+	2
O2-	-2
Se4+	4
loop_
_atom_site_label
_atom_site_type_symbol
_atom_site_symmetry_multiplicity
_atom_site_Wyckoff_symbol
_atom_site_fract_x
_atom_site_fract_y
_atom_site_fract_z
_atom_site_occupancy
_atom_site_attached_hydrogens
Se1 Se4+ 8 d 0.13189(3) 0.15440(2) 0.03193(4) 1. 0 
Mg1 Mg2+ 4 c 0.5 0.05971(11) 0.75 1. 0 
O1 O2- 8 d 0.3406(3) 0.0677(2) 0.0474(3) 1. 0 
O2 O2- 8 d 0.1922(3) 0.2912(2) 0.1560(3) 1. 0 
O3 O2- 4 c 0 0.0696(2) 0.25 1. 0 

loop_
_atom_site_aniso_label
_atom_site_aniso_type_symbol
_atom_site_aniso_U_11
_atom_site_aniso_U_22
_atom_site_aniso_U_33
_atom_site_aniso_U_12
_atom_site_aniso_U_13
_atom_site_aniso_U_23
Se1 Se4+ 0.0058(2) 0.0060(2) 0.0060(2) 0.00071(7) 0.00122(7) -.00078(7)
Mg1 Mg2+ 0.0094(5) 0.0070(5) 0.0057(5) 0 0.0021(4) 0
O1 O2- 0.0084(8) 0.0121(9) 0.0093(9) 0.0061(6) 0.0041(6) 0.0034(6)
O2 O2- 0.0116(8) 0.0071(7) 0.0121(8) -.0004(6) 0.0009(6) -.0028(7)
O3 O2- 0.0156(12) 0.0066(10) 0.0176(13) 0 0.0122(11) 0
#End of data_402917-ICSD


