data_189837-ICSD
#?2014 by Fachinformationszentrum Karlsruhe, and the U.S. Secretary of 
#Commerce on behalf of the United States.  All rights reserved.
_database_code_ICSD                189837
_audit_creation_date               2014/02/01
_chemical_name_systematic
;
Potassium Ytterbium Tetrakis(tetrahydridiborate)
;
_chemical_formula_structural       'K Yb (B H4)4'
_chemical_formula_sum              'H16 B4 K1 Yb1'
_publ_section_title
;
M Yb (B H4)4 (M = K, Na) from laboratory X-ray powder data
;
loop_
_citation_id
_citation_journal_abbrev
_citation_year
_citation_journal_volume
_citation_journal_issue
_citation_page_first
_citation_page_last
_citation_journal_id_ASTM
primary 'Acta Crystallographica, Section C: Crystal Structure Communications'
 2013 69 11 1289 1291 ACSCEE
_publ_author_name
;
Wegner, Wojciech;Jaron, Tomasz;Grochala, Wojciech
;
_cell_length_a                     8.4341(13)
_cell_length_b                     12.445(2)
_cell_length_c                     9.6449(15)
_cell_angle_alpha                  90
_cell_angle_beta                   90
_cell_angle_gamma                  90
_cell_volume                       1012.35
_cell_formula_units_Z              4
_symmetry_space_group_name_H-M     'C m c m'
_symmetry_Int_Tables_number        63
_refine_ls_R_factor_all            .0204
loop_
_symmetry_equiv_pos_site_id
_symmetry_equiv_pos_as_xyz
  1	'-x, y, -z+.5'
  2	'-x, -y, z+.5'
  3	'-x, y, z'
  4	'-x, -y, -z'
  5	'x, -y, z+.5'
  6	'x, y, -z+.5'
  7	'x, -y, -z'
  8	'x, y, z'
  9	'-x+.5, y+.5, -z+.5'
 10	'-x+.5, -y+.5, z+.5'
 11	'-x+.5, y+.5, z'
 12	'-x+.5, -y+.5, -z'
 13	'x+.5, -y+.5, z+.5'
 14	'x+.5, y+.5, -z+.5'
 15	'x+.5, -y+.5, -z'
 16	'x+.5, y+.5, z'
loop_
_atom_type_symbol
_atom_type_oxidation_number
B3+	3
H1-	-1
K1+	1
Yb3+	3
loop_
_atom_site_label
_atom_site_type_symbol
_atom_site_symmetry_multiplicity
_atom_site_Wyckoff_symbol
_atom_site_fract_x
_atom_site_fract_y
_atom_site_fract_z
_atom_site_occupancy
_atom_site_attached_hydrogens
_atom_site_U_iso_or_equiv
K1 K1+ 4 a 0 0 0.5 1 0 0.085(3) 
Yb1 Yb3+ 4 c 0.5 0.13129(17) 0.75 1 0 0.0544(10) 
B1 B3+ 8 f 0.5 0.2416(13) 0.9453(18) 1 0 0.117(9) 
H1 H1- 8 f 0.5 0.299(3) 0.039(4) 1 0 0.140(11) 
H2 H1- 8 f 0.5 0.1541(17) 0.984(5) 1 0 0.140(11) 
H3 H1- 16 h 0.61134(15) 0.257(3) 0.879(2) 1 0 0.140(11) 
B2 B3+ 8 g 0.7189(19) 0.0223(13) 0.75 1 0 0.117(9) 
H4 H1- 8 g 0.834(5) -0.028(5) 0.75 1 0 0.140(11) 
H5 H1- 8 g 0.750(9) 0.1122(19) 0.75 1 0 0.140(11) 
H6 H1- 16 h 0.646(3) 0.002(4) 0.84734(13) 1 0 0.140(11) 

#End of data_189837-ICSD


