data_200310-ICSD
#?2014 by Fachinformationszentrum Karlsruhe, and the U.S. Secretary of 
#Commerce on behalf of the United States.  All rights reserved.
_database_code_ICSD                200310
_audit_creation_date               1980/01/01
_chemical_name_systematic          'Dipotassium Nickel Molybdate'
_chemical_formula_structural       'K2 Ni (Mo O4)2'
_chemical_formula_sum              'K2 Mo2 Ni1 O8'
_publ_section_title
;
Crystal structure of the double molybdate K2 Ni (Mo O4)2
;
loop_
_citation_id
_citation_journal_abbrev
_citation_year
_citation_journal_volume
_citation_page_first
_citation_page_last
_citation_journal_id_ASTM
primary Kristallografiya 1978 23 261 265 KRISAJ
2 'Soviet Physics, Crystallography (= Kristallografiya)'
 1978 23 143 146 SPHCA6
_publ_author_name                  'Klevtsova, R.F.;Klevtsov, P.V.'
_cell_length_a                     8.469
_cell_length_b                     19.035
_cell_length_c                     10.84
_cell_angle_alpha                  90.
_cell_angle_beta                   90.
_cell_angle_gamma                  90.
_cell_volume                       1747.49
_cell_formula_units_Z              8
_symmetry_space_group_name_H-M     'C m c a'
_symmetry_Int_Tables_number        64
_refine_ls_R_factor_all            .045
loop_
_symmetry_equiv_pos_site_id
_symmetry_equiv_pos_as_xyz
  1	'-x, -y+.5, z+.5'
  2	'-x, y+.5, -z+.5'
  3	'-x, y, z'
  4	'-x, -y, -z'
  5	'x, y+.5, -z+.5'
  6	'x, -y+.5, z+.5'
  7	'x, -y, -z'
  8	'x, y, z'
  9	'-x+.5, -y, z+.5'
 10	'-x+.5, y, -z+.5'
 11	'-x+.5, y+.5, z'
 12	'-x+.5, -y+.5, -z'
 13	'x+.5, y, -z+.5'
 14	'x+.5, -y, z+.5'
 15	'x+.5, -y+.5, -z'
 16	'x+.5, y+.5, z'
loop_
_atom_type_symbol
_atom_type_oxidation_number
K1+	1
Mo6+	6
Ni2+	2
O2-	-2
loop_
_atom_site_label
_atom_site_type_symbol
_atom_site_symmetry_multiplicity
_atom_site_Wyckoff_symbol
_atom_site_fract_x
_atom_site_fract_y
_atom_site_fract_z
_atom_site_occupancy
_atom_site_attached_hydrogens
Ni1 Ni2+ 8 d 0.1784 0 0 1. 0 
Mo1 Mo6+ 8 f 0.5 0.5315 0.2834 1. 0 
Mo2 Mo6+ 8 f 0 0.343 0.4644 1. 0 
K1 K1+ 8 e 0.25 0.2131 0.25 1. 0 
K2 K1+ 8 f 0 0.3686 0.0685 1. 0 
O1 O2- 8 f 0.5 0.4987 0.1265 1. 0 
O2 O2- 8 f 0.5 0.6229 0.292 1. 0 
O3 O2- 16 g 0.3378 0.4989 0.364 1. 0 
O4 O2- 8 f 0 0.2671 0.5572 1. 0 
O5 O2- 8 f 0 0.3152 0.31 1. 0 
O6 O2- 16 g 0.1748 0.3904 0.5003 1. 0 

#End of data_200310-ICSD


