data_422900-ICSD
#?2014 by Fachinformationszentrum Karlsruhe, and the U.S. Secretary of 
#Commerce on behalf of the United States.  All rights reserved.
_database_code_ICSD                422900
_audit_creation_date               2014/08/01
_chemical_name_systematic          'Potassium Iron(III) Borophosphate'
_chemical_formula_structural       'K Fe (B P2 O8 (O H))'
_chemical_formula_sum              'H1 B1 Fe1 K1 O9 P2'
_publ_section_title
;
A new open-framework iron borophosphate from ionic liquids: 
KFe[BP2O8(OH)]
;
loop_
_citation_id
_citation_journal_abbrev
_citation_year
_citation_journal_volume
_citation_page_first
_citation_page_last
_citation_journal_id_ASTM
primary Crystals 2011 1 22 27 CRYSBC
_publ_author_name
;
Wang, Guangmei;Mudring, Anja-Verena
;
_cell_length_a                     9.3715(19)
_cell_length_b                     8.1460(16)
_cell_length_c                     9.5865(19)
_cell_angle_alpha                  90.00
_cell_angle_beta                   101.18(3)
_cell_angle_gamma                  90.00
_cell_volume                       717.94
_cell_formula_units_Z              4
_symmetry_space_group_name_H-M     'P 1 21/c 1'
_symmetry_Int_Tables_number        14
_refine_ls_R_factor_all            .04
loop_
_symmetry_equiv_pos_site_id
_symmetry_equiv_pos_as_xyz
  1	'x, -y+.5, z+.5'
  2	'-x, -y, -z'
  3	'-x, y+.5, -z+.5'
  4	'x, y, z'
loop_
_atom_type_symbol
_atom_type_oxidation_number
B3+	3
Fe3+	3
H1+	1
K1+	1
O2-	-2
P5+	5
loop_
_atom_site_label
_atom_site_type_symbol
_atom_site_symmetry_multiplicity
_atom_site_Wyckoff_symbol
_atom_site_fract_x
_atom_site_fract_y
_atom_site_fract_z
_atom_site_occupancy
_atom_site_attached_hydrogens
_atom_site_U_iso_or_equiv
Fe1 Fe3+ 4 e 0.78949(7) 0.15463(9) 0.06791(8) 1 0 0.00712(19) 
P1 P5+ 4 e 0.92417(13) 0.05611(16) -0.21109(13) 1 0 0.0071(3) 
P2 P5+ 4 e 0.57704(13) 0.24790(16) 0.28294(14) 1 0 0.0069(3) 
O1 O2- 4 e 0.6534(4) 0.1296(4) 0.2007(4) 1 0 0.0113(7) 
O2 O2- 4 e 0.5965(4) 0.4276(4) 0.2375(4) 1 0 0.0098(7) 
O3 O2- 4 e 0.6252(4) 0.2742(5) -0.0591(4) 1 0 0.0129(8) 
O4 O2- 4 e 0.4090(4) 0.2215(4) 0.2419(4) 1 0 0.0106(7) 
O5 O2- 4 e 0.9032(4) 0.1636(4) -0.0874(4) 1 0 0.0115(7) 
O6 O2- 4 e 0.9234(4) 0.0115(4) 0.1946(4) 1 0 0.0105(7) 
O7 O2- 4 e 0.8896(4) 0.3546(4) 0.1456(4) 1 0 0.0105(7) 
O8 O2- 4 e 0.8148(4) -0.0940(4) -0.2214(4) 1 0 0.0107(7) 
O9 O2- 4 e 0.6871(4) -0.0603(4) -0.0348(4) 1 0 0.0105(7) 
K1 K1+ 4 e 0.80671(16) -0.08925(18) 0.42790(16) 1 0 0.0278(3) 
B1 B3+ 4 e 0.6697(6) 0.5721(7) 0.3092(6) 1 0 0.0093(11) 
H1 H1+ 4 e 0.617(6) -0.093(10) 0.000(8) 1 0 0.04(2) 

loop_
_atom_site_aniso_label
_atom_site_aniso_type_symbol
_atom_site_aniso_U_11
_atom_site_aniso_U_22
_atom_site_aniso_U_33
_atom_site_aniso_U_12
_atom_site_aniso_U_13
_atom_site_aniso_U_23
Fe1 Fe3+ 0.0069(3) 0.0084(3) 0.0059(3) 0.0004(3) 0.0007(3) -0.0001(3)
P1 P5+ 0.0058(6) 0.0087(6) 0.0063(6) 0.0002(4) 0.0002(5) 0.0002(5)
P2 P5+ 0.0057(5) 0.0083(6) 0.0066(6) -0.0010(5) 0.0007(5) -0.0009(5)
O1 O2- 0.0127(17) 0.0093(17) 0.0140(19) 0.0004(14) 0.0077(15) 0.0009(14)
O2 O2- 0.0091(16) 0.0097(17) 0.0092(17) -0.0014(13) -0.0017(14) 0.0014(14)
O3 O2- 0.0168(18) 0.0149(18) 0.0071(18) 0.0068(15) 0.0024(15) 0.0010(15)
O4 O2- 0.0061(15) 0.0116(17) 0.0130(19) -0.0002(14) -0.0011(14) -0.0021(15)
O5 O2- 0.0117(16) 0.0138(18) 0.0103(18) 0.0002(14) 0.0054(15) -0.0036(15)
O6 O2- 0.0049(15) 0.0136(18) 0.0125(19) 0.0005(14) 0.0004(14) 0.0007(15)
O7 O2- 0.0127(17) 0.0105(17) 0.0075(18) -0.0030(14) -0.0002(14) -0.0032(14)
O8 O2- 0.0072(16) 0.0076(17) 0.017(2) 0.0013(13) 0.0007(14) -0.0017(14)
O9 O2- 0.0110(17) 0.0118(18) 0.0092(18) -0.0018(14) 0.0031(14) 0.0009(14)
K1 K1+ 0.0334(8) 0.0262(7) 0.0237(7) -0.0099(6) 0.0052(6) -0.0074(6)
B1 B3+ 0.010(3) 0.008(3) 0.009(3) 0.001(2) 0.002(2) 0.001(2)
#End of data_422900-ICSD


