data_35047-ICSD
#?2014 by Fachinformationszentrum Karlsruhe, and the U.S. Secretary of 
#Commerce on behalf of the United States.  All rights reserved.
_database_code_ICSD                35047
_audit_creation_date               1982/12/31
_chemical_name_systematic
;
Bis(sulfur(IV) Oxide) Magnesium Hexafluoroarsenate
;
_chemical_formula_structural       'Mg (S O2)2 (As F6)2'
_chemical_formula_sum              'As2 F12 Mg1 O4 S2'
_publ_section_title                Metall-Schwefeldioxid-Komplexe
loop_
_citation_id
_citation_journal_abbrev
_citation_year
_citation_journal_volume
_citation_page_first
_citation_page_last
_citation_journal_id_ASTM
primary
;
Zeitschrift fuer Naturforschung, Teil B. Anorganische Chemie, 
Organische Chemie (33,1978-41,1986)
;
 1982 37 1116 1121 ZNBAD2
_publ_author_name
;
Hoppenheit, R.;Isenberg, W.;Mews, R.
;
_cell_length_a                     10.089(3)
_cell_length_b                     10.397(3)
_cell_length_c                     12.395(4)
_cell_angle_alpha                  90.
_cell_angle_beta                   91.12(3)
_cell_angle_gamma                  90.
_cell_volume                       1299.93
_cell_formula_units_Z              4
_symmetry_space_group_name_H-M     'P 1 21/n 1'
_symmetry_Int_Tables_number        14
_refine_ls_R_factor_all            .094
loop_
_symmetry_equiv_pos_site_id
_symmetry_equiv_pos_as_xyz
  1	'-x+.5, y+.5, -z+.5'
  2	'-x, -y, -z'
  3	'x+.5, -y+.5, z+.5'
  4	'x, y, z'
loop_
_atom_type_symbol
_atom_type_oxidation_number
As5+	5
F1-	-1
Mg2+	2
O2-	-2
S4+	4
loop_
_atom_site_label
_atom_site_type_symbol
_atom_site_symmetry_multiplicity
_atom_site_Wyckoff_symbol
_atom_site_fract_x
_atom_site_fract_y
_atom_site_fract_z
_atom_site_occupancy
_atom_site_attached_hydrogens
_atom_site_U_iso_or_equiv
As1 As5+ 4 e 0.4914(2) -.0131(1) 0.8084(1) 1. 0 0.0031(1) 
As2 As5+ 4 e -.0111(2) -.0245(2) 0.7585(2) 1. 0 0.0037(1) 
F1 F1- 4 e 0.380(1) 0.0951(9) 0.7423(8) 1. 0 0.0056(4) 
F2 F1- 4 e 0.3944(9) -.1359(8) 0.7461(7) 1. 0 0.0042(3) 
F3 F1- 4 e 0.3827(12) -.0147(10) 0.9111(9) 1. 0 0.0073(4) 
F4 F1- 4 e 0.5862(12) -.1238(12) 0.8664(10) 1. 0 0.0090(6) 
F5 F1- 4 e 0.5821(11) -.0105(10) 0.6972(9) 1. 0 0.0070(4) 
F6 F1- 4 e 0.5722(12) 0.1115(11) 0.8628(8) 1. 0 0.0075(5) 
F7 F1- 4 e 0.1104(10) 0.0937(8) 0.7420(9) 1. 0 0.0064(4) 
F8 F1- 4 e 0.1189(10) -.1361(9) 0.7540(8) 1. 0 0.0061(4) 
F9 F1- 4 e -.1275(13) 0.0916(14) 0.7586(15) 1. 0 0.0126(8) 
F10 F1- 4 e -.1168(15) -.1473(13) 0.7739(15) 1. 0 0.0137(8) 
F11 F1- 4 e 0.0191(18) -.0098(12) 0.8881(8) 1. 0 0.0115(7) 
F12 F1- 4 e -.0182(18) -.0376(15) 0.6252(11) 1. 0 0.130(8) 
S1 S4+ 4 e 0.2990(7) 0.2297(5) 0.4773(4) 1. 0 0.0064(2) 
S2 S4+ 4 e 0.2365(6) 0.3093(5) 1.0101(4) 1. 0 0.0061(2) 
O1 O2- 4 e 0.4396(16) 0.2258(14) 0.4787(11) 1. 0 0.0081(7) 
O2 O2- 4 e 0.2383(13) 0.2274(11) 0.5758(10) 1. 0 0.0057(5) 
O3 O2- 4 e 0.2457(12) 0.2312(11) 0.9145(8) 1. 0 0.0051(5) 
O4 O2- 4 e 0.2208(17) 0.4425(15) 0.9916(13) 1. 0 0.0093(7) 
Mg1 Mg2+ 4 e 0.2445(6) 0.2291(4) 0.7469(4) 1. 0 0.0029(2) 

#End of data_35047-ICSD


