data_79878-ICSD
#?2014 by Fachinformationszentrum Karlsruhe, and the U.S. Secretary of 
#Commerce on behalf of the United States.  All rights reserved.
_database_code_ICSD                79878
_audit_creation_date               1996/10/14
_chemical_name_systematic          'Potassium Disodium Nickel(I) Oxide'
_chemical_formula_structural       'K Na2 Ni O2'
_chemical_formula_sum              'K1 Na2 Ni1 O2'
_publ_section_title
;
Synthesis, crystal structure, and physical properties of K Na2 (Ni 
O2) and K3 (Ni O2) containing "linear" (Ni O2)(3-) anions
;
loop_
_citation_id
_citation_journal_abbrev
_citation_year
_citation_journal_volume
_citation_page_first
_citation_page_last
_citation_journal_id_ASTM
primary 'Inorganic Chemistry' 1995 34 2684 2691 INOCAJ
_publ_author_name
;
Moeller, A.;Hitchman, M.A.;Krausz, E.;Hoppe, R.
;
_cell_length_a                     6.261(3)
_cell_length_b                     10.474(3)
_cell_length_c                     12.472(7)
_cell_angle_alpha                  90.
_cell_angle_beta                   90.
_cell_angle_gamma                  90.
_cell_volume                       817.89
_cell_formula_units_Z              8
_symmetry_space_group_name_H-M     'C m c a'
_symmetry_Int_Tables_number        64
_refine_ls_R_factor_all            .113
loop_
_symmetry_equiv_pos_site_id
_symmetry_equiv_pos_as_xyz
  1	'-x, -y+.5, z+.5'
  2	'-x, y+.5, -z+.5'
  3	'-x, y, z'
  4	'-x, -y, -z'
  5	'x, y+.5, -z+.5'
  6	'x, -y+.5, z+.5'
  7	'x, -y, -z'
  8	'x, y, z'
  9	'-x+.5, -y, z+.5'
 10	'-x+.5, y, -z+.5'
 11	'-x+.5, y+.5, z'
 12	'-x+.5, -y+.5, -z'
 13	'x+.5, y, -z+.5'
 14	'x+.5, -y, z+.5'
 15	'x+.5, -y+.5, -z'
 16	'x+.5, y+.5, z'
loop_
_atom_type_symbol
_atom_type_oxidation_number
K1+	1
Na1+	1
Ni1+	1
O2-	-2
loop_
_atom_site_label
_atom_site_type_symbol
_atom_site_symmetry_multiplicity
_atom_site_Wyckoff_symbol
_atom_site_fract_x
_atom_site_fract_y
_atom_site_fract_z
_atom_site_occupancy
_atom_site_attached_hydrogens
_atom_site_U_iso_or_equiv
Ni1 Ni1+ 8 f 0 0.2497(2) 0.3778(4) 1. 0 0.0210(4) 
K1 K1+ 8 f 0 0.3144(3) 0.1286(5) 1. 0 0.0383(10) 
Na1 Na1+ 8 e 0.25 0.0244(6) 0.25 1. 0 0.033(3) 
Na2 Na1+ 8 d 0.267(1) 0.5 0 1. 0 0.034(3) 
O1 O2- 8 f 0 0.4197(9) 0.363(1) 1. 0 0.035(4) 
O2 O2- 8 f 0 0.0806(8) 0.380(1) 1. 0 0.032(3) 

#End of data_79878-ICSD


