data_280929-ICSD
#?2014 by Fachinformationszentrum Karlsruhe, and the U.S. Secretary of 
#Commerce on behalf of the United States.  All rights reserved.
_database_code_ICSD                280929
_audit_creation_date               2003/04/01
_audit_update_record               2005/10/01
_chemical_name_systematic
;
Potassium Hexacadmium Bis(diphosphate(V)) Triphosphate(V)
;
_chemical_formula_structural       'K Cd6 (P2 O7)2 (P3 O10)'
_chemical_formula_sum              'Cd6 K1 O24 P7'
_publ_section_title
;
Na Mn6 (P2 O7)2 (P3 O10) and K Cd6 (P2 O7)2 (P3 O10)
;
loop_
_citation_id
_citation_journal_abbrev
_citation_year
_citation_journal_volume
_citation_page_first
_citation_page_last
_citation_journal_id_ASTM
primary 'Acta Crystallographica, Section C: Crystal Structure Communications'
 2002 58 i76 i78 ACSCEE
_publ_author_name
;
Bennazha, J.;El Maadi, A.;Boukhari, A.;Holt, E.M.
;
_cell_length_a                     5.479(1)
_cell_length_b                     27.112(6)
_cell_length_c                     6.769(1)
_cell_angle_alpha                  90.
_cell_angle_beta                   107.11(2)
_cell_angle_gamma                  90.
_cell_volume                       961.01
_cell_formula_units_Z              2
_symmetry_space_group_name_H-M     'P 1 21/m 1'
_symmetry_Int_Tables_number        11
_refine_ls_R_factor_all            .04
loop_
_symmetry_equiv_pos_site_id
_symmetry_equiv_pos_as_xyz
  1	'x, -y+.5, z'
  2	'-x, -y, -z'
  3	'-x, y+.5, -z'
  4	'x, y, z'
loop_
_atom_type_symbol
_atom_type_oxidation_number
Cd2+	2
K1+	1
O2-	-2
P5+	5
loop_
_atom_site_label
_atom_site_type_symbol
_atom_site_symmetry_multiplicity
_atom_site_Wyckoff_symbol
_atom_site_fract_x
_atom_site_fract_y
_atom_site_fract_z
_atom_site_occupancy
_atom_site_attached_hydrogens
_atom_site_U_iso_or_equiv
Cd1 Cd2+ 4 f 0.21476(7) 0.401065(14) 0.07936(5) 1. 0 0.01012(15) 
Cd2 Cd2+ 4 f -.10831(7) 0.316993(14) -.29375(6) 1. 0 0.01007(15) 
Cd3 Cd2+ 4 f -.18227(7) 0.456654(15) 0.31341(5) 1. 0 0.01075(15) 
K1 K1+ 2 e 0.2879(4) 0.25 0.3631(3) 1. 0 0.0266(4) 
P1 P5+ 2 e -.5288(3) 0.25 -.1049(3) 1. 0 0.0079(3) 
O1 O2- 2 e -.808(1) 0.25 -.2252(8) 1. 0 0.0098(10) 
O2 O2- 2 e -.3447(10) 0.25 -.2337(8) 1. 0 0.0109(10) 
O3 O2- 4 f -.4861(7) 0.29599(15) 0.0434(6) 1. 0 0.0126(7) 
P2 P5+ 4 f -.2451(2) 0.33017(5) 0.17738(19) 1. 0 0.0079(3) 
O4 O2- 4 f -.0561(7) 0.33212(16) 0.0509(6) 1. 0 0.0117(7) 
O5 O2- 4 f -.3768(8) 0.37833(15) 0.1914(6) 1. 0 0.0122(7) 
O6 O2- 4 f -.1360(9) 0.30321(16) 0.3791(6) 1. 0 0.0162(8) 
P3 P5+ 4 f 0.6729(2) 0.60837(5) 0.39189(19) 1. 0 0.0083(3) 
O7 O2- 4 f 0.8494(7) 0.59582(16) 0.6056(6) 1. 0 0.0121(8) 
O8 O2- 4 f 0.8272(8) 0.62120(16) 0.2444(6) 1. 0 0.0136(8) 
O9 O2- 4 f 0.4811(9) 0.64668(19) 0.3980(7) 1. 0 0.0241(10) 
O10 O2- 4 f 0.5386(9) 0.55736(18) 0.3061(7) 1. 0 0.0213(9) 
P4 P5+ 4 f 0.2908(2) 0.52490(5) 0.20808(19) 1. 0 0.0080(3) 
O11 O2- 4 f 0.1374(7) 0.54910(15) 0.0079(6) 1. 0 0.0105(7) 
O12 O2- 4 f 0.4073(7) 0.47592(15) 0.1744(6) 1. 0 0.0120(7) 
O13 O2- 4 f 0.1384(8) 0.52033(17) 0.3621(6) 1. 0 0.0138(8) 

loop_
_atom_site_aniso_label
_atom_site_aniso_type_symbol
_atom_site_aniso_U_11
_atom_site_aniso_U_22
_atom_site_aniso_U_33
_atom_site_aniso_U_12
_atom_site_aniso_U_13
_atom_site_aniso_U_23
Cd1 Cd2+ 0.0104(2) 0.0082(2) 0.0111(2) -0.00023(13) 0.00208(14) 
-0.00173(12)
Cd2 Cd2+ 0.0113(2) 0.0075(2) 0.0108(2) -0.00068(13) 0.00228(14) 
-0.00017(12)
Cd3 Cd2+ 0.0105(2) 0.0103(2) 0.0105(2) 0.00100(13) 0.00159(15) -0.00161(13)
K1 K1+ 0.0191(9) 0.0385(13) 0.0216(9) 0 0.0051(7) 0
P1 P5+ 0.0083(7) 0.0047(8) 0.0097(7) 0 0.0014(6) 0
O1 O2- 0.006(2) 0.008(2) 0.012(2) 0 -0.0036(18) 0
O2 O2- 0.016(2) 0.005(2) 0.015(2) 0 0.010(2) 0
O3 O2- 0.0119(16) 0.0060(17) 0.0192(17) -0.0026(14) 0.0035(14) -0.0054(14)
P2 P5+ 0.0100(5) 0.0038(6) 0.0092(5) 0.0000(4) 0.0018(4) -0.0004(4)
O4 O2- 0.0129(17) 0.0133(19) 0.0101(15) -0.0027(15) 0.0052(13) -0.0016(14)
O5 O2- 0.0131(17) 0.0036(17) 0.0196(17) 0.0016(14) 0.0041(14) -0.0027(13)
O6 O2- 0.026(2) 0.0100(19) 0.0130(16) 0.0062(17) 0.0063(15) 0.0019(15)
P3 P5+ 0.0084(5) 0.0067(6) 0.0088(5) -0.0002(4) 0.0007(4) 0.0009(4)
O7 O2- 0.0121(17) 0.016(2) 0.0067(14) 0.0021(14) 0.0000(13) 0.0004(13)
O8 O2- 0.0181(18) 0.0091(19) 0.0137(16) -0.0063(15) 0.0048(15) -0.0028(14)
O9 O2- 0.023(2) 0.026(3) 0.022(2) 0.018(2) 0.0061(17) 0.0075(19)
O10 O2- 0.019(2) 0.014(2) 0.026(2) -0.0095(17) -0.0012(17) -0.0010(17)
P4 P5+ 0.0090(5) 0.0057(6) 0.0081(5) -0.0004(5) 0.0007(4) 0.0002(4)
O11 O2- 0.0110(16) 0.0098(18) 0.0097(15) 0.0031(14) 0.0013(13) 0.0017(13)
O12 O2- 0.0105(16) 0.0044(17) 0.0194(17) 0.0025(14) 0.0019(14) -0.0005(14)
O13 O2- 0.0143(17) 0.016(2) 0.0124(16) -0.0025(15) 0.0061(14) -0.0032(15)
#End of data_280929-ICSD


