data_186024-ICSD
#?2014 by Fachinformationszentrum Karlsruhe, and the U.S. Secretary of 
#Commerce on behalf of the United States.  All rights reserved.
_database_code_ICSD                186024
_audit_creation_date               2013/02/01
_chemical_name_systematic
;
Magnesium Dialuminium Diarsenate Dihydroxide Octahydrate
;
_chemical_formula_structural       'Mg Al2 (As O4)2 (O H)2 (H2 O)8'
_chemical_formula_sum              'H18 Al2 As2 Mg1 O18'
_chemical_name_mineral             Maghrebite
_publ_section_title
;
Description and crystal structure of maghrebite, Mg Al2 (As O4)2 (O 
H)2 * 8(H2 O), from Aghbar, Anti-Atlas, Morocco: first arsenate in 
the laueite mineral group
;
loop_
_citation_id
_citation_journal_abbrev
_citation_year
_citation_journal_volume
_citation_page_first
_citation_page_last
_citation_journal_id_ASTM
primary 'European Journal of Mineralogy' 2012 24 717 726 EJMIER
_publ_author_name
;
Meisser, N.;Brugger, J.;Krivovichev, S.;Armbruster, T.;Favreau, G.
;
_cell_length_a                     5.4363
_cell_length_b                     10.500
_cell_length_c                     7.075
_cell_angle_alpha                  97.701
_cell_angle_beta                   110.295
_cell_angle_gamma                  102.021
_cell_volume                       360.99
_cell_formula_units_Z              1
_symmetry_space_group_name_H-M     'P -1'
_symmetry_Int_Tables_number        2
_refine_ls_R_factor_all            .045
loop_
_symmetry_equiv_pos_site_id
_symmetry_equiv_pos_as_xyz
  1	'-x, -y, -z'
  2	'x, y, z'
loop_
_atom_type_symbol
_atom_type_oxidation_number
Al3+	3
As5+	5
H1+	1
Mg2+	2
O2-	-2
loop_
_atom_site_label
_atom_site_type_symbol
_atom_site_symmetry_multiplicity
_atom_site_Wyckoff_symbol
_atom_site_fract_x
_atom_site_fract_y
_atom_site_fract_z
_atom_site_occupancy
_atom_site_attached_hydrogens
_atom_site_U_iso_or_equiv
Mg1 Mg2+ 1 e 0.50000 0.50000 0.00000 1. 0 0.0133(7) 
Al1 Al3+ 1 b 0.00000 0.00000 0.50000 1. 0 0.0108(6) 
Al2 Al3+ 1 a 0.00000 0.00000 0.00000 1. 0 0.0113(6) 
As1 As5+ 2 i -0.51690(14) -0.16695(7) -0.92788(11) 1. 0 0.0130(2) 
O1 O2- 2 i -0.1279(9) 0.0075(4) -0.2847(7) 1. 0 0.0148(10) 
O2 O2- 2 i -0.3119(8) -0.1497(4) -1.0633(6) 1. 0 0.0146(10) 
O3 O2- 2 i -0.3702(8) -0.0666(4) -0.6885(7) 1. 0 0.0158(10) 
O4 O2- 2 i -0.8092(8) -0.1268(4) -1.0603(6) 1. 0 0.0162(10) 
O5 O2- 2 i -0.6033(9) -0.3275(4) -0.9118(7) 1. 0 0.0193(11) 
O6 O2- 2 i -0.0222(9) 0.1851(5) -0.5307(7) 1. 0 0.0198(11) 
O7 O2- 2 i -0.5981(10) -0.3076(5) -0.5051(8) 1. 0 0.0283(12) 
O8 O2- 2 i -0.1690(10) -0.3876(5) -0.0435(8) 1. 0 0.0334(14) 
O9 O2- 2 i -0.2589(10) -0.4878(5) -0.6870(8) 1. 0 0.0319(13) 
H1 H1+ 2 i -0.110(15) 0.160(7) -0.681(2) 1. 0 0.05(3) 
H2 H1+ 2 i 0.025(6) -0.384(11) 0.004(18) 1. 0 0.13(5) 
H3 H1+ 2 i -0.166(6) 0.210(11) -0.495(17) 1. 0 0.12(5) 
H4 H1+ 2 i -0.453(12) -0.228(5) -0.416(10) 1. 0 0.05(3) 
H5 H1+ 2 i -0.305(18) -0.536(8) -0.589(10) 1. 0 0.07(3) 
H6 H1+ 2 i -0.210(16) -0.400(3) -0.596(9) 1. 0 0.04(2) 
H7 H1+ 2 i -0.580(6) -0.316(7) -0.639(6) 1. 0 0.04(2) 
H8 H1+ 2 i -0.237(19) -0.309(6) -0.050(15) 1. 0 0.08(3) 
H9 H1+ 2 i -0.320(7) 0.000(12) -0.361(15) 1. 0 0.12(5) 

loop_
_atom_site_aniso_label
_atom_site_aniso_type_symbol
_atom_site_aniso_U_11
_atom_site_aniso_U_22
_atom_site_aniso_U_33
_atom_site_aniso_U_12
_atom_site_aniso_U_13
_atom_site_aniso_U_23
Mg1 Mg2+ 0.0093(16) 0.0119(16) 0.0235(18) 0.0074(11) 0.0079(14) 0.0082(13)
Al1 Al3+ 0.0074(14) 0.0146(14) 0.0131(14) 0.0060(11) 0.0043(12) 0.0059(11)
Al2 Al3+ 0.0072(13) 0.0160(15) 0.0142(14) 0.0074(13) 0.0045(12) 0.0071(12)
As1 As5+ 0.0077(3) 0.0174(4) 0.0178(4) 0.0081(3) 0.0054(3) 0.0083(3)
O1 O2- 0.010(2) 0.023(3) 0.015(2) 0.009(2) 0.004(2) 0.009(2)
O2 O2- 0.011(2) 0.018(2) 0.019(2) 0.0075(19) 0.008(2) 0.0056(19)
O3 O2- 0.006(2) 0.019(2) 0.023(3) 0.0061(19) 0.004(2) 0.007(2)
O4 O2- 0.008(2) 0.028(3) 0.018(2) 0.013(2) 0.004(2) 0.011(2)
O5 O2- 0.013(2) 0.018(3) 0.029(3) 0.006(2) 0.009(2) 0.008(2)
O6 O2- 0.018(3) 0.024(3) 0.021(3) 0.011(2) 0.008(2) 0.006(2)
O7 O2- 0.024(3) 0.036(3) 0.032(3) 0.013(3) 0.015(3) 0.014(3)
O8 O2- 0.015(3) 0.030(3) 0.063(4) 0.011(2) 0.017(3) 0.021(3)
O9 O2- 0.028(3) 0.031(3) 0.033(3) 0.010(3) 0.006(3) 0.009(3)
#End of data_186024-ICSD


