data_1834-ICSD
#?2014 by Fachinformationszentrum Karlsruhe, and the U.S. Secretary of 
#Commerce on behalf of the United States.  All rights reserved.
_database_code_ICSD                1834
_audit_creation_date               1980/01/01
_audit_update_record               2011/02/01
_chemical_name_systematic          'Hexaaquamagnesium Dithionate'
_chemical_formula_structural       '(Mg (H2 O)6) (S2 O6)'
_chemical_formula_sum              'H12 Mg1 O12 S2'
_publ_section_title                'M S2 O6 (H2 O)6 (M= Mg, Ni, Zn)'
loop_
_citation_id
_citation_journal_abbrev
_citation_year
_citation_journal_volume
_citation_page_first
_citation_page_last
_citation_journal_id_ASTM
primary 'Acta Crystallographica B (24,1968-38,1982)' 1975 31 615 617 ACBCAR
_publ_author_name
;
Black, W.H.;Griffith, E.A.H.;Robertson, B.E.
;
_cell_length_a                     6.819(2)
_cell_length_b                     6.747(2)
_cell_length_c                     6.506(2)
_cell_angle_alpha                  94.23(2)
_cell_angle_beta                   96.76(2)
_cell_angle_gamma                  101.72(2)
_cell_volume                       289.58
_cell_formula_units_Z              1
_symmetry_space_group_name_H-M     'P -1'
_symmetry_Int_Tables_number        2
_refine_ls_R_factor_all            .036
loop_
_symmetry_equiv_pos_site_id
_symmetry_equiv_pos_as_xyz
  1	'-x, -y, -z'
  2	'x, y, z'
loop_
_atom_type_symbol
_atom_type_oxidation_number
H1+	1
Mg2+	2
O2-	-2
S5+	5
loop_
_atom_site_label
_atom_site_type_symbol
_atom_site_symmetry_multiplicity
_atom_site_Wyckoff_symbol
_atom_site_fract_x
_atom_site_fract_y
_atom_site_fract_z
_atom_site_occupancy
_atom_site_attached_hydrogens
_atom_site_U_iso_or_equiv
Mg1 Mg2+ 1 a 0 0 0 1. 0 0 
S1 S5+ 2 i 0.3597(2) 0.5450(2) 0.5014(2) 1. 0 0 
O1 O2- 2 i 0.1285(6) 0.2919(5) -.0435(6) 1. 0 0 
O2 O2- 2 i -.0702(6) 0.0970(5) 0.2832(5) 1. 0 0 
O3 O2- 2 i 0.2739(5) -.0365(6) 0.1429(6) 1. 0 0 
O4 O2- 2 i 0.2263(5) 0.3693(5) 0.5610(5) 1. 0 0 
O5 O2- 2 i 0.4029(5) 0.7213(5) 0.6537(6) 1. 0 0 
O6 O2- 2 i 0.3055(5) 0.5888(5) 0.2903(5) 1. 0 0 
H1 H1+ 2 i 0.174(10) 0.372(11) 0.040(11) 1. 0 0.05(2) 
H2 H1+ 2 i 0.167(8) 0.320(8) -.141(9) 1. 0 0.03(1) 
H3 H1+ 2 i -.159(10) 0.138(10) 0.29(1) 1. 0 0.05(2) 
H4 H1+ 2 i 0.005(10) 0.149(10) 0.358(11) 1. 0 0.05(2) 
H5 H1+ 2 i 0.293(10) -.121(10) 0.181(10) 1. 0 0.04(2) 
H6 H1+ 2 i 0.353(10) 0.048(10) 0.19(1) 1. 0 0.05(1) 

loop_
_atom_site_aniso_label
_atom_site_aniso_type_symbol
_atom_site_aniso_U_11
_atom_site_aniso_U_22
_atom_site_aniso_U_33
_atom_site_aniso_U_12
_atom_site_aniso_U_13
_atom_site_aniso_U_23
Mg1 Mg2+ 0.028(1) 0.022(1) 0.025(1) 0.003(1) -.002(1) -.002(1)
S1 S5+ 0.028(1) 0.027(1) 0.30(1) 0.005(1) -.002(1) -.007(1)
O1 O2- 0.063(2) 0.029(2) 0.030(2) -.007(1) 0.003(2) -.001(1)
O2 O2- 0.038(2) 0.045(2) 0.034(2) 0.008(2) 0.000(1) -.011(1)
O3 O2- 0.036(2) 0.031(2) 0.060(2) 0.005(1) -.016(2) 0.002(2)
O4 O2- 0.040(2) 0.052(2) 0.040(2) -.014(1) 0.008(1) -.004(1)
O5 O2- 0.038(2) 0.046(2) 0.058(2) 0.012(1) -.005(1) -.030(2)
O6 O2- 0.060(2) 0.035(2) 0.042(2) 0.012(1) -.019(2) 0.004(1)
#End of data_1834-ICSD


