data_98718-ICSD
#?2014 by Fachinformationszentrum Karlsruhe, and the U.S. Secretary of 
#Commerce on behalf of the United States.  All rights reserved.
_database_code_ICSD                98718
_audit_creation_date               2005/04/01
_chemical_name_systematic
;
Octapotassium Tetrakis(chromato(VI))dioxouranate Dinitrate(V)
;
_chemical_formula_structural       'K8 ((U O2) (Cr O4)4) (N O3)2'
_chemical_formula_sum              'Cr4 K8 N2 O24 U1'
_publ_section_title
;
Structural topology of potassium uranyl chromates: crystal structures 
of K8 ((U O2) (Cr O4)4) (N O3)2, K5 ((U O2) (Cr O4)3) (N O3) (H2 O)3, 
K4 ((U O2)3 (Cr O4)5) (H2 O)8 and K2 ((U O2)2 (Cr O4)3 (H2 O)2) (H2 
O)4
;
loop_
_citation_id
_citation_journal_abbrev
_citation_year
_citation_journal_volume
_citation_page_first
_citation_page_last
_citation_journal_id_ASTM
primary 'Zeitschrift fuer Kristallographie (1979-2010)' 2003 218 725 732 ZEKRDZ
_publ_author_name                  'Krivovichev, S.V.;Burns, P.C.'
_cell_length_a                     7.0397(6)
_cell_length_b                     9.7341(9)
_cell_length_c                     9.7568(9)
_cell_angle_alpha                  105.846(2)
_cell_angle_beta                   97.992(2)
_cell_angle_gamma                  93.271(2)
_cell_volume                       633.76
_cell_formula_units_Z              1
_symmetry_space_group_name_H-M     'P -1'
_symmetry_Int_Tables_number        2
_refine_ls_R_factor_all            .044
loop_
_symmetry_equiv_pos_site_id
_symmetry_equiv_pos_as_xyz
  1	'-x, -y, -z'
  2	'x, y, z'
loop_
_atom_type_symbol
_atom_type_oxidation_number
Cr6+	6
K1+	1
N5+	5
O2-	-2
U6+	6
loop_
_atom_site_label
_atom_site_type_symbol
_atom_site_symmetry_multiplicity
_atom_site_Wyckoff_symbol
_atom_site_fract_x
_atom_site_fract_y
_atom_site_fract_z
_atom_site_occupancy
_atom_site_attached_hydrogens
_atom_site_U_iso_or_equiv
U1 U6+ 1 a 0 0 0 1. 0 0.0158(1) 
Cr1 Cr6+ 2 i 0.12794(14) 0.87581(10) 0.63833(10) 1. 0 0.0142(2) 
Cr2 Cr6+ 2 i 0.14473(15) 0.38794(10) 0.15919(11) 1. 0 0.0165(2) 
K1 K1+ 2 i 0.6234(2) -.09095(15) 0.64897(16) 1. 0 0.0226(3) 
K2 K1+ 2 i 0.2551(2) 0.51232(17) 0.54281(17) 1. 0 0.0281(3) 
K3 K1+ 2 i 0.6078(3) 0.3049(2) 0.0508(2) 1. 0 0.0435(3) 
K4 K1+ 2 i -0.0063(2) 0.73988(17) 0.24418(18) 1. 0 0.0296(3) 
N1 N5+ 2 i 0.5046(9) 0.2967(6) 0.7034(6) 1. 0 0.0143(12) 
O1 O2- 2 i 0.0099(7) -0.0184(5) 0.7653(5) 1. 0 0.0199(9) 
O2 O2- 2 i 0.2915(7) 0.7973(5) 0.7157(5) 1. 0 0.0244(10) 
O3 O2- 2 i 0.0100(8) 0.2387(5) 0.0388(5) 1. 0 0.0247(10) 
O4 O2- 2 i 0.2594(7) 0.0091(6) 0.0434(5) 1. 0 0.0265(10) 
O5 O2- 2 i -0.0285(8) 0.7525(5) 0.5245(5) 1. 0 0.0275(11) 
O6 O2- 2 i 0.0094(8) 0.4736(5) 0.2707(5) 1. 0 0.0275(11) 
O7 O2- 2 i 0.3294(8) 0.3434(5) 0.2531(6) 1. 0 0.0293(11) 
O8 O2- 2 i 0.2320(8) -0.0266(6) 0.5538(6) 1. 0 0.0273(11) 
O9 O2- 2 i 0.2210(8) 0.4891(6) 0.0681(6) 1. 0 0.0315(12) 
O10 O2- 2 i 0.4679(9) 0.6798(6) 0.4115(6) 1. 0 0.0358(13) 
O11 O2- 2 i 0.6011(9) 0.2103(6) 0.7512(7) 1. 0 0.0385(14) 
O12 O2- 2 i 0.6154(8) 0.6385(7) 0.2285(7) 1. 0 0.0421(15) 

#End of data_98718-ICSD


