data_200909-ICSD
#?2014 by Fachinformationszentrum Karlsruhe, and the U.S. Secretary of 
#Commerce on behalf of the United States.  All rights reserved.
_database_code_ICSD                200909
_audit_creation_date               1980/01/01
_audit_update_record               1985/05/30
_chemical_name_systematic          'Aluminium Chloride Ammonia'
_chemical_formula_structural       'Al Cl3 (N H3)'
_chemical_formula_sum              'H3 Al1 Cl3 N1'
_publ_section_title
;
Structure and vibrational spectra of aluminium chloride monoammoniate
;
loop_
_citation_id
_citation_journal_abbrev
_citation_year
_citation_journal_volume
_citation_page_first
_citation_page_last
_citation_journal_id_ASTM
primary 'Koordinatsionnaya Khimiya (= Coordination Chemistry (USSR))'
 1978 4 1649 1652 KOKHDC
_publ_author_name
;
Semenenko, K.N.;Lobkovskii, E.B.;Polyakova, V.B.;Korobov, 
I.I.;Kravchenko, O.V.
;
_cell_length_a                     9.895(6)
_cell_length_b                     10.148(6)
_cell_length_c                     11.544(7)
_cell_angle_alpha                  90.
_cell_angle_beta                   90.
_cell_angle_gamma                  90.
_cell_volume                       1159.18
_cell_formula_units_Z              8
_symmetry_space_group_name_H-M     'P b c a'
_symmetry_Int_Tables_number        61
_refine_ls_R_factor_all            .034
loop_
_symmetry_equiv_pos_site_id
_symmetry_equiv_pos_as_xyz
  1	'x+.5, y, -z+.5'
  2	'x, -y+.5, z+.5'
  3	'-x+.5, y+.5, z'
  4	'-x, -y, -z'
  5	'-x+.5, -y, z+.5'
  6	'-x, y+.5, -z+.5'
  7	'x+.5, -y+.5, -z'
  8	'x, y, z'
loop_
_atom_type_symbol
_atom_type_oxidation_number
Al3+	3
Cl1-	-1
H1+	1
N3-	-3
loop_
_atom_site_label
_atom_site_type_symbol
_atom_site_symmetry_multiplicity
_atom_site_Wyckoff_symbol
_atom_site_fract_x
_atom_site_fract_y
_atom_site_fract_z
_atom_site_occupancy
_atom_site_attached_hydrogens
_atom_site_B_iso_or_equiv
Cl1 Cl1- 8 c 0.15242(8) 0.42289(8) 0.06615(7) 1. 0 0 
Cl2 Cl1- 8 c 0.27961(8) 0.32412(9) 0.33514(7) 1. 0 0 
Cl3 Cl1- 8 c 0.44734(10) 0.56886(8) 0.16781(8) 1. 0 0 
Al1 Al3+ 8 c 0.32673(8) 0.39673(8) 0.16888(7) 1. 0 0 
N1 N3- 8 c 0.43626(23) 0.26405(25) 0.09632(20) 1. 0 0 
H1 H1+ 8 c 0.387(4) 0.199(4) 0.087(3) 1. 0 7. 
H2 H1+ 8 c 0.460(4) 0.289(4) 0.029(4) 1. 0 8. 
H3 H1+ 8 c 0.493(4) 0.255(5) 0.133(3) 1. 0 7. 

#End of data_200909-ICSD


