data_65501-ICSD
#?2014 by Fachinformationszentrum Karlsruhe, and the U.S. Secretary of 
#Commerce on behalf of the United States.  All rights reserved.
_database_code_ICSD                65501
_audit_creation_date               1990/06/08
_chemical_name_systematic          'Dipotassium Lead(IV) Lead Oxide'
_chemical_formula_structural       'K2 Pb2 O4'
_chemical_formula_sum              'K2 O4 Pb2'
_publ_section_title
;
Zur Konstitution von 'K Pb O2'
;
loop_
_citation_id
_citation_journal_abbrev
_citation_year
_citation_journal_volume
_citation_page_first
_citation_page_last
_citation_journal_id_ASTM
primary 'Zeitschrift fuer Anorganische und Allgemeine Chemie (1950) (DE)'
 1987 549 87 102 ZAACAB
_publ_author_name                  'Stoll, H.;Hoppe, R.'
_cell_length_a                     12.9594(9)
_cell_length_b                     7.5335(7)
_cell_length_c                     6.9712(8)
_cell_angle_alpha                  118.00(1)
_cell_angle_beta                   106.15(1)
_cell_angle_gamma                  93.44(1)
_cell_volume                       562.45
_cell_formula_units_Z              4
_symmetry_space_group_name_H-M     'P -1'
_symmetry_Int_Tables_number        2
_refine_ls_R_factor_all            .0801
loop_
_symmetry_equiv_pos_site_id
_symmetry_equiv_pos_as_xyz
  1	'-x, -y, -z'
  2	'x, y, z'
loop_
_atom_type_symbol
_atom_type_oxidation_number
K1+	1
O2-	-2
Pb2+	2
Pb4+	4
loop_
_atom_site_label
_atom_site_type_symbol
_atom_site_symmetry_multiplicity
_atom_site_Wyckoff_symbol
_atom_site_fract_x
_atom_site_fract_y
_atom_site_fract_z
_atom_site_occupancy
_atom_site_attached_hydrogens
Pb1 Pb4+ 2 i 0.2466(1) 0.4999(2) 0.4879(2) 1. 0 
Pb2 Pb4+ 2 i 0.7451(1) 0.4987(2) 0.9822(2) 1. 0 
Pb3 Pb2+ 2 i 0.0279(1) 0.2508(2) 0.5156(2) 1. 0 
Pb4 Pb2+ 2 i 0.5346(1) 0.2656(2) 0.0253(3) 1. 0 
K1 K1+ 2 i 0.7400(5) 0.9898(9) 0.4854(10) 1. 0 
K2 K1+ 2 i 0.5060(6) 0.7554(11) 0.5102(13) 1. 0 
K3 K1+ 2 i 0.2272(7) 0.9989(14) 0.9718(15) 1. 0 
K4 K1+ 2 i 0.0209(6) 0.7406(12) 0.0174(15) 1. 0 
O1 O2- 2 i 0.1628(15) 0.5987(22) 0.2482(23) 1. 0 
O2 O2- 2 i 0.6462(16) 0.5788(25) 0.2392(25) 1. 0 
O3 O2- 2 i 0.8557(16) 0.7877(22) 0.2071(24) 1. 0 
O4 O2- 2 i 0.6472(16) 0.2081(22) 0.2810(23) 1. 0 
O5 O2- 2 i 0.6398(16) 0.2020(24) 0.8014(24) 1. 0 
O6 O2- 2 i 0.8607(18) 0.4324(24) 0.2652(25) 1. 0 
O7 O2- 2 i 0.8598(17) 0.7973(23) 0.6766(24) 1. 0 
O8 O2- 2 i 0.6475(18) 0.5991(25) 0.7400(26) 1. 0 

loop_
_atom_site_aniso_label
_atom_site_aniso_type_symbol
_atom_site_aniso_U_11
_atom_site_aniso_U_22
_atom_site_aniso_U_33
_atom_site_aniso_U_12
_atom_site_aniso_U_13
_atom_site_aniso_U_23
Pb1 Pb4+ 0.0047(3) 0.0071(3) 0.0125(4) 0.0035(3) 0.0039(3) 0.0065(3)
Pb2 Pb4+ 0.0139(4) 0.0090(4) 0.0039(4) -.0035(3) -.0003(3) 0.0014(3)
Pb3 Pb2+ 0.0067(3) 0.0070(3) 0.0050(3) 0.0001(3) 0.0016(3) 0.0037(3)
Pb4 Pb2+ 0.0145(4) 0.0148(4) 0.0194(4) -.0047(4) 0.0024(4) 0.0067(4)
K1 K1+ 0.0106(17) 0.0105(17) 0.0157(21) 0.0066(15) 0.0029(16) 0.0101(16)
K2 K1+ 0.0043(17) 0.0097(20) 0.0123(20) 0.0047(16) 0.0052(16) 0.0043(17)
K3 K1+ 0.0186(20) 0.0212(22) 0.0135(20) 0.0033(20) 0.0082(18) 0.0123(18)
K4 K1+ 0.0114(20) 0.0247(21) 0.0334(23) 0.0121(18) 0.0043(19) 0.0231(18)
O1 O2- 0.0148(28) 0.0221(28) 0.0198(27) 0.0008(27) 0.0060(26) 0.0129(27)
O2 O2- 0.0118(28) 0.0270(29) 0.0208(28) 0.0004(28) 0.0082(27) 0.0068(28)
O3 O2- 0.0128(28) 0.0210(28) 0.0226(28) 0.0052(27) 0.0088(27) 0.0101(27)
O4 O2- 0.0158(29) 0.0195(28) 0.0176(27) 0.0036(28) 0.0077(27) 0.0116(25)
O5 O2- 0.0210(28) 0.0253(29) 0.0215(28) 0.0059(28) 0.0080(27) 0.0086(27)
O6 O2- 0.0204(29) 0.0232(28) 0.0222(29) 0.0045(28) 0.0042(28) 0.0090(27)
O7 O2- 0.0119(29) 0.0225(28) 0.0206(28) 0.0029(28) 0.0054(28) 0.0076(27)
O8 O2- 0.0129(29) 0.0256(29) 0.0230(29) 0.0025(29) 0.0024(28) 0.0096(29)
#End of data_65501-ICSD


