data_78749-ICSD
#?2014 by Fachinformationszentrum Karlsruhe, and the U.S. Secretary of 
#Commerce on behalf of the United States.  All rights reserved.
_database_code_ICSD                78749
_audit_creation_date               1997/05/13
_chemical_name_systematic          'Rubidium Hexafluoroalumopalladate'
_chemical_formula_structural       'Rb (Al Pd F6)'
_chemical_formula_sum              'Al1 F6 Pd1 Rb1'
_publ_section_title
;
Zur Kristallstruktur von Li Pd Ga F6, Rb Pd Al F6 und K1,06 Pd0,95 
Fe1,05 F6
;
loop_
_citation_id
_citation_journal_abbrev
_citation_year
_citation_journal_volume
_citation_page_first
_citation_page_last
_citation_journal_id_ASTM
primary 'Zeitschrift fuer Anorganische und Allgemeine Chemie (1950) (DE)'
 1995 621 1385 1394 ZAACAB
_publ_author_name                  'Mueller, M.;Mueller, B.G.'
_cell_length_a                     7.2901(1)
_cell_length_b                     7.111(1)
_cell_length_c                     10.065(2)
_cell_angle_alpha                  90.
_cell_angle_beta                   90.
_cell_angle_gamma                  90.
_cell_volume                       521.77
_cell_formula_units_Z              4
_symmetry_space_group_name_H-M     'P n m a'
_symmetry_Int_Tables_number        62
_refine_ls_R_factor_all            .036
loop_
_symmetry_equiv_pos_site_id
_symmetry_equiv_pos_as_xyz
  1	'x+.5, y, -z+.5'
  2	'x, -y+.5, z'
  3	'-x+.5, y+.5, z+.5'
  4	'-x, -y, -z'
  5	'-x+.5, -y, z+.5'
  6	'-x, y+.5, -z'
  7	'x+.5, -y+.5, -z+.5'
  8	'x, y, z'
loop_
_atom_type_symbol
_atom_type_oxidation_number
Al3+	3
F1-	-1
Pd2+	2
Rb1+	1
loop_
_atom_site_label
_atom_site_type_symbol
_atom_site_symmetry_multiplicity
_atom_site_Wyckoff_symbol
_atom_site_fract_x
_atom_site_fract_y
_atom_site_fract_z
_atom_site_occupancy
_atom_site_attached_hydrogens
Rb1 Rb1+ 4 c 0.4782(1) 0.25 0.13193(8) 1. 0 
Pd1 Pd2+ 4 c 0.78209(6) 0.25 0.73792(4) 1. 0 
Al1 Al3+ 4 a 0 0 0 1. 0 
F1 F1- 4 c 0.0413(5) 0.25 0.6451(4) 1. 0 
F2 F1- 4 c 0.9670(5) 0.25 0.0161(4) 1. 0 
F3 F1- 8 d 0.8660(4) 0.0004(3) 0.8506(3) 1. 0 
F4 F1- 8 d 0.7044(3) 0.4646(3) 0.5951(3) 1. 0 

loop_
_atom_site_aniso_label
_atom_site_aniso_type_symbol
_atom_site_aniso_U_11
_atom_site_aniso_U_22
_atom_site_aniso_U_33
_atom_site_aniso_U_12
_atom_site_aniso_U_13
_atom_site_aniso_U_23
Rb1 Rb1+ 0.0285(4) 0.0376(4) 0.0230(4) 0 -.0014(3) 0
Pd1 Pd2+ 0.0092(2) 0.0082(2) 0.0096(2) 0 -.0012(2) 0
Al1 Al3+ 0.0112(9) 0.0030(7) 0.0062(9) -.0004(6) 0.0009(6) 0.0009(6)
F1 F1- 0.010(2) 0.039(2) 0.013(2) 0 0.001(1) 0
F2 F1- 0.022(2) 0.005(2) 0.018(2) 0 -.001(1) 0
F3 F1- 0.024(1) 0.014(1) 0.011(1) 0.001(1) -.008(1) 0.0015(9)
F4 F1- 0.015(1) 0.014(1) 0.022(1) -.001(1) -.008(1) 0.0069(9)
#End of data_78749-ICSD


