data_20287-ICSD
#?2014 by Fachinformationszentrum Karlsruhe, and the U.S. Secretary of 
#Commerce on behalf of the United States.  All rights reserved.
_database_code_ICSD                20287
_audit_creation_date               1980/01/01
_audit_update_record               1984/11/02
_chemical_name_systematic          'Neodymium Sodium Silicate'
_chemical_formula_structural       'Na Nd Si O4'
_chemical_formula_sum              'Na1 Nd1 O4 Si1'
_publ_section_title
;
The crystal structure of Na Nd Si O4
;
loop_
_citation_id
_citation_journal_abbrev
_citation_year
_citation_journal_volume
_citation_page_first
_citation_page_last
_citation_journal_id_ASTM
primary Geokhimiya 1968 1968 1456 1461 GEOKAQ
_publ_author_name                  'Chichagov, A.V.;Belov, N.V.'
_cell_length_a                     20.
_cell_length_b                     9.28
_cell_length_c                     5.45
_cell_angle_alpha                  90.
_cell_angle_beta                   90.
_cell_angle_gamma                  90.
_cell_volume                       1011.52
_cell_formula_units_Z              12
_symmetry_space_group_name_H-M     'P n a 21'
_symmetry_Int_Tables_number        33
_refine_ls_R_factor_all            .13
loop_
_symmetry_equiv_pos_site_id
_symmetry_equiv_pos_as_xyz
  1	'x+.5, -y+.5, z'
  2	'-x+.5, y+.5, z+.5'
  3	'-x, -y, z+.5'
  4	'x, y, z'
loop_
_atom_type_symbol
_atom_type_oxidation_number
Na1+	1
Nd3+	3
O2-	-2
Si4+	4
loop_
_atom_site_label
_atom_site_type_symbol
_atom_site_symmetry_multiplicity
_atom_site_Wyckoff_symbol
_atom_site_fract_x
_atom_site_fract_y
_atom_site_fract_z
_atom_site_occupancy
_atom_site_attached_hydrogens
Nd1 Nd3+ 4 a 0 0.198 0.052 1. 0 
Nd2 Nd3+ 4 a 0.167 0.302 0 1. 0 
Nd3 Nd3+ 4 a 0.334 0.198 0 1. 0 
Si1 Si4+ 4 a 0.091 0.416 0.517 1. 0 
Si2 Si4+ 4 a 0.258 0.084 0.493 1. 0 
Si3 Si4+ 4 a 0.424 0.416 0.5 1. 0 
Na1 Na1+ 4 a 0.111 0.072 0.506 1. 0 
Na2 Na1+ 4 a 0.278 0.428 0.483 1. 0 
Na3 Na1+ 4 a 0.445 0.075 0.517 1. 0 
O1 O2- 4 a 0.07 0.333 0.277 1. 0 
O2 O2- 4 a 0.069 0.333 0.774 1. 0 
O3 O2- 4 a 0.166 0.437 0.533 1. 0 
O4 O2- 4 a 0.442 0.07 0.017 1. 0 
O5 O2- 4 a 0.235 0.166 0.737 1. 0 
O6 O2- 4 a 0.235 0.165 0.238 1. 0 
O7 O2- 4 a 0.332 0.063 0.533 1. 0 
O8 O2- 4 a 0.276 0.43 0.953 1. 0 
O9 O2- 4 a 0.402 0.333 0.253 1. 0 
O10 O2- 4 a 0.403 0.334 0.753 1. 0 
O11 O2- 4 a 0 0.064 0.45 1. 0 
O12 O2- 4 a 0.109 0.07 0.04 1. 0 

#End of data_20287-ICSD


