data_260726-ICSD
#?2014 by Fachinformationszentrum Karlsruhe, and the U.S. Secretary of 
#Commerce on behalf of the United States.  All rights reserved.
_database_code_ICSD                260726
_audit_creation_date               2010/08/01
_audit_update_record               2012/02/01
_chemical_name_systematic
;
Dipotassium Zinc Tetraiodate(V) Dihydrate
;
_chemical_formula_structural       'K2 Zn (I O3)4 (H2 O)2'
_chemical_formula_sum              'H4 I4 K2 O14 Zn1'
_publ_section_title
;
Dipotassium zinc tetraiodate(V) dihydrate
;
loop_
_citation_id
_citation_journal_abbrev
_citation_year
_citation_journal_volume
_citation_journal_issue
_citation_page_first
_citation_page_last
_citation_journal_id_ASTM
primary 'Acta Crystallographica, Section E. Structure Reports Online'
 2010 66 3 i22 i23 ACSEBH
_publ_author_name
;
Fabry, J.;Krupkova, R.;Cisarova, I.
;
_cell_length_a                     13.8044(3)
_cell_length_b                     7.7285(2)
_cell_length_c                     8.2860(2)
_cell_angle_alpha                  90
_cell_angle_beta                   126.5726(13)
_cell_angle_gamma                  90
_cell_volume                       709.95
_cell_formula_units_Z              2
_symmetry_space_group_name_H-M     'C 1 2 1'
_symmetry_Int_Tables_number        5
_refine_ls_R_factor_all            .0187
loop_
_symmetry_equiv_pos_site_id
_symmetry_equiv_pos_as_xyz
  1	'-x, y, -z'
  2	'x, y, z'
  3	'-x+.5, y+.5, -z'
  4	'x+.5, y+.5, z'
loop_
_atom_type_symbol
_atom_type_oxidation_number
H1+	1
I5+	5
K1+	1
O2-	-2
Zn2+	2
loop_
_atom_site_label
_atom_site_type_symbol
_atom_site_symmetry_multiplicity
_atom_site_Wyckoff_symbol
_atom_site_fract_x
_atom_site_fract_y
_atom_site_fract_z
_atom_site_occupancy
_atom_site_attached_hydrogens
_atom_site_U_iso_or_equiv
K1 K1+ 2 a 0.5 0.0000(3) 0 1 0 0.0217(9) 
K2 K1+ 2 a 0.5 0.5290(3) 0 1 0 0.0239(10) 
I1 I5+ 4 c 0.73832(3) 0.270215 0.98624(4) 1 0 0.01481(16) 
I2 I5+ 4 c 0.27889(3) 0.28124(7) 0.51786(4) 1 0 0.01419(16) 
Zn1 Zn2+ 2 b 0.5 0.45608(17) 0.5 1 0 0.0173(4) 
O1 O2- 4 c 0.8188(3) 0.2594(6) 0.8770(5) 1 0 0.0199(17) 
O2 O2- 4 c 0.3446(3) 0.2678(6) 0.7822(5) 1 0 0.0230(16) 
O3 O2- 4 c 0.6415(4) 0.0814(5) 0.8708(5) 1 0 0.0220(19) 
O4 O2- 4 c 0.1355(4) 0.3798(5) 0.4160(6) 1 0 0.023(2) 
O5 O2- 4 c 0.3581(3) 0.4756(5) 0.5308(5) 1 0 0.0201(18) 
O6 O2- 4 c 0.6246(4) 0.4346(5) 0.8313(5) 1 0 0.0207(18) 
O7 O2- 2 b 0.5 0.7158(7) 0.5 1 0 0.039(4) 
O8 O2- 2 b 0.5 0.1904(7) 0.5 1 0 0.033(3) 
H1 H1+ 4 c 0.471(6) 0.1269(7) 0.3979(19) 1 0 0.05 
H2 H1+ 4 c 0.478(7) 0.7793(7) 0.556(10) 1 0 0.0591 

loop_
_atom_site_aniso_label
_atom_site_aniso_type_symbol
_atom_site_aniso_U_11
_atom_site_aniso_U_22
_atom_site_aniso_U_33
_atom_site_aniso_U_12
_atom_site_aniso_U_13
_atom_site_aniso_U_23
K1 K1+ 0.0231(11) 0.0199(9) 0.0240(8) 0 0.0151(8) 0
K2 K1+ 0.0164(10) 0.0199(9) 0.0345(10) 0 0.0148(9) 0
I1 I5+ 0.01408(17) 0.0169(2) 0.01324(16) 0.0000(2) 0.00804(13) 0.00000(15)
I2 I5+ 0.01437(18) 0.01408(19) 0.01467(16) 0.00005(19) 0.00895(13) 
0.00057(14)
Zn1 Zn2+ 0.0182(5) 0.0151(4) 0.0223(4) 0 0.0142(4) 0
O1 O2- 0.0197(17) 0.0216(19) 0.0229(17) 0.0030(18) 0.0152(15) 0.0003(16)
O2 O2- 0.0221(18) 0.0275(19) 0.0177(16) -0.005(2) 0.0111(14) -0.0010(18)
O3 O2- 0.022(2) 0.0181(18) 0.0195(18) 0.0001(17) 0.0090(18) 0.0001(15)
O4 O2- 0.017(2) 0.024(2) 0.031(2) 0.0035(15) 0.0160(18) 0.0061(15)
O5 O2- 0.0208(19) 0.0138(18) 0.0319(19) -0.0002(15) 0.0191(17) -0.0002(15)
O6 O2- 0.017(2) 0.0214(19) 0.0191(17) 0.0056(17) 0.0080(16) 0.0004(15)
O7 O2- 0.052(4) 0.017(3) 0.082(5) 0 0.058(4) 0
O8 O2- 0.041(4) 0.016(3) 0.024(3) 0 0.009(3) 0
#End of data_260726-ICSD


