data_20354-ICSD
#?2014 by Fachinformationszentrum Karlsruhe, and the U.S. Secretary of 
#Commerce on behalf of the United States.  All rights reserved.
_database_code_ICSD                20354
_audit_creation_date               1981/12/31
_chemical_name_systematic          'Sodium Lanthanum Sulfate'
_chemical_formula_structural       'Na La (S O4)2'
_chemical_formula_sum              'La1 Na1 O8 S2'
_publ_section_title
;
The crystal structure of Na La (S O4)2
;
loop_
_citation_id
_citation_journal_abbrev
_citation_year
_citation_journal_volume
_citation_page_first
_citation_page_last
_citation_journal_id_ASTM
primary Kristallografiya 1981 26 834 836 KRISAJ
2 'Soviet Physics, Crystallography (= Kristallografiya)'
 1981 26 471 472 SPHCA6
_publ_author_name
;
Chizhov, S.M.;Pokrovskii, A.N.;Kovba, L.M.
;
_cell_length_a                     7.081
_cell_length_b                     6.765(7)
_cell_length_c                     6.465(5)
_cell_angle_alpha                  102.25(3)
_cell_angle_beta                   91.20(3)
_cell_angle_gamma                  76.71(3)
_cell_volume                       294.41
_cell_formula_units_Z              2
_symmetry_space_group_name_H-M     'P -1'
_symmetry_Int_Tables_number        2
_refine_ls_R_factor_all            .029
loop_
_symmetry_equiv_pos_site_id
_symmetry_equiv_pos_as_xyz
  1	'-x, -y, -z'
  2	'x, y, z'
loop_
_atom_type_symbol
_atom_type_oxidation_number
La3+	3
Na1+	1
O2-	-2
S6+	6
loop_
_atom_site_label
_atom_site_type_symbol
_atom_site_symmetry_multiplicity
_atom_site_Wyckoff_symbol
_atom_site_fract_x
_atom_site_fract_y
_atom_site_fract_z
_atom_site_occupancy
_atom_site_attached_hydrogens
La1 La3+ 2 i 0.1767(1) 0.2721(1) 0.1202(1) 1. 0 
S1 S6+ 2 i 0.1619(1) 0.2983(1) 0.6211(1) 1. 0 
S2 S6+ 2 i 0.6764(1) 0.2011(1) 0.8982(1) 1. 0 
Na1 Na1+ 2 i 0.6535(1) 0.2138(1) 0.4199(1) 1. 0 
O1 O2- 2 i 0.0120(5) 0.2370(6) 0.4618(6) 1. 0 
O2 O2- 2 i 0.0905(5) 0.4584(6) 0.8008(6) 1. 0 
O3 O2- 2 i 0.3143(6) 0.3767(6) 0.5111(6) 1. 0 
O4 O2- 2 i 0.2295(5) 0.1311(5) 0.7198(6) 1. 0 
O5 O2- 2 i 0.8541(5) 0.1382(5) 0.0010(6) 1. 0 
O6 O2- 2 i 0.7034(6) 0.3731(6) 0.8007(6) 1. 0 
O7 O2- 2 i 0.6293(6) 0.0241(5) 0.7331(6) 1. 0 
O8 O2- 2 i 0.5305(6) 0.2528(6) 0.0605(6) 1. 0 

#End of data_20354-ICSD


