data_67983-ICSD
#?2014 by Fachinformationszentrum Karlsruhe, and the U.S. Secretary of 
#Commerce on behalf of the United States.  All rights reserved.
_database_code_ICSD                67983
_audit_creation_date               1995/01/10
_audit_update_record               2010/08/01
_chemical_name_systematic
;
Cesium Tecto-tetrathioheptaargentate
;
_chemical_formula_structural       'Cs (Ag7 S4)'
_chemical_formula_sum              'Ag7 Cs1 S4'
_publ_section_title
;
Synthesis of new channeled structures in supercritical amines: 
Preparation and structure of Rb Ag5 S3 and Cs Ag7 S4
;
loop_
_citation_id
_citation_journal_abbrev
_citation_year
_citation_journal_volume
_citation_page_first
_citation_page_last
_citation_journal_id_ASTM
primary 'Inorganic Chemistry' 1994 33 1556 1558 INOCAJ
_publ_author_name
;
Wood, P.T.;Pennington, W.T.;Kolis, J.W.
;
_cell_length_a                     11.093(3)
_cell_length_b                     11.093(3)
_cell_length_c                     8.538(3)
_cell_angle_alpha                  90.
_cell_angle_beta                   90.
_cell_angle_gamma                  90.
_cell_volume                       1050.64
_cell_formula_units_Z              4
_symmetry_space_group_name_H-M     'P 4/n Z'
_symmetry_Int_Tables_number        85
_refine_ls_R_factor_all            .0504
loop_
_symmetry_equiv_pos_site_id
_symmetry_equiv_pos_as_xyz
  1	'-y, x+.5, -z'
  2	'y+.5, -x, -z'
  3	'x+.5, y+.5, -z'
  4	'-x, -y, -z'
  5	'y, -x+.5, z'
  6	'-y+.5, x, z'
  7	'-x+.5, -y+.5, z'
  8	'x, y, z'
loop_
_atom_type_symbol
_atom_type_oxidation_number
Ag1+	1
Cs1+	1
S2-	-2
loop_
_atom_site_label
_atom_site_type_symbol
_atom_site_symmetry_multiplicity
_atom_site_Wyckoff_symbol
_atom_site_fract_x
_atom_site_fract_y
_atom_site_fract_z
_atom_site_occupancy
_atom_site_attached_hydrogens
_atom_site_U_iso_or_equiv
Cs1 Cs1+ 2 c 0.25 0.25 0.6260(2) 1. 0 0.018(1) 
Cs2 Cs1+ 2 c 0.25 0.25 0.1220(2) 1. 0 0.019(1) 
Ag1 Ag1+ 8 g 0.2642(1) -.1126(1) 0.1242(1) 1. 0 0.025(1) 
Ag2 Ag1+ 8 g 0.2871(1) -.1072(1) 0.6187(1) 1. 0 0.027(1) 
Ag3 Ag1+ 8 g 0.0233(1) -.0431(1) 0.6591(2) 1. 0 0.036(1) 
Ag4 Ag1+ 4 d 0 0 0 1. 0 0.046(1) 
S1 S2- 8 g 0.1918(3) -.0112(3) 0.8676(4) 1. 0 0.016(1) 
S2 S2- 8 g 0.1932(3) -.0042(3) 0.3778(4) 1. 0 0.015(1) 

#End of data_67983-ICSD


