data_79705-ICSD
#?2014 by Fachinformationszentrum Karlsruhe, and the U.S. Secretary of 
#Commerce on behalf of the United States.  All rights reserved.
_database_code_ICSD                79705
_audit_creation_date               1996/10/14
_chemical_name_systematic          'Dipotassium Phyllo-zincodisilicate'
_chemical_formula_structural       'K2 (Zn Si2 O6)'
_chemical_formula_sum              'K2 O6 Si2 Zn1'
_publ_section_title
;
Synthetic dipotassium zinc disilicate
;
loop_
_citation_id
_citation_journal_abbrev
_citation_year
_citation_journal_volume
_citation_page_first
_citation_page_last
_citation_journal_id_ASTM
primary 'Acta Crystallographica, Section C: Crystal Structure Communications'
 1995 51 1728 1730 ACSCEE
_publ_author_name                  'Hogrefe, A.R.;Czank, M.'
_cell_length_a                     6.2983(3)
_cell_length_b                     9.5537(9)
_cell_length_c                     10.4499(6)
_cell_angle_alpha                  90.
_cell_angle_beta                   90.
_cell_angle_gamma                  90.
_cell_volume                       628.79
_cell_formula_units_Z              4
_symmetry_space_group_name_H-M     'C 2 2 21'
_symmetry_Int_Tables_number        20
_refine_ls_R_factor_all            .054
loop_
_symmetry_equiv_pos_site_id
_symmetry_equiv_pos_as_xyz
  1	'-x, y, -z+.5'
  2	'-x, -y, z+.5'
  3	'x, -y, -z'
  4	'x, y, z'
  5	'-x+.5, y+.5, -z+.5'
  6	'-x+.5, -y+.5, z+.5'
  7	'x+.5, -y+.5, -z'
  8	'x+.5, y+.5, z'
loop_
_atom_type_symbol
_atom_type_oxidation_number
K1+	1
O2-	-2
Si4+	4
Zn2+	2
loop_
_atom_site_label
_atom_site_type_symbol
_atom_site_symmetry_multiplicity
_atom_site_Wyckoff_symbol
_atom_site_fract_x
_atom_site_fract_y
_atom_site_fract_z
_atom_site_occupancy
_atom_site_attached_hydrogens
Zn1 Zn2+ 4 b 0 0.1929(1) 0.75 1. 0 
Si1 Si4+ 8 c 0.1519(1) 0.4827(1) 0.6367(1) 1. 0 
K1 K1+ 8 c 0.6092(1) 0.3273(1) 0.5755(1) 1. 0 
O1 O2- 8 c 0.3019(3) 0.1795(3) 0.1638(2) 1. 0 
O2 O2- 4 a 0.4849(6) 0 0 1. 0 
O3 O2- 8 c 0.8603(4) 0.0780(2) 0.6240(2) 1. 0 
O4 O2- 4 b 0 0.4519(3) 0.25 1. 0 

loop_
_atom_site_aniso_label
_atom_site_aniso_type_symbol
_atom_site_aniso_U_11
_atom_site_aniso_U_22
_atom_site_aniso_U_33
_atom_site_aniso_U_12
_atom_site_aniso_U_13
_atom_site_aniso_U_23
Zn1 Zn2+ 0.0113(2) 0.0083(2) 0.0076(2) 0 -.0016(2) 0
Si1 Si4+ 0.0096(4) 0.0083(4) 0.0052(3) -.0008(3) 0.0005(3) 0.0001(3)
K1 K1+ 0.0191(4) 0.0230(4) 0.0185(4) 0.0070(3) -.0045(3) -.0016(3)
O1 O2- 0.0141(10) 0.0109(10) 0.0146(11) -.0001(9) -.0036(8) -.0019(9)
O2 O2- 0.0077(14) 0.0198(15) 0.0089(12) 0 0 -.0015(11)
O3 O2- 0.0141(11) 0.0129(10) 0.0096(10) -.0058(9) 0.0007(9) -.0020(8)
O4 O2- 0.0204(15) 0.0126(13) 0.0118(13) 0 -.0085(17) 0
#End of data_79705-ICSD


