data_280728-ICSD
#?2014 by Fachinformationszentrum Karlsruhe, and the U.S. Secretary of 
#Commerce on behalf of the United States.  All rights reserved.
_database_code_ICSD                280728
_audit_creation_date               2002/10/01
_chemical_name_systematic          'Potassium Dithiocyanoargentate'
_chemical_formula_structural       'K (Ag (S C N)2)'
_chemical_formula_sum              'C2 Ag1 K1 N2 S2'
_publ_section_title
;
Potassium thiocyanato argentates: K3 (Ag (S C N)4), K4 (Ag2 (S C N)6) 
and K (Ag (S C N)2)
;
loop_
_citation_id
_citation_journal_abbrev
_citation_year
_citation_journal_volume
_citation_page_first
_citation_page_last
_citation_journal_id_ASTM
primary 'Acta Crystallographica, Section C: Crystal Structure Communications'
 2001 57 781 783 ACSCEE
_publ_author_name                  'Krautscheid, H.;Gerber, S.'
_cell_length_a                     17.9382(14)
_cell_length_b                     10.7801(8)
_cell_length_c                     6.6879(6)
_cell_angle_alpha                  90.
_cell_angle_beta                   90.
_cell_angle_gamma                  90.
_cell_volume                       1293.28
_cell_formula_units_Z              8
_symmetry_space_group_name_H-M     'P b c a'
_symmetry_Int_Tables_number        61
_refine_ls_R_factor_all            .02
loop_
_symmetry_equiv_pos_site_id
_symmetry_equiv_pos_as_xyz
  1	'x+.5, y, -z+.5'
  2	'x, -y+.5, z+.5'
  3	'-x+.5, y+.5, z'
  4	'-x, -y, -z'
  5	'-x+.5, -y, z+.5'
  6	'-x, y+.5, -z+.5'
  7	'x+.5, -y+.5, -z'
  8	'x, y, z'
loop_
_atom_type_symbol
_atom_type_oxidation_number
Ag1+	1
C4+	4
K1+	1
N3-	-3
S2-	-2
loop_
_atom_site_label
_atom_site_type_symbol
_atom_site_symmetry_multiplicity
_atom_site_Wyckoff_symbol
_atom_site_fract_x
_atom_site_fract_y
_atom_site_fract_z
_atom_site_occupancy
_atom_site_attached_hydrogens
K1 K1+ 8 c 0.73048(3) 0.87369(4) 0.14962(7) 1. 0 
Ag1 Ag1+ 8 c 0.502180(9) 0.373390(18) 0.17302(3) 1. 0 
S1 S2- 8 c 0.53232(3) 0.34921(5) 0.54781(8) 1. 0 
C1 C4+ 8 c 0.62483(12) 0.34788(19) 0.5243(3) 1. 0 
N1 N3- 8 c 0.68910(12) 0.3514(2) 0.5103(3) 1. 0 
S2 S2- 8 c 0.60890(3) 0.50945(4) -.01708(7) 1. 0 
C2 C4+ 8 c 0.63177(11) 0.60326(19) 0.1715(3) 1. 0 
N2 N3- 8 c 0.64928(12) 0.6663(2) 0.3036(3) 1. 0 

loop_
_atom_site_aniso_label
_atom_site_aniso_type_symbol
_atom_site_aniso_U_11
_atom_site_aniso_U_22
_atom_site_aniso_U_33
_atom_site_aniso_U_12
_atom_site_aniso_U_13
_atom_site_aniso_U_23
K1 K1+ 0.0267(2) 0.0306(2) 0.0208(2) -.00223(17) -.00096(18) 0.00045(16)
Ag1 Ag1+ 0.02897(12) 0.03269(12) 0.03175(13) 0.00046(6) -.00933(7) 
0.00370(7)
S1 S2- 0.0232(2) 0.0241(2) 0.0223(2) 0.00463(19) -.0007(2) -.00023(19)
C1 C4+ 0.0283(10) 0.0233(9) 0.0174(9) 0.0010(8) -.0013(8) 0.0015(8)
N1 N3- 0.0287(10) 0.0452(11) 0.0303(10) 0.0007(9) 0.0017(9) 0.0045(9)
S2 S2- 0.0203(2) 0.0230(2) 0.0201(2) -.00031(17) -.00082(18) -.00133(18)
C2 C4+ 0.0159(8) 0.0256(9) 0.0209(10) -.0023(7) -.0011(7) 0.0045(8)
N2 N3- 0.0341(10) 0.0394(10) 0.0234(9) -.0107(9) -.0047(8) -.0011(8)
#End of data_280728-ICSD


