data_158751-ICSD
#?2014 by Fachinformationszentrum Karlsruhe, and the U.S. Secretary of 
#Commerce on behalf of the United States.  All rights reserved.
_database_code_ICSD                158751
_audit_creation_date               2008/08/01
_chemical_name_systematic
;
Dimagnesium Tetraalumopentasilicate
;
_chemical_formula_structural       'Mg2 (Al4 Si5 O18)'
_chemical_formula_sum              'Al4 Mg2 O18 Si5'
_chemical_name_mineral             Cordierite
_publ_section_title
;
Single crystal structure investigations under high-pressure of the 
mineral cordierite with an improved high-pressure cell
;
loop_
_citation_id
_citation_journal_abbrev
_citation_year
_citation_journal_volume
_citation_page_first
_citation_page_last
_citation_journal_id_ASTM
primary 'Physics and Chemistry of Minerals' 1986 13 165 173 PCMIDU
_publ_author_name                  'Koepke, J.;Schulz, H.'
_cell_length_a                     16.990(4)
_cell_length_b                     9.680(2)
_cell_length_c                     9.293(2)
_cell_angle_alpha                  90.
_cell_angle_beta                   90.
_cell_angle_gamma                  90.
_cell_volume                       1528.36
_cell_formula_units_Z              4
_symmetry_space_group_name_H-M     'C c c m'
_symmetry_Int_Tables_number        66
_refine_ls_R_factor_all            .097
loop_
_symmetry_equiv_pos_site_id
_symmetry_equiv_pos_as_xyz
  1	'-x, y, z+.5'
  2	'x, -y, z+.5'
  3	'x, y, -z'
  4	'-x, -y, -z'
  5	'x, -y, -z+.5'
  6	'-x, y, -z+.5'
  7	'-x, -y, z'
  8	'x, y, z'
  9	'-x+.5, y+.5, z+.5'
 10	'x+.5, -y+.5, z+.5'
 11	'x+.5, y+.5, -z'
 12	'-x+.5, -y+.5, -z'
 13	'x+.5, -y+.5, -z+.5'
 14	'-x+.5, y+.5, -z+.5'
 15	'-x+.5, -y+.5, z'
 16	'x+.5, y+.5, z'
loop_
_atom_type_symbol
_atom_type_oxidation_number
Al3+	3
Mg2+	2
O2-	-2
Si4+	4
loop_
_atom_site_label
_atom_site_type_symbol
_atom_site_symmetry_multiplicity
_atom_site_Wyckoff_symbol
_atom_site_fract_x
_atom_site_fract_y
_atom_site_fract_z
_atom_site_occupancy
_atom_site_attached_hydrogens
_atom_site_U_iso_or_equiv
Al1 Al3+ 8 k 0.250 0.250 0.2503(5) 1. 0 0.0075(10) 
Si1 Si4+ 4 b 0 0.5 0.250 1. 0 0.0081(13) 
Si2 Si4+ 8 l 0.1932(2) 0.0769(4) 0 1. 0 0.0060(10) 
Al2 Al3+ 8 l 0.0514(2) 0.3076(5) 0 1. 0 0.0063(11) 
Si3 Si4+ 8 l -0.1350(2) 0.2368(4) 0 1. 0 0.0062(10) 
O1 O2- 16 m 0.2476(3) 0.1022(6) 0.1420(6) 1. 0 0.0092(16) 
O2 O2- 16 m 0.0625(3) 0.4157(6) 0.1503(7) 1. 0 0.0075(17) 
O3 O2- 16 m -0.1734(3) 0.3138(7) 0.1415(7) 1. 0 0.0122(18) 
O4 O2- 8 l 0.1239(5) 0.1825(10) 0 1. 0 0.0099(24) 
O5 O2- 8 l -0.0424(5) 0.2462(11) 0 1. 0 0.0129(25) 
O6 O2- 8 l -0.1656(5) 0.0778(10) 0 1. 0 0.0132(26) 
Mg1 Mg2+ 8 g 0.1624(2) 0.5 0.250 1. 0 0.0084(11) 

#End of data_158751-ICSD


