data_94358-ICSD
#?2014 by Fachinformationszentrum Karlsruhe, and the U.S. Secretary of 
#Commerce on behalf of the United States.  All rights reserved.
_database_code_ICSD                94358
_audit_creation_date               2003/10/01
_chemical_name_systematic
;
Potassium Bis(phosphato(V))tetraaquafluorodialuminate
;
_chemical_formula_structural       'K (Al2 F (H2 O)4 (P O4)2)'
_chemical_formula_sum              'H8 Al2 F1 K1 O12 P2'
_chemical_name_mineral             Minyulite
_publ_section_title
;
Synthesis and crystal structure of the synthetic analogue of mineral 
minyulite K (Al2 F (H2 O)4 (P O4)2). Structural correlations with Al 
P O4 - CJ2
;
loop_
_citation_id
_citation_journal_abbrev
_citation_year
_citation_journal_volume
_citation_page_first
_citation_page_last
_citation_journal_id_ASTM
primary 'Solid State Sciences' 2001 3 613 621 SSSCFJ
_publ_author_name                  'Dumas, E.;Taulelle, F.;Ferey, G.'
_cell_length_a                     9.3477(2)
_cell_length_b                     9.75170(10)
_cell_length_c                     5.52800(10)
_cell_angle_alpha                  90
_cell_angle_beta                   90
_cell_angle_gamma                  90
_cell_volume                       503.91
_cell_formula_units_Z              2
_symmetry_space_group_name_H-M     'P b a 2'
_symmetry_Int_Tables_number        32
_refine_ls_R_factor_all            .0244
loop_
_symmetry_equiv_pos_site_id
_symmetry_equiv_pos_as_xyz
  1	'x+.5, -y+.5, z'
  2	'-x+.5, y+.5, z'
  3	'-x, -y, z'
  4	'x, y, z'
loop_
_atom_type_symbol
_atom_type_oxidation_number
Al3+	3
F1-	-1
H1+	1
K1+	1
O2-	-2
P5+	5
loop_
_atom_site_label
_atom_site_type_symbol
_atom_site_symmetry_multiplicity
_atom_site_Wyckoff_symbol
_atom_site_fract_x
_atom_site_fract_y
_atom_site_fract_z
_atom_site_occupancy
_atom_site_attached_hydrogens
_atom_site_U_iso_or_equiv
K1 K1+ 2 a 0 0 0.9230(2) 1. 0 0.022(1) 
Al1 Al3+ 4 c 0.8593(1) 0.3895(1) 0.9687(1) 1. 0 0.008(1) 
P1 P5+ 4 c 0.8532(1) 0.6757(1) 0.7189(1) 1. 0 0.007(1) 
F1 F1- 2 b 0 0.5 0.1016(3) 1. 0 0.011(1) 
O1 O2- 4 c 0.7919(2) 0.7833(1) 0.8912(3) 1. 0 0.012(1) 
O2 O2- 4 c 0.7925(2) 0.5341(1) 0.7849(3) 1. 0 0.012(1) 
O3 O2- 4 c 0.0166(1) 0.6788(1) 0.7441(3) 1. 0 0.011(1) 
O4 O2- 4 c 0.9279(2) 0.2486(1) 0.2030(3) 1.000 0 0.014(1) 
O5 O2- 4 c 0.7384(2) 0.4565(2) 0.2418(3) 1.000 0 0.015(1) 
O6 O2- 4 c 0.8154(2) 0.7074(1) 0.4551(3) 1. 0 0.014(1) 
H1 H1+ 4 c 0.9974(43) 0.2755(36) 0.2879(88) 1. 0 0.047(11) 
H2 H1+ 4 c 0.8569(37) 0.2181(32) 0.3300(69) 1. 0 0.035(9) 
H3 H1+ 4 c 0.7597(37) 0.5185(34) 0.2998(70) 1. 0 0.029(9) 
H4 H1+ 4 c 0.7270(51) 0.3953(41) 0.3263(90) 1. 0 0.063(15) 

#End of data_94358-ICSD


