data_410959-ICSD
#?2014 by Fachinformationszentrum Karlsruhe, and the U.S. Secretary of 
#Commerce on behalf of the United States.  All rights reserved.
_database_code_ICSD                410959
_audit_creation_date               2000/07/15
_audit_update_record               2007/04/01
_chemical_name_systematic
;
Disilver Tetradecabromohexatungstate
;
_chemical_formula_structural       'Ag2 (W6 Br14)'
_chemical_formula_sum              'Ag2 Br14 W6'
_publ_section_title
;
The cluster compounds Ag (W6 Br14) and Ag2 (W6 Br14)
;
loop_
_citation_id
_citation_journal_abbrev
_citation_year
_citation_journal_volume
_citation_page_first
_citation_page_last
_citation_journal_id_ASTM
primary 'Zeitschrift fuer Anorganische und Allgemeine Chemie (1950) (DE)'
 1999 625 2115 2115 ZAACAB
_publ_author_name
;
Zheng Yueqing;Borrmann, H.;Grin', Yu.;Peters, K.;von Schnering, H.G.
;
_cell_length_a                     9.3844(12)
_cell_length_b                     15.383(3)
_cell_length_c                     9.5215(13)
_cell_angle_alpha                  90.
_cell_angle_beta                   117.336(13)
_cell_angle_gamma                  90.
_cell_volume                       1221.03
_cell_formula_units_Z              2
_symmetry_space_group_name_H-M     'P 1 21/c 1'
_symmetry_Int_Tables_number        14
_refine_ls_R_factor_all            .0452
loop_
_symmetry_equiv_pos_site_id
_symmetry_equiv_pos_as_xyz
  1	'x, -y+.5, z+.5'
  2	'-x, -y, -z'
  3	'-x, y+.5, -z+.5'
  4	'x, y, z'
loop_
_atom_type_symbol
_atom_type_oxidation_number
Ag1+	1
Br1-	-1
W2+	2
loop_
_atom_site_label
_atom_site_type_symbol
_atom_site_symmetry_multiplicity
_atom_site_Wyckoff_symbol
_atom_site_fract_x
_atom_site_fract_y
_atom_site_fract_z
_atom_site_occupancy
_atom_site_attached_hydrogens
W1 W2+ 4 e 0.36859(7) 0.40187(3) 0.43843(7) 1. 0 
W2 W2+ 4 e 0.65532(7) 0.43968(3) 0.46969(7) 1. 0 
W3 W2+ 4 e 0.59193(7) 0.46274(3) 0.70920(7) 1. 0 
Br1 Br1- 4 e 0.43246(19) 0.37988(9) 0.19995(17) 1. 0 
Br2 Br1- 4 e 0.12182(18) 0.49997(9) 0.25991(16) 1. 0 
Br3 Br1- 4 e 0.30619(18) 0.42579(8) 0.67729(17) 1. 0 
Br4 Br1- 4 e 0.61664(18) 0.30509(9) 0.61914(16) 1. 0 
Br5 Br1- 4 e 0.1938(2) 0.26004(9) 0.35463(19) 1. 0 
Br6 Br1- 4 e 0.8757(2) 0.35695(9) 0.42910(19) 1. 0 
Br7 Br1- 4 e 0.7172(2) 0.41415(10) 1.00471(17) 1. 0 
Ag1 Ag1+ 4 e -.0724(2) 0.29049(11) 0.0938(2) 1. 0 

loop_
_atom_site_aniso_label
_atom_site_aniso_type_symbol
_atom_site_aniso_U_11
_atom_site_aniso_U_22
_atom_site_aniso_U_33
_atom_site_aniso_U_12
_atom_site_aniso_U_13
_atom_site_aniso_U_23
W1 W2+ 0.0158(3) 0.0128(3) 0.0162(3) -.00065(19) 0.0073(3) -.0009(2)
W2 W2+ 0.0153(3) 0.0142(3) 0.0156(4) -.0001(2) 0.0080(3) 0.0009(2)
W3 W2+ 0.0166(3) 0.0148(3) 0.0129(3) 0.00079(19) 0.0066(3) 0.0000(2)
Br1 Br1- 0.0262(9) 0.0213(8) 0.0196(8) -.0057(5) 0.0107(8) 0.0003(6)
Br2 Br1- 0.0146(9) 0.0249(8) 0.0220(9) -.0012(5) 0.0044(8) -.0009(6)
Br3 Br1- 0.0225(9) 0.0232(7) 0.0230(8) 0.0014(5) 0.0139(8) -.0023(6)
Br4 Br1- 0.0247(9) 0.0146(7) 0.0251(9) 0.0032(5) 0.0117(8) 0.0020(5)
Br5 Br1- 0.0265(11) 0.0176(8) 0.0337(10) -.0029(5) 0.0101(9) -.0043(6)
Br6 Br1- 0.0273(10) 0.0325(9) 0.0307(9) 0.0008(6) 0.0184(9) 0.0073(6)
Br7 Br1- 0.0357(11) 0.0381(10) 0.0174(8) 0.0082(6) 0.0096(9) 0.0045(7)
Ag1 Ag1+ 0.0447(13) 0.0363(11) 0.066(1) 0.0035(7) 0.0025(10) 0.0015(8)
#End of data_410959-ICSD


