data_161320-ICSD
#?2014 by Fachinformationszentrum Karlsruhe, and the U.S. Secretary of 
#Commerce on behalf of the United States.  All rights reserved.
_database_code_ICSD                161320
_audit_creation_date               2009/02/01
_audit_update_record               2012/02/01
_chemical_name_systematic          'Calcium Tecto-decaoxohexaborate'
_chemical_formula_structural       'Ca (B6 O10)'
_chemical_formula_sum              'B6 Ca1 O10'
_publ_section_title
;
Synthesis and crystal structure of a new calcium borate, Ca B6 O10
;
loop_
_citation_id
_citation_journal_abbrev
_citation_year
_citation_journal_volume
_citation_page_first
_citation_page_last
_citation_journal_id_ASTM
primary 'Journal of Alloys and Compounds' 2008 464 332 336 JALCEU
_publ_author_name
;
Chen Xue An;Li Ming;Chang Xi Nan;Zang Hegui;Xiao Wei Qiang
;
_cell_length_a                     9.799(1)
_cell_length_b                     8.705(1)
_cell_length_c                     9.067(1)
_cell_angle_alpha                  90.
_cell_angle_beta                   116.65(1)
_cell_angle_gamma                  90.
_cell_volume                       691.25
_cell_formula_units_Z              4
_symmetry_space_group_name_H-M     'P 1 21/c 1'
_symmetry_Int_Tables_number        14
_refine_ls_R_factor_all            .04
loop_
_symmetry_equiv_pos_site_id
_symmetry_equiv_pos_as_xyz
  1	'x, -y+.5, z+.5'
  2	'-x, -y, -z'
  3	'-x, y+.5, -z+.5'
  4	'x, y, z'
loop_
_atom_type_symbol
_atom_type_oxidation_number
B3+	3
Ca2+	2
O2-	-2
loop_
_atom_site_label
_atom_site_type_symbol
_atom_site_symmetry_multiplicity
_atom_site_Wyckoff_symbol
_atom_site_fract_x
_atom_site_fract_y
_atom_site_fract_z
_atom_site_occupancy
_atom_site_attached_hydrogens
_atom_site_U_iso_or_equiv
Ca1 Ca2+ 4 e 0.77913(6) 0.61656(6) 0.53954(6) 1. 0 0.01103(14) 
B1 B3+ 4 e 0.7840(3) 0.0299(3) 0.4369(4) 1. 0 0.0088(5) 
B2 B3+ 4 e 0.9182(3) 0.2350(3) 0.6212(4) 1. 0 0.0080(5) 
B3 B3+ 4 e 0.9183(3) -0.0257(3) 0.7352(3) 1. 0 0.0076(5) 
B4 B3+ 4 e 0.6756(3) 0.0533(3) 0.7460(4) 1. 0 0.0107(5) 
B5 B3+ 4 e 0.4996(3) 0.2267(3) 0.5588(4) 1. 0 0.0100(5) 
B6 B3+ 4 e 0.4442(3) 0.1191(3) 0.7795(3) 1. 0 0.0070(5) 
O1 O2- 4 e 0.6813(2) -0.0063(2) 0.2794(2) 1. 0 0.0117(4) 
O2 O2- 4 e 0.8308(2) 0.1829(2) 0.4645(2) 1. 0 0.0104(4) 
O3 O2- 4 e 0.84655(19) -0.0771(2) 0.5626(2) 1. 0 0.0093(4) 
O4 O2- 4 e 0.94804(19) 0.3880(2) 0.6490(2) 1. 0 0.0090(3) 
O5 O2- 4 e 0.97705(19) 0.1329(2) 0.7498(2) 1. 0 0.0092(4) 
O6 O2- 4 e 0.80466(19) -0.0333(2) 0.8013(2) 1. 0 0.0102(4) 
O7 O2- 4 e 0.6273(2) 0.1381(2) 0.6024(2) 1. 0 0.0163(4) 
O8 O2- 4 e 0.59568(19) 0.0472(2) 0.8359(2) 1. 0 0.0102(4) 
O9 O2- 4 e 0.43173(19) 0.3098(2) 0.4188(2) 1. 0 0.0109(4) 
O10 O2- 4 e 0.42176(19) 0.2292(2) 0.6513(2) 1. 0 0.0089(3) 

#End of data_161320-ICSD


