data_202212-ICSD
#?2014 by Fachinformationszentrum Karlsruhe, and the U.S. Secretary of 
#Commerce on behalf of the United States.  All rights reserved.
_database_code_ICSD                202212
_audit_creation_date               1988/12/19
_chemical_name_systematic          'Dipotassium Tantalum Fluoride'
_chemical_formula_structural       'K2 Ta F7'
_chemical_formula_sum              'F7 K2 Ta1'
_publ_section_title
;
Structure and luminescence of K2 Ta F7 and K2 Nb F7
;
loop_
_citation_id
_citation_journal_abbrev
_citation_year
_citation_journal_volume
_citation_page_first
_citation_page_last
_citation_journal_id_ASTM
primary 'Journal of Solid State Chemistry' 1987 67 21 25 JSSCBI
_publ_author_name
;
Torardi, C.C.;Brixner, L.H.;Blasse, G.
;
_cell_length_a                     5.8559(6)
_cell_length_b                     12.708(1)
_cell_length_c                     8.5125(9)
_cell_angle_alpha                  90.
_cell_angle_beta                   90.17
_cell_angle_gamma                  90.
_cell_volume                       633.47
_cell_formula_units_Z              4
_symmetry_space_group_name_H-M     'P 1 21/c 1'
_symmetry_Int_Tables_number        14
_refine_ls_R_factor_all            .02
loop_
_symmetry_equiv_pos_site_id
_symmetry_equiv_pos_as_xyz
  1	'x, -y+.5, z+.5'
  2	'-x, -y, -z'
  3	'-x, y+.5, -z+.5'
  4	'x, y, z'
loop_
_atom_type_symbol
_atom_type_oxidation_number
F1-	-1
K1+	1
Ta5+	5
loop_
_atom_site_label
_atom_site_type_symbol
_atom_site_symmetry_multiplicity
_atom_site_Wyckoff_symbol
_atom_site_fract_x
_atom_site_fract_y
_atom_site_fract_z
_atom_site_occupancy
_atom_site_attached_hydrogens
Ta1 Ta5+ 4 e 0.27303(3) 0.87107(1) 0.22258(2) 1. 0 
K1 K1+ 4 e 0.23778(17) 0.55972(7) 0.18279(2) 1. 0 
K2 K1+ 4 e 0.76421(16) 0.71566(8) 0.44409(12) 1. 0 
F1 F1- 4 e 0.0444(5) 0.7578(2) 0.1989(3) 1. 0 
F2 F1- 4 e 0.4566(5) 0.7430(2) 0.2118(4) 1. 0 
F3 F1- 4 e 0.0431(5) 0.8922(2) 0.3872(3) 1. 0 
F4 F1- 4 e 0.4606(5) 0.8895(2) 0.4108(3) 1. 0 
F5 F1- 4 e 0.2149(6) 0.0210(2) 0.2152(4) 1. 0 
F6 F1- 4 e 0.1886(7) 0.8774(3) 0.0048(4) 1. 0 
F7 F1- 4 e 0.5590(5) 0.9211(2) 0.1318(3) 1. 0 

loop_
_atom_site_aniso_label
_atom_site_aniso_type_symbol
_atom_site_aniso_B_11
_atom_site_aniso_B_22
_atom_site_aniso_B_33
_atom_site_aniso_B_12
_atom_site_aniso_B_13
_atom_site_aniso_B_23
Ta1 Ta5+ 0.94(1) 0.99(1) 0.85(1) 0 0.01 -.05
K1 K1+ 2.08(4) 1.35(3) 1.84(4) -.11(2) 0.10(3) 0.14(2)
K2 K1+ 1.46(3) 2.48(3) 1.55(3) 0.07(3) -.05(3) 0.50(3)
F1 F1- 1.57(10) 1.74(9) 2.00(11) -.31(8) -.01(8) -.12(8)
F2 F1- 1.59(10) 1.62(9) 3.02(13) 0.25(7) -.47(10) -.49(8)
F3 F1- 1.70(11) 2.3(1) 1.93(11) 0.24(8) 0.51(9) -.15(9)
F4 F1- 1.75(11) 3.15(11) 1.62(10) 0.21(9) -.33(9) -.48(9)
F5 F1- 4.1(2) 1.5(1) 4.2(2) 0.8(1) 2.0(1) 0.9(1)
F6 F1- 4.8(2) 4.9(2) 1.9(1) -2.9(1) -1.2(1) 1.1(1)
F7 F1- 1.80(11) 2.47(11) 2.13(11) -.47(8) 0.83(9) -.02(9)
#End of data_202212-ICSD


