data_202639-ICSD
#?2014 by Fachinformationszentrum Karlsruhe, and the U.S. Secretary of 
#Commerce on behalf of the United States.  All rights reserved.
_database_code_ICSD                202639
_audit_creation_date               1989/06/19
_audit_update_record               2009/02/01
_chemical_name_systematic          'Dilithium Manganate(IV)'
_chemical_formula_structural       'Li2 (Mn O3)'
_chemical_formula_sum              'Li2 Mn1 O3'
_publ_section_title
;
Crystallographic and magnetic structure of Li2 Mn O3
;
loop_
_citation_id
_citation_journal_abbrev
_citation_year
_citation_journal_volume
_citation_page_first
_citation_page_last
_citation_journal_id_ASTM
primary 'Journal of Solid State Chemistry' 1988 75 90 98 JSSCBI
_publ_author_name                  'Strobel, P.;Lambert Andron, B.'
_cell_length_a                     4.937(1)
_cell_length_b                     8.532(1)
_cell_length_c                     5.030(2)
_cell_angle_alpha                  90.
_cell_angle_beta                   109.46(3)
_cell_angle_gamma                  90.
_cell_volume                       199.77
_cell_formula_units_Z              4
_symmetry_space_group_name_H-M     'C 1 2/m 1'
_symmetry_Int_Tables_number        12
_refine_ls_R_factor_all            .02
loop_
_symmetry_equiv_pos_site_id
_symmetry_equiv_pos_as_xyz
  1	'-x, y, -z'
  2	'-x, -y, -z'
  3	'x, -y, z'
  4	'x, y, z'
  5	'-x+.5, y+.5, -z'
  6	'-x+.5, -y+.5, -z'
  7	'x+.5, -y+.5, z'
  8	'x+.5, y+.5, z'
loop_
_atom_type_symbol
_atom_type_oxidation_number
Li1+	1
Mn4+	4
O2-	-2
loop_
_atom_site_label
_atom_site_type_symbol
_atom_site_symmetry_multiplicity
_atom_site_Wyckoff_symbol
_atom_site_fract_x
_atom_site_fract_y
_atom_site_fract_z
_atom_site_occupancy
_atom_site_attached_hydrogens
_atom_site_B_iso_or_equiv
Mn1 Mn4+ 4 g 0 0.16708(2) 0 1. 0 0 
Li1 Li1+ 2 b 0 0.5 0 1. 0 0.28(3) 
Li2 Li1+ 2 c 0 0 0.5 1. 0 0 
Li3 Li1+ 4 h 0 0.6606(3) 0.5 1. 0 0 
O1 O2- 4 i 0.2189(2) 0 0.2273(2) 1. 0 0 
O2 O2- 8 j 0.2540(1) 0.32119(7) 0.2233(1) 1. 0 0 

#End of data_202639-ICSD


