data_425069-ICSD
#?2014 by Fachinformationszentrum Karlsruhe, and the U.S. Secretary of 
#Commerce on behalf of the United States.  All rights reserved.
_database_code_ICSD                425069
_audit_creation_date               2013/08/01
_chemical_name_systematic
;
Heptapotassium Decasulfido Pentaferrate
;
_chemical_formula_structural       'K7 (Fe5 S10)'
_chemical_formula_sum              'Fe5 K7 S10'
_publ_section_title
;
The novel alkali sulfidoferrates K9 [Fe(III) S4] (S2) S, (K/Rb)6 
[Fe(III)2 S6], Rb8[Fe(III)4 S(10)], and K(7)[Fe(II)/(III) S(2)]5
;
loop_
_citation_id
_citation_journal_abbrev
_citation_year
_citation_journal_volume
_citation_journal_issue
_citation_page_first
_citation_page_last
_citation_journal_id_ASTM
primary 'Zeitschrift fuer Anorganische und Allgemeine Chemie (1950) (DE)'
 2013 639 2 360 374 ZAACAB
_publ_author_name
;
Schwarz, Michael;Haas, Miriam;Roehr, Caroline
;
_cell_length_a                     27.901(3)
_cell_length_b                     11.5374(13)
_cell_length_c                     7.2017(8)
_cell_angle_alpha                  90.00
_cell_angle_beta                   102.746(8)
_cell_angle_gamma                  90.00
_cell_volume                       2261.14
_cell_formula_units_Z              4
_symmetry_space_group_name_H-M     'C 1 2/c 1'
_symmetry_Int_Tables_number        15
_refine_ls_R_factor_all            .0407
loop_
_symmetry_equiv_pos_site_id
_symmetry_equiv_pos_as_xyz
  1	'x, -y, z+.5'
  2	'-x, -y, -z'
  3	'-x, y, -z+.5'
  4	'x, y, z'
  5	'x+.5, -y+.5, z+.5'
  6	'-x+.5, -y+.5, -z'
  7	'-x+.5, y+.5, -z+.5'
  8	'x+.5, y+.5, z'
loop_
_atom_type_symbol
_atom_type_oxidation_number
Fe2.6+	2.6
K1+	1
S2-	-2
loop_
_atom_site_label
_atom_site_type_symbol
_atom_site_symmetry_multiplicity
_atom_site_Wyckoff_symbol
_atom_site_fract_x
_atom_site_fract_y
_atom_site_fract_z
_atom_site_occupancy
_atom_site_attached_hydrogens
_atom_site_U_iso_or_equiv
K1 K1+ 4 e 0.0000 0.10766(13) 0.2500 1 0 0.0419(4) 
K2 K1+ 8 f 0.07508(4) 0.40254(10) 0.43155(14) 1 0 0.0326(2) 
K3 K1+ 8 f 0.14608(3) 0.02924(8) 0.51179(12) 1 0 0.02353(19) 
K4 K1+ 8 f 0.28181(4) 0.10979(8) 0.46276(14) 1 0 0.0299(2) 
Fe1 Fe2.6+ 4 e 0.0000 0.76596(7) 0.2500 1 0 0.01630(16) 
Fe2 Fe2.6+ 8 f 0.400542(19) 0.23139(5) 0.05971(8) 1 0 0.01671(12) 
Fe3 Fe2.6+ 8 f 0.201118(19) 0.27751(5) 0.01093(7) 1 0 0.01568(12) 
S1 S2- 8 f 0.03099(4) 0.34363(10) 0.01121(15) 1 0 0.0254(2) 
S2 S2- 8 f 0.43327(4) 0.37189(9) 0.28404(15) 1 0 0.0235(2) 
S3 S2- 8 f 0.35293(3) 0.09980(8) 0.17474(14) 1 0 0.01921(19) 
S4 S2- 8 f 0.15417(4) 0.21020(9) 0.21175(13) 1 0 0.0212(2) 
S5 S2- 8 f 0.27169(4) 0.36479(9) 0.16867(14) 1 0 0.0213(2) 

loop_
_atom_site_aniso_label
_atom_site_aniso_type_symbol
_atom_site_aniso_U_11
_atom_site_aniso_U_22
_atom_site_aniso_U_33
_atom_site_aniso_U_12
_atom_site_aniso_U_13
_atom_site_aniso_U_23
K1 K1+ 0.0546(10) 0.0277(7) 0.0384(8) 0.000 -0.0001(7) 0.000
K2 K1+ 0.0286(5) 0.0447(6) 0.0225(5) -0.0131(4) 0.0014(4) -0.0015(4)
K3 K1+ 0.0264(5) 0.0252(4) 0.0189(4) -0.0034(4) 0.0050(3) 0.0029(3)
K4 K1+ 0.0338(5) 0.0266(5) 0.0330(5) -0.0020(4) 0.0156(4) -0.0026(4)
Fe1 Fe2.6+ 0.0138(3) 0.0193(4) 0.0158(3) 0.000 0.0030(3) 0.000
Fe2 Fe2.6+ 0.0143(3) 0.0196(3) 0.0162(2) -0.0003(2) 0.00332(19) -0.0003(2)
Fe3 Fe2.6+ 0.0140(3) 0.0172(3) 0.0151(2) 0.0000(2) 0.00152(18) 0.0005(2)
S1 S2- 0.0184(5) 0.0322(5) 0.0261(5) -0.0007(4) 0.0064(4) -0.0128(4)
S2 S2- 0.0184(5) 0.0252(5) 0.0257(5) 0.0042(4) 0.0023(4) -0.0076(4)
S3 S2- 0.0178(4) 0.0213(4) 0.0185(4) 0.0019(4) 0.0039(3) 0.0060(3)
S4 S2- 0.0265(5) 0.0223(5) 0.0144(4) -0.0031(4) 0.0037(3) 0.0037(3)
S5 S2- 0.0164(4) 0.0219(5) 0.0241(5) -0.0012(4) 0.0013(4) -0.0081(4)
#End of data_425069-ICSD


