data_166636-ICSD
#?2014 by Fachinformationszentrum Karlsruhe, and the U.S. Secretary of 
#Commerce on behalf of the United States.  All rights reserved.
_database_code_ICSD                166636
_audit_creation_date               2010/08/01
_chemical_name_systematic          'Dipotassium Tetrachromate'
_chemical_formula_structural       'K2 (Cr4 O13)'
_chemical_formula_sum              'Cr4 K2 O13'
_publ_section_title
;
Crystal structure of potassium tetrachromate K2 Cr4 O13
;
loop_
_citation_id
_citation_journal_abbrev
_citation_year
_citation_journal_volume
_citation_journal_issue
_citation_page_first
_citation_page_last
_citation_journal_id_ASTM
primary 'Doklady Akademii Nauk SSSR' 1970 192 6 1272 1274 DANKAS
2 Kristallografiya 1972 17- 929 933 KRISAJ
_publ_author_name
;
Golovachev, V.P.;Kuz'min, E.A.;Kharitonov, Yu.A.;Belov, N.V.
;
_cell_length_a                     8.71
_cell_length_b                     7.55
_cell_length_c                     9.37
_cell_angle_alpha                  90.
_cell_angle_beta                   93.
_cell_angle_gamma                  90.
_cell_volume                       615.33
_cell_formula_units_Z              2
_symmetry_space_group_name_H-M     'P 1 c 1'
_symmetry_Int_Tables_number        7
_refine_ls_R_factor_all            .108
loop_
_symmetry_equiv_pos_site_id
_symmetry_equiv_pos_as_xyz
  1	'x, -y, z+.5'
  2	'x, y, z'
loop_
_atom_type_symbol
_atom_type_oxidation_number
Cr6+	6
K1+	1
O2-	-2
loop_
_atom_site_label
_atom_site_type_symbol
_atom_site_symmetry_multiplicity
_atom_site_Wyckoff_symbol
_atom_site_fract_x
_atom_site_fract_y
_atom_site_fract_z
_atom_site_occupancy
_atom_site_attached_hydrogens
_atom_site_B_iso_or_equiv
Cr1 Cr6+ 2 a 0.441 0.439 0.335 1. 0 1.3 
Cr2 Cr6+ 2 a 0.434 0.105 0.102 1. 0 1.3 
Cr3 Cr6+ 2 a 0.759 0.930 -0.029 1. 0 1.3 
Cr4 Cr6+ 2 a 0.095 0.429 0.383 1. 0 1.3 
K1 K1+ 2 a 0.796 0.405 0.104 1. 0 1.3 
K2 K1+ 2 a 0.079 0.892 0.246 1. 0 1.3 
O1 O2- 2 a 0.906 0.064 0.98 1. 0 1.3 
O2 O2- 2 a 0.588 0.069 0.001 1. 0 1.3 
O3 O2- 2 a 0.282 0.103 0.997 1. 0 1.3 
O4 O2- 2 a 0.578 0.563 0.345 1. 0 1.3 
O5 O2- 2 a 0.959 0.562 0.332 1. 0 1.3 
O6 O2- 2 a 0.263 0.568 0.323 1. 0 1.3 
O7 O2- 2 a 0.070 0.244 0.268 1. 0 1.3 
O8 O2- 2 a 0.119 0.633 0.050 1. 0 1.3 
O9 O2- 2 a 0.447 0.349 0.166 1. 0 1.3 
O10 O2- 2 a 0.448 0.311 0.466 1. 0 1.3 
O11 O2- 2 a 0.425 0.970 0.238 1. 0 1.3 
O12 O2- 2 a 0.750 0.182 0.309 1. 0 1.3 
O13 O2- 2 a 0.767 0.779 0.093 1. 0 1.3 

#End of data_166636-ICSD


