data_202688-ICSD
#?2014 by Fachinformationszentrum Karlsruhe, and the U.S. Secretary of 
#Commerce on behalf of the United States.  All rights reserved.
_database_code_ICSD                202688
_audit_creation_date               1989/12/04
_audit_update_record               2007/08/01
_chemical_name_systematic          'Magnesium Ditantalum Oxide'
_chemical_formula_structural       'Mg Ta2 O6'
_chemical_formula_sum              'Mg1 O6 Ta2'
_publ_section_title
;
Untersuchungen an Zn(1-x) M(x) Ta2 O6 (M = Mg und Ni) mit einer 
Verfeinerung der Kristallstruktur von Mg Ta2 O6
;
loop_
_citation_id
_citation_journal_abbrev
_citation_year
_citation_journal_volume
_citation_page_first
_citation_page_last
_citation_journal_id_ASTM
primary 'Journal of the Less-Common Metals' 1988 142 263 268 JCOMAH
_publ_author_name                  'Halle, G.;Mueller Buschbaum, H.'
_cell_length_a                     4.7189(7)
_cell_length_b                     4.7189(7)
_cell_length_c                     9.2003(22)
_cell_angle_alpha                  90.
_cell_angle_beta                   90.
_cell_angle_gamma                  90.
_cell_volume                       204.87
_cell_formula_units_Z              2
_symmetry_space_group_name_H-M     'P 42/m n m'
_symmetry_Int_Tables_number        136
_refine_ls_R_factor_all            .079
loop_
_symmetry_equiv_pos_site_id
_symmetry_equiv_pos_as_xyz
  1	'-y+.5, x+.5, -z+.5'
  2	'y+.5, -x+.5, -z+.5'
  3	'y, x, -z'
  4	'-y, -x, -z'
  5	'y+.5, -x+.5, z+.5'
  6	'-y+.5, x+.5, z+.5'
  7	'-y, -x, z'
  8	'y, x, z'
  9	'x+.5, -y+.5, -z+.5'
 10	'-x+.5, y+.5, -z+.5'
 11	'x, y, -z'
 12	'-x, -y, -z'
 13	'-x+.5, y+.5, z+.5'
 14	'x+.5, -y+.5, z+.5'
 15	'-x, -y, z'
 16	'x, y, z'
loop_
_atom_type_symbol
_atom_type_oxidation_number
Mg2+	2
O2-	-2
Ta5+	5
loop_
_atom_site_label
_atom_site_type_symbol
_atom_site_symmetry_multiplicity
_atom_site_Wyckoff_symbol
_atom_site_fract_x
_atom_site_fract_y
_atom_site_fract_z
_atom_site_occupancy
_atom_site_attached_hydrogens
_atom_site_B_iso_or_equiv
Mg1 Mg2+ 2 a 0 0 0 1. 0 1.68(60) 
Ta1 Ta5+ 4 e 0 0 0.3319(3) 1. 0 0.67(3) 
O1 O2- 4 f 0.308(9) 0.308(9) 0 1. 0 0.94(92) 
O2 O2- 8 j 0.297(6) 0.297(6) 0.323(5) 1. 0 0.62(51) 

#End of data_202688-ICSD


