data_414129-ICSD
#?2014 by Fachinformationszentrum Karlsruhe, and the U.S. Secretary of 
#Commerce on behalf of the United States.  All rights reserved.
_database_code_ICSD                414129
_audit_creation_date               2005/10/01
_chemical_name_systematic
;
Calcium Bis(hexafluoroarsenate) (hydrogen Fluoride)
;
_chemical_formula_structural       'Ca (H F) (As F6)2'
_chemical_formula_sum              'H1 As2 Ca1 F13'
_publ_section_title
;
Calcium hexafluoroarsenates with metal coordinated HF molecules
;
loop_
_citation_id
_citation_journal_abbrev
_citation_year
_citation_journal_volume
_citation_page_first
_citation_page_last
_citation_journal_id_ASTM
primary 'Acta Chimica Slovenica' 2004 51 769 778 ACSLE7
_publ_author_name                  'Tramsek, M.;Benkic, P.'
_cell_length_a                     9.624(6)
_cell_length_b                     9.264(5)
_cell_length_c                     10.592(7)
_cell_angle_alpha                  90.00
_cell_angle_beta                   104.161(13)
_cell_angle_gamma                  90.00
_cell_volume                       915.65
_cell_formula_units_Z              4
_symmetry_space_group_name_H-M     'P 1 21/c 1'
_symmetry_Int_Tables_number        14
_refine_ls_R_factor_all            .1381
loop_
_symmetry_equiv_pos_site_id
_symmetry_equiv_pos_as_xyz
  1	'x, -y+.5, z+.5'
  2	'-x, -y, -z'
  3	'-x, y+.5, -z+.5'
  4	'x, y, z'
loop_
_atom_type_symbol
_atom_type_oxidation_number
As5+	5
Ca2+	2
F1-	-1
H1+	1
loop_
_atom_site_label
_atom_site_type_symbol
_atom_site_symmetry_multiplicity
_atom_site_Wyckoff_symbol
_atom_site_fract_x
_atom_site_fract_y
_atom_site_fract_z
_atom_site_occupancy
_atom_site_attached_hydrogens
_atom_site_U_iso_or_equiv
As1 As5+ 4 e 0.51171(15) 0.65433(16) 0.81535(14) 1 0 0.0179(3) 
As2 As5+ 4 e 0.00859(15) 0.34327(15) 0.81395(14) 1 0 0.0162(3) 
Ca1 Ca2+ 4 e 0.2493(4) 0.6729(2) 1.0012(4) 1 0 0.0180(4) 
F1 F1- 4 e 0.2480(16) 0.9315(9) 1.0008(14) 1 0 0.050(2) 
F2 F1- 4 e 0.4017(10) 0.7751(10) 0.7054(9) 1 0 0.029(2) 
F3 F1- 4 e 0.6105(10) 0.5375(10) 0.9293(9) 1 0 0.032(2) 
F4 F1- 4 e 0.3636(8) 0.5476(10) 0.8112(9) 1 0 0.029(2) 
F5 F1- 4 e 0.4720(9) 0.7462(9) 0.9438(8) 1 0 0.0250(19) 
F6 F1- 4 e 0.6524(9) 0.7677(9) 0.8347(10) 1 0 0.028(2) 
F7 F1- 4 e 0.5394(11) 0.5630(9) 0.6827(7) 1 0 0.029(2) 
F8 F1- 4 e 0.1119(8) 0.4661(8) 0.9211(7) 1 0 0.0169(16) 
F9 F1- 4 e -0.1003(10) 0.2251(9) 0.7091(7) 1 0 0.025(2) 
F10 F1- 4 e -0.1436(10) 0.4436(10) 0.8104(9) 1 0 0.028(2) 
F11 F1- 4 e -0.0414(9) 0.2563(10) 0.9432(9) 1 0 0.0260(19) 
F12 F1- 4 e 0.1509(11) 0.2351(13) 0.8281(10) 1 0 0.039(2) 
F13 F1- 4 e 0.0512(10) 0.4358(12) 0.6940(8) 1 0 0.034(2) 
H1 H1+ 4 e 0.315(11) 0.969(14) 0.948(11) 1 0 0.01(3) 

loop_
_atom_site_aniso_label
_atom_site_aniso_type_symbol
_atom_site_aniso_U_11
_atom_site_aniso_U_22
_atom_site_aniso_U_33
_atom_site_aniso_U_12
_atom_site_aniso_U_13
_atom_site_aniso_U_23
As1 As5+ 0.0169(7) 0.0177(8) 0.0189(8) 0.0007(5) 0.0036(6) -0.0003(5)
As2 As5+ 0.0187(7) 0.0160(7) 0.0140(7) -0.0049(5) 0.0042(5) -0.0057(5)
Ca1 Ca2+ 0.0160(8) 0.0176(10) 0.0179(9) 0.0002(14) -0.0008(7) 0.0031(13)
F1 F1- 0.052(5) 0.044(5) 0.052(5) -0.028(6) 0.011(4) -0.014(6)
F2 F1- 0.033(5) 0.023(5) 0.034(5) 0.001(4) 0.013(4) 0.013(4)
F3 F1- 0.027(5) 0.036(5) 0.028(5) 0.009(4) -0.001(4) 0.018(4)
F4 F1- 0.011(4) 0.032(5) 0.039(5) -0.007(3) -0.006(4) 0.010(4)
F5 F1- 0.027(4) 0.024(5) 0.020(4) -0.008(3) -0.003(3) -0.001(3)
F6 F1- 0.027(5) 0.013(4) 0.048(6) -0.008(3) 0.015(4) 0.011(4)
F7 F1- 0.057(6) 0.016(4) 0.011(4) 0.029(4) 0.005(4) 0.000(3)
F8 F1- 0.022(4) 0.016(4) 0.012(4) -0.008(3) 0.002(3) 0.003(3)
F9 F1- 0.037(5) 0.023(4) 0.007(4) -0.017(4) -0.008(3) 0.001(3)
F10 F1- 0.032(5) 0.019(4) 0.030(5) 0.003(4) 0.004(4) -0.005(3)
F11 F1- 0.027(4) 0.029(5) 0.030(5) -0.012(4) 0.022(4) 0.004(4)
F12 F1- 0.029(5) 0.059(7) 0.029(5) 0.006(5) 0.008(4) 0.003(5)
F13 F1- 0.034(5) 0.053(6) 0.015(4) -0.005(4) 0.005(4) 0.000(4)
#End of data_414129-ICSD


