data_417326-ICSD
#?2014 by Fachinformationszentrum Karlsruhe, and the U.S. Secretary of 
#Commerce on behalf of the United States.  All rights reserved.
_database_code_ICSD                417326
_audit_creation_date               2008/02/01
_chemical_name_systematic
;
Tetrapotassium Hexathiodiphosphate(IV) Tetrahydrate
;
_chemical_formula_structural       'K4 (P2 S6) (H2 O)4'
_chemical_formula_sum              'H8 K4 O4 P2 S6'
_publ_section_title
;
New hexachalcogeno-hypodiphosphates of the alkali metals: Synthesis, 
crystal structure and vibrational spectra of the 
hexathiodiphosphate(IV) hydrates: K4[P2 S6] * 4 H2O, Rb4[P2 S6] * 6 
H2O and Cs4[P2 S6] * 6 H2O
;
loop_
_citation_id
_citation_journal_abbrev
_citation_year
_citation_journal_volume
_citation_journal_issue
_citation_page_first
_citation_page_last
_citation_journal_id_ASTM
primary 'Zeitschrift fuer Anorganische und Allgemeine Chemie (1950) (DE)'
 2007 633 7 1048 1054 ZAACAB
_publ_author_name                  'Gjikaj, M.;Ehrhardt, C.'
_cell_length_a                     8.0368(12)
_cell_length_b                     11.2921(14)
_cell_length_c                     8.9662(14)
_cell_angle_alpha                  90.00
_cell_angle_beta                   94.091(12)
_cell_angle_gamma                  90.00
_cell_volume                       811.63
_cell_formula_units_Z              2
_symmetry_space_group_name_H-M     'P 1 21/n 1'
_symmetry_Int_Tables_number        14
_refine_ls_R_factor_all            .0523
loop_
_symmetry_equiv_pos_site_id
_symmetry_equiv_pos_as_xyz
  1	'-x+.5, y+.5, -z+.5'
  2	'-x, -y, -z'
  3	'x+.5, -y+.5, z+.5'
  4	'x, y, z'
loop_
_atom_type_symbol
_atom_type_oxidation_number
H1+	1
K1+	1
O2-	-2
P4+	4
S2-	-2
loop_
_atom_site_label
_atom_site_type_symbol
_atom_site_symmetry_multiplicity
_atom_site_Wyckoff_symbol
_atom_site_fract_x
_atom_site_fract_y
_atom_site_fract_z
_atom_site_occupancy
_atom_site_attached_hydrogens
_atom_site_U_iso_or_equiv
K1 K1+ 4 e 0.10302(13) 0.77342(9) 0.09067(12) 1 0 0.0327(2) 
K2 K1+ 4 e 0.04967(11) 0.84634(7) 0.53015(10) 1 0 0.02304(19) 
S1 S2- 4 e 0.15564(11) 0.35627(8) 0.68446(10) 1 0 0.0189(2) 
S2 S2- 4 e 0.25031(11) 0.62015(9) 0.41576(11) 1 0 0.0207(2) 
S3 S2- 4 e 0.04788(12) 0.38596(8) 0.25811(10) 1 0 0.0195(2) 
P1 P4+ 4 e 0.03042(11) 0.53260(8) 0.38675(10) 1 0 0.01353(19) 
O1 O2- 4 e -0.0095(4) 0.9618(3) 0.2563(3) 1 0 0.0243(6) 
O2 O2- 4 e 0.2340(4) 0.5495(3) 0.0133(4) 1 0 0.0267(6) 
H1 H1+ 4 e 0.036(8) 1.006(6) 0.225(7) 1 0 0.04(2) 
H2 H1+ 4 e 0.102(7) 1.033(5) -0.227(6) 1 0 0.030(14) 
H3 H1+ 4 e 0.170(9) 0.546(7) -0.058(9) 1 0 0.07(2) 
H4 H1+ 4 e 0.207(8) 0.507(6) 0.064(8) 1 0 0.05(2) 

loop_
_atom_site_aniso_label
_atom_site_aniso_type_symbol
_atom_site_aniso_U_11
_atom_site_aniso_U_22
_atom_site_aniso_U_33
_atom_site_aniso_U_12
_atom_site_aniso_U_13
_atom_site_aniso_U_23
K1 K1+ 0.0323(5) 0.0341(5) 0.0322(5) 0.0008(4) 0.0055(4) 0.0008(4)
K2 K1+ 0.0272(4) 0.0166(4) 0.0250(4) 0.0009(3) -0.0006(3) 0.0000(3)
S1 S2- 0.0202(4) 0.0187(4) 0.0172(4) 0.0030(3) -0.0023(3) 0.0030(3)
S2 S2- 0.0164(4) 0.0210(4) 0.0251(4) -0.0039(3) 0.0035(3) -0.0027(4)
S3 S2- 0.0284(5) 0.0157(4) 0.0145(4) 0.0009(3) 0.0014(3) -0.0028(3)
P1 P4+ 0.0159(4) 0.0137(4) 0.0110(4) -0.0003(3) 0.0003(3) 0.0000(3)
O1 O2- 0.0202(14) 0.0291(16) 0.0236(14) 0.0002(12) 0.0020(12) 0.0030(12)
O2 O2- 0.0248(15) 0.0358(18) 0.0193(14) -0.0036(13) -0.0010(12) 0.0004(13)
#End of data_417326-ICSD


