data_404089-ICSD
#?2014 by Fachinformationszentrum Karlsruhe, and the U.S. Secretary of 
#Commerce on behalf of the United States.  All rights reserved.
_database_code_ICSD                404089
_audit_creation_date               1996/10/14
_chemical_name_systematic
;
Zinc Bis(hydrogensulfate(VI)) - Sulfuric Acid (1/2)
;
_chemical_formula_structural       '(Zn (H S O4)2) (H2 (S O4))2'
_chemical_formula_sum              'H6 O16 S4 Zn1'
_publ_section_title
;
Synthese und Struktur von Zn (HS O4)2 (H2 S O4)2 und Cd (HS O4)2
;
loop_
_citation_id
_citation_journal_abbrev
_citation_year
_citation_journal_volume
_citation_page_first
_citation_page_last
_citation_journal_id_ASTM
primary 'Zeitschrift fuer Naturforschung, B: Chemical Sciences'
 1996 51 14 18 ZNBSEN
_publ_author_name
;
Kemnitz, E.;Werner, C.;Stiewe, A.;Worzala, H.;Troyanov, S.I.
;
_cell_length_a                     5.047(1)
_cell_length_b                     15.430(3)
_cell_length_c                     7.958(2)
_cell_angle_alpha                  90.
_cell_angle_beta                   104.16(3)
_cell_angle_gamma                  90.
_cell_volume                       600.9
_cell_formula_units_Z              2
_symmetry_space_group_name_H-M     'P 1 21/c 1'
_symmetry_Int_Tables_number        14
_refine_ls_R_factor_all            .0506
loop_
_symmetry_equiv_pos_site_id
_symmetry_equiv_pos_as_xyz
  1	'x, -y+.5, z+.5'
  2	'-x, -y, -z'
  3	'-x, y+.5, -z+.5'
  4	'x, y, z'
loop_
_atom_type_symbol
_atom_type_oxidation_number
H1+	1
O2-	-2
S6+	6
Zn2+	2
loop_
_atom_site_label
_atom_site_type_symbol
_atom_site_symmetry_multiplicity
_atom_site_Wyckoff_symbol
_atom_site_fract_x
_atom_site_fract_y
_atom_site_fract_z
_atom_site_occupancy
_atom_site_attached_hydrogens
_atom_site_U_iso_or_equiv
Zn1 Zn2+ 2 a 0 0 1 1. 0 0 
S1 S6+ 4 e 0.42529(12) -.08427(4) 0.76690(8) 1. 0 0 
S2 S6+ 4 e 0.12370(13) 0.16669(4) 0.75099(9) 1. 0 0 
O1 O2- 4 e 0.3861(4) -.17654(12) 0.7274(3) 1. 0 0 
O2 O2- 4 e 0.2943(4) -.05877(13) 0.9012(3) 1. 0 0 
O3 O2- 4 e 0.7113(4) -.06074(13) 0.8058(3) 1. 0 0 
O4 O2- 4 e 0.2804(5) -.04097(15) 0.5946(3) 1. 0 0 
O5 O2- 4 e -.0282(4) 0.10978(13) 0.8351(3) 1. 0 0 
O6 O2- 4 e 0.2826(5) 0.12831(13) 0.6450(3) 1. 0 0 
O7 O2- 4 e 0.3015(6) 0.2209(2) 0.8949(3) 1. 0 0 
O8 O2- 4 e -.0677(6) 0.2303(2) 0.6352(3) 1. 0 0 
H1 H1+ 4 e 0.286(14) 0.0117(39) 0.6182(92) 1. 0 0.125(26) 
H2 H1+ 4 e 0.3851(88) 0.2376(28) 0.8635(55) 1. 0 0.033(13) 
H3 H1+ 4 e -.1426(94) 0.2393(33) 0.6698(60) 1. 0 0.041(16) 

loop_
_atom_site_aniso_label
_atom_site_aniso_type_symbol
_atom_site_aniso_U_11
_atom_site_aniso_U_22
_atom_site_aniso_U_33
_atom_site_aniso_U_12
_atom_site_aniso_U_13
_atom_site_aniso_U_23
Zn1 Zn2+ 0.0139(2) 0.0151(2) 0.0214(2) -.00238(14) 0.0077(2) -.0033(2)
S1 S6+ 0.0123(3) 0.0121(3) 0.0190(3) -.0008(2) 0.0041(2) -.0028(2)
S2 S6+ 0.0221(3) 0.0118(3) 0.0240(3) 0.0007(2) 0.0095(2) 0.0020(2)
O1 O2- 0.0225(9) 0.0128(9) 0.0285(10) -.0013(7) 0.0082(8) -.0034(7)
O2 O2- 0.0206(9) 0.0262(10) 0.0305(10) 0.0006(8) 0.0127(8) -.0088(8)
O3 O2- 0.0153(9) 0.0286(11) 0.0283(10) -.0070(8) 0.0096(8) -.0088(8)
O4 O2- 0.0358(12) 0.0209(11) 0.0255(11) 0.0025(9) -.0037(9) 0.0036(9)
O5 O2- 0.0282(11) 0.0200(9) 0.0381(12) -.0049(8) 0.0131(9) 0.0072(9)
O6 O2- 0.0354(12) 0.019(1) 0.0405(12) 0.0058(9) 0.0204(10) 0.0008(9)
O7 O2- 0.0384(13) 0.0310(12) 0.0301(12) -.0134(11) 0.0131(11) -.0036(10)
O8 O2- 0.0359(13) 0.0268(12) 0.0301(12) 0.0141(10) 0.0140(11) 0.0092(9)
#End of data_404089-ICSD


