data_2266-ICSD
#?2014 by Fachinformationszentrum Karlsruhe, and the U.S. Secretary of 
#Commerce on behalf of the United States.  All rights reserved.
_database_code_ICSD                2266
_audit_creation_date               1980/01/01
_audit_update_record               2012/02/01
_chemical_name_systematic          'Dipotassium Plumbate(II)'
_chemical_formula_structural       'K2 (Pb O2)'
_chemical_formula_sum              'K2 O2 Pb1'
_publ_section_title
;
Neue Oxoplumbate(II) A2 Pb O2 (A= K, Rb, Cs) mit zweikernigen Gruppen 
(O Pb O2 Pb O)
;
loop_
_citation_id
_citation_journal_abbrev
_citation_year
_citation_journal_volume
_citation_page_first
_citation_page_last
_citation_journal_id_ASTM
primary 'Zeitschrift fuer Anorganische und Allgemeine Chemie (1950) (DE)'
 1978 440 81 104 ZAACAB
_publ_author_name                  'Martens, K.P.;Hoppe, R.'
_cell_length_a                     10.90(1)
_cell_length_b                     7.60(6)
_cell_length_c                     7.32(8)
_cell_angle_alpha                  119.3(5)
_cell_angle_beta                   88.4(3)
_cell_angle_gamma                  117.7(3)
_cell_volume                       452.3
_cell_formula_units_Z              4
_symmetry_space_group_name_H-M     'P -1'
_symmetry_Int_Tables_number        2
_refine_ls_R_factor_all            .086
loop_
_symmetry_equiv_pos_site_id
_symmetry_equiv_pos_as_xyz
  1	'-x, -y, -z'
  2	'x, y, z'
loop_
_atom_type_symbol
_atom_type_oxidation_number
K1+	1
O2-	-2
Pb2+	2
loop_
_atom_site_label
_atom_site_type_symbol
_atom_site_symmetry_multiplicity
_atom_site_Wyckoff_symbol
_atom_site_fract_x
_atom_site_fract_y
_atom_site_fract_z
_atom_site_occupancy
_atom_site_attached_hydrogens
_atom_site_U_iso_or_equiv
Pb1 Pb2+ 2 i 0.133(3) 0.190(8) 0.459(1) 1. 0 0 
Pb2 Pb2+ 2 i 0.524(8) 0.240(8) 0.014(3) 1. 0 0 
K1 K1+ 2 i 0.176(7) 0.245(5) 0.992(2) 1. 0 0 
K2 K1+ 2 i 0.493(7) 0.223(4) 0.494(2) 1. 0 0 
K3 K1+ 2 i 0.137(3) 0.71 0.964(9) 1. 0 0 
K4 K1+ 2 i 0.169(5) 0.720(3) 0.482(3) 1. 0 0 
O1 O2- 2 i 0.023(2) 0.235(4) 0.276(9) 1. 0 0.0247 
O2 O2- 2 i 0.007(7) 0.208(9) 0.701(6) 1. 0 0.0084 
O3 O2- 2 i 0.643(3) 0.248(3) 0.789(4) 1. 0 0.0353 
O4 O2- 2 i 0.632(2) 0.147(2) 0.177(7) 1. 0 0.0022 

loop_
_atom_site_aniso_label
_atom_site_aniso_type_symbol
_atom_site_aniso_U_11
_atom_site_aniso_U_22
_atom_site_aniso_U_33
_atom_site_aniso_U_12
_atom_site_aniso_U_13
_atom_site_aniso_U_23
Pb1 Pb2+ 0.0011(1) 0.0114(11) 0.0220(12) 0.0000(8) 0.0000(8) 0.0062(9)
Pb2 Pb2+ 0.0047(1) 0.0176(12) 0.0230(13) 0.0044(9) 0.0030(8) 0.0113
K1 K1+ 0.0227(5) 0.0258(2) 0.0050(4) 0.0105(4) 0.0000(4) 0.0057(4)
K2 K1+ 0.0130(5) 0.0262(5) 0.0278(5) 0.0143(4) 0.0043(4) 0.0145(4)
K3 K1+ 0.0035(4) 0.0123(4) 0.0100(5) 0.0000(4) 0.0004(4) 0.0026(4)
K4 K1+ 0.0074(4) 0.0051(4) 0.0196(4) 0.0000(4) 0.0000(4) 0.0029(4)
#End of data_2266-ICSD


