data_34694-ICSD
#?2014 by Fachinformationszentrum Karlsruhe, and the U.S. Secretary of 
#Commerce on behalf of the United States.  All rights reserved.
_database_code_ICSD                34694
_audit_creation_date               1980/01/01
_audit_update_record               2012/08/01
_chemical_name_systematic          'Magnesium Chloride Hexahydrate'
_chemical_formula_structural       'Mg Cl2 (H2 O)6'
_chemical_formula_sum              'H12 Cl2 Mg1 O6'
_chemical_name_mineral             Bischofite
_publ_section_title
;
A neutron diffraction study of magnesium chloride hexahydrate
;
loop_
_citation_id
_citation_journal_abbrev
_citation_year
_citation_journal_volume
_citation_page_first
_citation_page_last
_citation_journal_id_ASTM
primary 'Acta Crystallographica A (24,1968-38,1982)' 1969 25 118 119 ACACBN
_publ_author_name                  'Agron, P.A.;Busing, W.R.'
_cell_length_a                     9.8607(2)
_cell_length_b                     7.1071(2)
_cell_length_c                     6.0737(2)
_cell_angle_alpha                  90.
_cell_angle_beta                   93.758(2)
_cell_angle_gamma                  90.
_cell_volume                       424.74
_cell_formula_units_Z              2
_symmetry_space_group_name_H-M     'C 1 2/m 1'
_symmetry_Int_Tables_number        12
_refine_ls_R_factor_all            .054
loop_
_symmetry_equiv_pos_site_id
_symmetry_equiv_pos_as_xyz
  1	'-x, y, -z'
  2	'-x, -y, -z'
  3	'x, -y, z'
  4	'x, y, z'
  5	'-x+.5, y+.5, -z'
  6	'-x+.5, -y+.5, -z'
  7	'x+.5, -y+.5, z'
  8	'x+.5, y+.5, z'
loop_
_atom_type_symbol
_atom_type_oxidation_number
Cl1-	-1
H1+	1
Mg2+	2
O2-	-2
loop_
_atom_site_label
_atom_site_type_symbol
_atom_site_symmetry_multiplicity
_atom_site_Wyckoff_symbol
_atom_site_fract_x
_atom_site_fract_y
_atom_site_fract_z
_atom_site_occupancy
_atom_site_attached_hydrogens
Mg1 Mg2+ 2 a 0 0 0 1. 0 
Cl1 Cl1- 4 i 0.3176(1) 0 0.6122(2) 1. 0 
O1 O2- 4 i 0.2018(1) 0 0.1095(3) 1. 0 
O2 O2- 8 j -.0429(1) 0.2066(2) 0.2233(2) 1. 0 
H1 H1+ 4 i 0.2372(3) 0 0.2583(6) 1. 0 
H2 H1+ 4 i 0.2693(4) 0 0.0083(8) 1. 0 
H3 H1+ 8 j 0.0209(2) 0.2998(3) 0.2784(4) 1. 0 
H4 H1+ 8 j -.1160(2) 0.1984(4) 0.3151(4) 1. 0 

#End of data_34694-ICSD


