data_84422-ICSD
#?2014 by Fachinformationszentrum Karlsruhe, and the U.S. Secretary of 
#Commerce on behalf of the United States.  All rights reserved.
_database_code_ICSD                84422
_audit_creation_date               1999/01/19
_chemical_name_systematic          'Terbium Aluminate'
_chemical_formula_structural       'Tb (Al O3)'
_chemical_formula_sum              'Al1 O3 Tb1'
_publ_section_title
;
Solid solutions Tb Fe1-x Alx O3 (0<x<1) : structure and magnetic 
behaviour
;
loop_
_citation_id
_citation_journal_abbrev
_citation_year
_citation_journal_volume
_citation_page_first
_citation_page_last
_citation_journal_id_ASTM
primary 'Journal of Magnetism and Magnetic Materials' 1997 168 139 148 JMMMDC
_publ_author_name
;
Bombik, A.;Lesniewska, B.;Mayer, J.;Oles, A.;Pacyna, A.W.;Przewoznik, 
J.
;
_cell_length_a                     5.2296(1)
_cell_length_b                     5.3058(2)
_cell_length_c                     7.4154(2)
_cell_angle_alpha                  90.
_cell_angle_beta                   90.
_cell_angle_gamma                  90.
_cell_volume                       205.76
_cell_formula_units_Z              4
_symmetry_space_group_name_H-M     'P b n m'
_symmetry_Int_Tables_number        62
_refine_ls_R_factor_all            .02
loop_
_symmetry_equiv_pos_site_id
_symmetry_equiv_pos_as_xyz
  1	'-x+.5, y+.5, z'
  2	'x, y, -z+.5'
  3	'x+.5, -y+.5, z+.5'
  4	'-x, -y, -z'
  5	'x+.5, -y+.5, -z'
  6	'-x, -y, z+.5'
  7	'-x+.5, y+.5, -z+.5'
  8	'x, y, z'
loop_
_atom_type_symbol
_atom_type_oxidation_number
Al3+	3
O2-	-2
Tb3+	3
loop_
_atom_site_label
_atom_site_type_symbol
_atom_site_symmetry_multiplicity
_atom_site_Wyckoff_symbol
_atom_site_fract_x
_atom_site_fract_y
_atom_site_fract_z
_atom_site_occupancy
_atom_site_attached_hydrogens
Tb1 Tb3+ 4 c 0.9897(9) 0.0426(3) 0.25 1. 0 
Al1 Al3+ 4 b 0.5 0 0 1. 0 
O1 O2- 4 c 0.103(4) 0.473(4) 0.25 1. 0 
O2 O2- 8 d 0.720(4) 0.291(4) 0.034(3) 1. 0 

#End of data_84422-ICSD


