data_167923-ICSD
#?2014 by Fachinformationszentrum Karlsruhe, and the U.S. Secretary of 
#Commerce on behalf of the United States.  All rights reserved.
_database_code_ICSD                167923
_audit_creation_date               2011/02/01
_chemical_name_systematic          'Distrontium Magnesium Uranate'
_chemical_formula_structural       'Sr2 Mg (U O6)'
_chemical_formula_sum              'Mg1 O6 Sr2 U1'
_publ_section_title
;
Synthesis, structure and physicochemical properties of Sr2 A(II) U O6 
  (A(II)=Mg, Ca, Sr, Ba, Mn, Fe, Co, Ni, Zn and Cd) compounds
;
loop_
_citation_id
_citation_journal_abbrev
_citation_year
_citation_journal_volume
_citation_journal_issue
_citation_page_first
_citation_page_last
_citation_journal_id_ASTM
primary 'Russian Journal of Inorganic Chemistry' 2010 55 6 904 912 RJICAQ
2 'Zhurnal Neorganicheskoi Khimii' 2010 55 6 968 977 ZNOKAQ
_publ_author_name
;
Chernorukov, N.G.;Knyazev, A.V.;Dashkina, Z.S.
;
_cell_length_a                     5.8023(5)
_cell_length_b                     5.7963(4)
_cell_length_c                     8.1872(4)
_cell_angle_alpha                  90.
_cell_angle_beta                   89.99(2)
_cell_angle_gamma                  90.
_cell_volume                       275.35
_cell_formula_units_Z              2
_symmetry_space_group_name_H-M     'P 1 21/n 1'
_symmetry_Int_Tables_number        14
_refine_ls_R_factor_all            .0669
loop_
_symmetry_equiv_pos_site_id
_symmetry_equiv_pos_as_xyz
  1	'-x+.5, y+.5, -z+.5'
  2	'-x, -y, -z'
  3	'x+.5, -y+.5, z+.5'
  4	'x, y, z'
loop_
_atom_type_symbol
_atom_type_oxidation_number
Mg2+	2
O2-	-2
Sr2+	2
U6+	6
loop_
_atom_site_label
_atom_site_type_symbol
_atom_site_symmetry_multiplicity
_atom_site_Wyckoff_symbol
_atom_site_fract_x
_atom_site_fract_y
_atom_site_fract_z
_atom_site_occupancy
_atom_site_attached_hydrogens
_atom_site_B_iso_or_equiv
Sr1 Sr2+ 4 e 0.990(3) 0.0351(5) 0.246(2) 1. 0 0.69(8) 
Mg1 Mg2+ 2 d 0.5 0 0 1. 0 0.42(3) 
U1 U6+ 2 c 0.5 0 0.5 1. 0 0.42(3) 
O1 O2- 4 e -0.043(7) 0.594(6) 0.268(4) 1. 0 0.42(3) 
O2 O2- 4 e 0.764(9) 0.218(9) -0.025(6) 1. 0 0.42(3) 
O3 O2- 4 e 0.171(9) 0.260(8) 0.962(6) 1. 0 0.42(3) 

#End of data_167923-ICSD


