data_14238-ICSD
#?2014 by Fachinformationszentrum Karlsruhe, and the U.S. Secretary of 
#Commerce on behalf of the United States.  All rights reserved.
_database_code_ICSD                14238
_audit_creation_date               1980/01/01
_audit_update_record               2012/08/01
_chemical_name_systematic          'Zinc Nitrate Tetrahydrate'
_chemical_formula_structural       'Zn (N O3)2 (H2 O)4'
_chemical_formula_sum              'H8 N2 O10 Zn1'
_publ_section_title
;
Die Kristallstruktur von Zn (N O3)2 (H2 O)4
;
loop_
_citation_id
_citation_journal_abbrev
_citation_year
_citation_journal_volume
_citation_page_first
_citation_page_last
_citation_journal_id_ASTM
primary
;
Zeitschrift fuer Kristallographie, Kristallgeometrie, Kristallphysik, 
Kristallchemie (-144,1977)
;
 1970 131 175 185 ZEKGAX
_publ_author_name
;
Ribar, B.;Nowacki, W.;Sljukic, M.;Gabela, F.;Matkovic, B.
;
_cell_length_a                     5.321
_cell_length_b                     27.36
_cell_length_c                     5.73
_cell_angle_alpha                  90.
_cell_angle_beta                   113.4
_cell_angle_gamma                  90.
_cell_volume                       765.58
_cell_formula_units_Z              4
_symmetry_space_group_name_H-M     'P 1 21/n 1'
_symmetry_Int_Tables_number        14
_refine_ls_R_factor_all            .113
loop_
_symmetry_equiv_pos_site_id
_symmetry_equiv_pos_as_xyz
  1	'-x+.5, y+.5, -z+.5'
  2	'-x, -y, -z'
  3	'x+.5, -y+.5, z+.5'
  4	'x, y, z'
loop_
_atom_type_symbol
_atom_type_oxidation_number
H1+	1
N5+	5
O2-	-2
Zn2+	2
loop_
_atom_site_label
_atom_site_type_symbol
_atom_site_symmetry_multiplicity
_atom_site_Wyckoff_symbol
_atom_site_fract_x
_atom_site_fract_y
_atom_site_fract_z
_atom_site_occupancy
_atom_site_attached_hydrogens
_atom_site_B_iso_or_equiv
Zn1 Zn2+ 4 e 0.9791(3) 0.1258(1) 0.2760(3) 1. 0 0 
O1 O2- 4 e 0.242(2) 0.0747(3) 0.2032(21) 1. 0 0 
O2 O2- 4 e 0.0466(18) 0.0100(3) 0.2787(20) 1. 0 0 
O3 O2- 4 e 0.4235(17) 0.0033(3) 0.2250(18) 1. 0 0 
O4 O2- 4 e 0.0456(20) 0.1601(3) 0.9763(19) 1. 0 0 
O5 O2- 4 e 0.1882(21) 0.2215(3) 0.8282(19) 1. 0 0 
O6 O2- 4 e 0.0842(21) 0.2326(3) 0.1471(19) 1. 0 0 
O7 O2- 4 e 0.3578(18) 0.1541(3) 0.5603(17) 1. 0 0 
O8 O2- 4 e 0.9267(22) 0.0887(3) 0.5683(20) 1. 0 0 
O9 O2- 4 e 0.6290(17) 0.0917(3) 0.0002(16) 1. 0 0 
O10 O2- 4 e 0.7160(18) 0.1765(3) 0.3180(18) 1. 0 0 
N1 N5+ 4 e 0.239(2) 0.0276(3) 0.2389(20) 1. 0 0 
N2 N5+ 4 e 0.1067(21) 0.2055(3) 0.9863(21) 1. 0 0 
H1 H1+ 4 e 0.42(5) 0.1200(87) 0.700(46) 1. 0 6.1 
H2 H1+ 4 e 0.290(34) 0.180(6) 0.660(32) 1. 0 0.2 
H3 H1+ 4 e 0.96(5) 0.0610(87) 0.660(46) 1. 0 6.9 
H4 H1+ 4 e 0.980(49) 0.0980(86) 0.720(46) 1. 0 5.3 
H5 H1+ 4 e 0.510(43) 0.0820(75) 0.093(40) 1. 0 2.8 
H6 H1+ 4 e 0.660(47) 0.0680(83) 0.890(44) 1. 0 4.6 
H7 H1+ 4 e 0.73(4) 0.2100(69) 0.330(37) 1. 0 1.8 
H8 H1+ 4 e 0.570(46) 0.1700(82) 0.470(44) 1. 0 3.8 

#End of data_14238-ICSD


