data_79482-ICSD
#?2014 by Fachinformationszentrum Karlsruhe, and the U.S. Secretary of 
#Commerce on behalf of the United States.  All rights reserved.
_database_code_ICSD                79482
_audit_creation_date               1996/10/14
_chemical_name_systematic
;
Potassium Nickel Tetrathiophosphate
;
_chemical_formula_structural       'K Ni (P S4)'
_chemical_formula_sum              'K1 Ni1 P1 S4'
_publ_section_title
;
K Ni P S4: a new thiophosphate with one- and twodimensional 
structural arrangements
;
loop_
_citation_id
_citation_journal_abbrev
_citation_year
_citation_journal_volume
_citation_page_first
_citation_page_last
_citation_journal_id_ASTM
primary 'Journal of Solid State Chemistry' 1995 116 107 112 JSSCBI
_publ_author_name
;
Elder, S.H.;van der Lee, A.;Brec, R.
;
_cell_length_a                     8.2538(4)
_cell_length_b                     8.2538(4)
_cell_length_c                     10.7553(6)
_cell_angle_alpha                  90.
_cell_angle_beta                   90.
_cell_angle_gamma                  90.
_cell_volume                       732.71
_cell_formula_units_Z              4
_symmetry_space_group_name_H-M     'P 42/m n m'
_symmetry_Int_Tables_number        136
_refine_ls_R_factor_all            .025
loop_
_symmetry_equiv_pos_site_id
_symmetry_equiv_pos_as_xyz
  1	'-y+.5, x+.5, -z+.5'
  2	'y+.5, -x+.5, -z+.5'
  3	'y, x, -z'
  4	'-y, -x, -z'
  5	'y+.5, -x+.5, z+.5'
  6	'-y+.5, x+.5, z+.5'
  7	'-y, -x, z'
  8	'y, x, z'
  9	'x+.5, -y+.5, -z+.5'
 10	'-x+.5, y+.5, -z+.5'
 11	'x, y, -z'
 12	'-x, -y, -z'
 13	'-x+.5, y+.5, z+.5'
 14	'x+.5, -y+.5, z+.5'
 15	'-x, -y, z'
 16	'x, y, z'
loop_
_atom_type_symbol
_atom_type_oxidation_number
K1+	1
Ni2+	2
P5+	5
S2-	-2
loop_
_atom_site_label
_atom_site_type_symbol
_atom_site_symmetry_multiplicity
_atom_site_Wyckoff_symbol
_atom_site_fract_x
_atom_site_fract_y
_atom_site_fract_z
_atom_site_occupancy
_atom_site_attached_hydrogens
Ni1 Ni2+ 2 a 0 0 0 1. 0 
Ni2 Ni2+ 2 b 0 0 0.5 1. 0 
S1 S2- 8 j 0.3635(1) 0.3635(1) 0.1442(1) 1. 0 
S2 S2- 8 i 0.0043(2) 0.2679(1) 0 1. 0 
P1 P5+ 4 f 0.2506(2) 0.2506(2) 0 1. 0 
K1 K1+ 4 d 0 0.5 0.25 1. 0 

loop_
_atom_site_aniso_label
_atom_site_aniso_type_symbol
_atom_site_aniso_U_11
_atom_site_aniso_U_22
_atom_site_aniso_U_33
_atom_site_aniso_U_12
_atom_site_aniso_U_13
_atom_site_aniso_U_23
Ni1 Ni2+ 0.0202(6) 0.0202(6) 0.0260(7) -.0084(7) 0 0
Ni2 Ni2+ 0.0218(4) 0.0218(4) 0.0260(7) 0.0098(7) 0 0
S1 S2- 0.0345(4) 0.0345(4) 0.0240(6) -.0171(6) -.0007(6) -.0007(6)
S2 S2- 0.0244(7) 0.0215(7) 0.0417(7) -.0069(7) 0 0
P1 P5+ 0.0247(6) 0.0247(6) 0.0277(10) -.0114(9) 0 0
K1 K1+ 0.0459(6) 0.0459(6) 0.0320(8) 0 0 0
#End of data_79482-ICSD


