data_66073-ICSD
#?2014 by Fachinformationszentrum Karlsruhe, and the U.S. Secretary of 
#Commerce on behalf of the United States.  All rights reserved.
_database_code_ICSD                66073
_audit_creation_date               1991/07/10
_audit_update_record               2010/02/01
_chemical_name_systematic          'Tetrapotassium Silicate'
_chemical_formula_structural       'K4 (Si O4)'
_chemical_formula_sum              'K4 O4 Si1'
_publ_section_title
;
Zur Kristallstruktur von K4 (Si O4)
;
loop_
_citation_id
_citation_journal_abbrev
_citation_year
_citation_journal_volume
_citation_page_first
_citation_page_last
_citation_journal_id_ASTM
primary 'Zeitschrift fuer Anorganische und Allgemeine Chemie (1950) (DE)'
 1990 589 129 138 ZAACAB
_publ_author_name                  'Bernet, K.;Hoppe, R.'
_cell_length_a                     10.370(3)
_cell_length_b                     6.392(1)
_cell_length_c                     10.366(3)
_cell_angle_alpha                  90.
_cell_angle_beta                   112.83(2)
_cell_angle_gamma                  90.
_cell_volume                       633.28
_cell_formula_units_Z              4
_symmetry_space_group_name_H-M     'P 1 21/c 1'
_symmetry_Int_Tables_number        14
_refine_ls_R_factor_all            .08
loop_
_symmetry_equiv_pos_site_id
_symmetry_equiv_pos_as_xyz
  1	'x, -y+.5, z+.5'
  2	'-x, -y, -z'
  3	'-x, y+.5, -z+.5'
  4	'x, y, z'
loop_
_atom_type_symbol
_atom_type_oxidation_number
K1+	1
O2-	-2
Si4+	4
loop_
_atom_site_label
_atom_site_type_symbol
_atom_site_symmetry_multiplicity
_atom_site_Wyckoff_symbol
_atom_site_fract_x
_atom_site_fract_y
_atom_site_fract_z
_atom_site_occupancy
_atom_site_attached_hydrogens
Si1 Si4+ 4 e 0.7580(1) 0.8706(2) 0.0106(1) 1. 0 
K1 K1+ 4 e 0.4260(1) 0.1826(2) 0.7951(1) 1. 0 
K2 K1+ 4 e 0.8431(1) 0.1138(2) 0.4184(1) 1. 0 
K3 K1+ 4 e 0.0648(1) 0.0929(2) 0.2007(1) 1. 0 
K4 K1+ 4 e 0.6314(1) 0.1666(2) 0.6091(1) 1. 0 
O1 O2- 4 e 0.2192(3) 0.9987(5) 0.8466(3) 1. 0 
O2 O2- 4 e 0.3019(3) 0.5237(4) 0.6268(3) 1. 0 
O3 O2- 4 e 0.6449(3) 0.8191(4) 0.4892(3) 1. 0 
O4 O2- 4 e 0.9072(3) 0.7343(4) 0.5285(9) 1. 0 

loop_
_atom_site_aniso_label
_atom_site_aniso_type_symbol
_atom_site_aniso_U_11
_atom_site_aniso_U_22
_atom_site_aniso_U_33
_atom_site_aniso_U_12
_atom_site_aniso_U_13
_atom_site_aniso_U_23
Si1 Si4+ 0.0090(5) 0.0148(5) 0.0119(6) 0.0001(4) 0.0033(4) 0.0003(4)
K1 K1+ 0.0210(4) 0.0326(5) 0.0197(5) 0.0025(4) 0.0106(4) 0.0015(4)
K2 K1+ 0.0160(4) 0.0205(4) 0.0207(5) 0.0004(3) 0.0057(4) 0.0020(3)
K3 K1+ 0.0191(4) 0.0299(5) 0.0189(5) -.0014(4) 0.0082(3) -.0019(4)
K4 K1+ 0.0187(4) 0.0258(4) 0.0210(5) -.0018(4) 0.0045(3) -.0028(4)
O1 O2- 0.0203(13) 0.0286(14) 0.0190(15) 0.0016(11) 0.0089(11) -.0058(12)
O2 O2- 0.0171(13) 0.0240(14) 0.0198(15) 0.0007(11) 0.0039(11) -.0060(12)
O3 O2- 0.0211(13) 0.0266(14) 0.0192(14) 0.0089(11) 0.0090(11) 0.0013(12)
O4 O2- 0.0133(11) 0.0230(14) 0.0184(14) -.0029(10) 0.0068(10) 0.0022(11)
#End of data_66073-ICSD


