data_155424-ICSD
#?2014 by Fachinformationszentrum Karlsruhe, and the U.S. Secretary of 
#Commerce on behalf of the United States.  All rights reserved.
_database_code_ICSD                155424
_audit_creation_date               2007/08/01
_chemical_name_systematic
;
Calcium Tungstate - Hp, Fergusonite Phase
;
_chemical_formula_structural       'Ca (W O4)'
_chemical_formula_sum              'Ca1 O4 W1'
_publ_section_title
;
High-pressure structural study of the scheelite tungstates Ca W O4 
and Sr W O4
;
loop_
_citation_id
_citation_journal_abbrev
_citation_year
_citation_journal_volume
_citation_page_first
_citation_page_last
_citation_journal_id_ASTM
primary 'Physical Review, Serie 3. B - Condensed Matter (18,1978-)'
 2005 72 174106-1 174106-14 PRBMDO
_publ_author_name
;
Errandonea, D.;Pellicer-Porres, J.;Manjon, F.J.;Segura, A.;Ferrer-
Roca, C.;Kumar, R.S.;Tschauner, O.;Rodriguez Hernandez, P.;Lopez 
Solano, J.;Radescu, S.;Mujica, A.;Munoz, A.;Aquilanti, G.
;
_cell_length_a                     5.069(2)
_cell_length_b                     10.851(5)
_cell_length_c                     5.081(7)
_cell_angle_alpha                  90.
_cell_angle_beta                   90.091(9)
_cell_angle_gamma                  90.
_cell_volume                       279.47
_cell_formula_units_Z              4
_symmetry_space_group_name_H-M     'I 1 2/a 1'
_symmetry_Int_Tables_number        15
_refine_ls_R_factor_all            .011
loop_
_symmetry_equiv_pos_site_id
_symmetry_equiv_pos_as_xyz
  1	'x+.5, -y, z'
  2	'-x, -y, -z'
  3	'-x+.5, y, -z'
  4	'x, y, z'
  5	'x, -y+.5, z+.5'
  6	'-x+.5, -y+.5, -z+.5'
  7	'-x, y+.5, -z+.5'
  8	'x+.5, y+.5, z+.5'
loop_
_atom_type_symbol
_atom_type_oxidation_number
Ca2+	2
O2-	-2
W6+	6
loop_
_atom_site_label
_atom_site_type_symbol
_atom_site_symmetry_multiplicity
_atom_site_Wyckoff_symbol
_atom_site_fract_x
_atom_site_fract_y
_atom_site_fract_z
_atom_site_occupancy
_atom_site_attached_hydrogens
Ca1 Ca2+ 4 e 0.250 0.6100(8) 0 1. 0 
W1 W6+ 4 e 0.250 0.1325(3) 0 1. 0 
O1 O2- 8 f 0.9309(39) 0.9684(23) 0.2421(24) 1. 0 
O2 O2- 8 f 0.4850(35) 0.2193(31) 0.8637(37) 1. 0 

#End of data_155424-ICSD


