data_185449-ICSD
#?2014 by Fachinformationszentrum Karlsruhe, and the U.S. Secretary of 
#Commerce on behalf of the United States.  All rights reserved.
_database_code_ICSD                185449
_audit_creation_date               2013/02/01
_chemical_name_systematic          'Calcium Titanate'
_chemical_formula_structural       'Ca (Ti O3)'
_chemical_formula_sum              'Ca1 O3 Ti1'
_publ_section_title
;
High-pressure crystal structure of elastically isotropic Ca Ti O3 
perovskite under hydrostatic and non-hydrostatic conditions
;
loop_
_citation_id
_citation_journal_abbrev
_citation_year
_citation_journal_volume
_citation_page_first
_citation_page_last
_citation_journal_id_ASTM
primary 'Journal of Physics: Condensed Matter' 2011 23 455401-1 455401-10 JCOMEL
_publ_author_name
;
Zhao Jing;Ross, N.L.;Wang Di;Angel, R.J.
;
_cell_length_a                     5.38176(22)
_cell_length_b                     5.44403(21)
_cell_length_c                     7.6425(7)
_cell_angle_alpha                  90.
_cell_angle_beta                   90.
_cell_angle_gamma                  90.
_cell_volume                       223.91
_cell_formula_units_Z              4
_symmetry_space_group_name_H-M     'P b n m'
_symmetry_Int_Tables_number        62
_refine_ls_R_factor_all            .037
loop_
_symmetry_equiv_pos_site_id
_symmetry_equiv_pos_as_xyz
  1	'-x+.5, y+.5, z'
  2	'x, y, -z+.5'
  3	'x+.5, -y+.5, z+.5'
  4	'-x, -y, -z'
  5	'x+.5, -y+.5, -z'
  6	'-x, -y, z+.5'
  7	'-x+.5, y+.5, -z+.5'
  8	'x, y, z'
loop_
_atom_type_symbol
_atom_type_oxidation_number
Ca2+	2
O2-	-2
Ti4+	4
loop_
_atom_site_label
_atom_site_type_symbol
_atom_site_symmetry_multiplicity
_atom_site_Wyckoff_symbol
_atom_site_fract_x
_atom_site_fract_y
_atom_site_fract_z
_atom_site_occupancy
_atom_site_attached_hydrogens
_atom_site_B_iso_or_equiv
Ca1 Ca2+ 4 c -0.0065(3) 0.0356(3) 0.250 1. 0 0.68(3) 
Ti1 Ti4+ 4 b 0 0.5 0 1. 0 0.46(3) 
O1 O2- 4 c 0.0722(10) 0.4833(7) 0.250 1. 0 0.68(9) 
O2 O2- 8 d 0.7099(5) 0.2892(5) 0.0377(8) 1. 0 0.63(6) 

#End of data_185449-ICSD


