data_4237-ICSD
#?2014 by Fachinformationszentrum Karlsruhe, and the U.S. Secretary of 
#Commerce on behalf of the United States.  All rights reserved.
_database_code_ICSD                4237
_audit_creation_date               1980/01/01
_audit_update_record               2012/02/01
_chemical_name_systematic
;
Trisodium Magnesium Dicarbonate Chloride
;
_chemical_formula_structural       'Na3 Mg (C O3)2 Cl'
_chemical_formula_sum              'C2 Cl1 Mg1 Na3 O6'
_chemical_name_mineral             Northupite
_publ_section_title
;
Refinement of the crystal structure of northupite, Na3 Mg (C O3)2 Cl
;
loop_
_citation_id
_citation_journal_abbrev
_citation_year
_citation_journal_volume
_citation_page_first
_citation_page_last
_citation_journal_id_ASTM
primary 'Tschermaks Mineralogische und Petrographische Mitteilungen (-1978)'
 1975 22 158 163 MPMTAG
_publ_author_name
;
dal Negro, A.;Giuseppetti, G.;Tadini, C.
;
_cell_length_a                     14.069(2)
_cell_length_b                     14.069(2)
_cell_length_c                     14.069(2)
_cell_angle_alpha                  90.
_cell_angle_beta                   90.
_cell_angle_gamma                  90.
_cell_volume                       2784.77
_cell_formula_units_Z              16
_symmetry_space_group_name_H-M     'F d -3 Z'
_symmetry_Int_Tables_number        203
_refine_ls_R_factor_all            .023
loop_
_symmetry_equiv_pos_site_id
_symmetry_equiv_pos_as_xyz
  1	'-z, x+.75, y+.75'
  2	'z+.75, x+.75, -y'
  3	'z+.75, -x, y+.75'
  4	'-z, -x, -y'
  5	'y+.75, -z, x+.75'
  6	'-y, z+.75, x+.75'
  7	'y+.75, z+.75, -x'
  8	'-y, -z, -x'
  9	'x+.75, y+.75, -z'
 10	'x+.75, -y, z+.75'
 11	'-x, y+.75, z+.75'
 12	'-x, -y, -z'
 13	'z, -x+.25, -y+.25'
 14	'-z+.25, -x+.25, y'
 15	'-z+.25, x, -y+.25'
 16	'z, x, y'
 17	'-y+.25, z, -x+.25'
 18	'y, -z+.25, -x+.25'
 19	'-y+.25, -z+.25, x'
 20	'y, z, x'
 21	'-x+.25, -y+.25, z'
 22	'-x+.25, y, -z+.25'
 23	'x, -y+.25, -z+.25'
 24	'x, y, z'
 25	'-z, x+.25, y+.25'
 26	'-z+.5, x+.75, y+.25'
 27	'-z+.5, x+.25, y+.75'
 28	'z+.75, x+.25, -y+.5'
 29	'z+.25, x+.75, -y+.5'
 30	'z+.25, x+.25, -y'
 31	'z+.75, -x+.5, y+.25'
 32	'z+.25, -x, y+.25'
 33	'z+.25, -x+.5, y+.75'
 34	'-z, -x+.5, -y+.5'
 35	'-z+.5, -x, -y+.5'
 36	'-z+.5, -x+.5, -y'
 37	'y+.75, -z+.5, x+.25'
 38	'y+.25, -z, x+.25'
 39	'y+.25, -z+.5, x+.75'
 40	'-y, z+.25, x+.25'
 41	'-y+.5, z+.75, x+.25'
 42	'-y+.5, z+.25, x+.75'
 43	'y+.75, z+.25, -x+.5'
 44	'y+.25, z+.75, -x+.5'
 45	'y+.25, z+.25, -x'
 46	'-y, -z+.5, -x+.5'
 47	'-y+.5, -z, -x+.5'
 48	'-y+.5, -z+.5, -x'
 49	'x+.75, y+.25, -z+.5'
 50	'x+.25, y+.75, -z+.5'
 51	'x+.25, y+.25, -z'
 52	'x+.75, -y+.5, z+.25'
 53	'x+.25, -y, z+.25'
 54	'x+.25, -y+.5, z+.75'
 55	'-x, y+.25, z+.25'
 56	'-x+.5, y+.75, z+.25'
 57	'-x+.5, y+.25, z+.75'
 58	'-x, -y+.5, -z+.5'
 59	'-x+.5, -y, -z+.5'
 60	'-x+.5, -y+.5, -z'
 61	'z, -x+.75, -y+.75'
 62	'z+.5, -x+.25, -y+.75'
 63	'z+.5, -x+.75, -y+.25'
 64	'-z+.25, -x+.75, y+.5'
 65	'-z+.75, -x+.25, y+.5'
 66	'-z+.75, -x+.75, y'
 67	'-z+.25, x+.5, -y+.75'
 68	'-z+.75, x, -y+.75'
 69	'-z+.75, x+.5, -y+.25'
 70	'z, x+.5, y+.5'
 71	'z+.5, x, y+.5'
 72	'z+.5, x+.5, y'
 73	'-y+.25, z+.5, -x+.75'
 74	'-y+.75, z, -x+.75'
 75	'-y+.75, z+.5, -x+.25'
 76	'y, -z+.75, -x+.75'
 77	'y+.5, -z+.25, -x+.75'
 78	'y+.5, -z+.75, -x+.25'
 79	'-y+.25, -z+.75, x+.5'
 80	'-y+.75, -z+.25, x+.5'
 81	'-y+.75, -z+.75, x'
 82	'y, z+.5, x+.5'
 83	'y+.5, z, x+.5'
 84	'y+.5, z+.5, x'
 85	'-x+.25, -y+.75, z+.5'
 86	'-x+.75, -y+.25, z+.5'
 87	'-x+.75, -y+.75, z'
 88	'-x+.25, y+.5, -z+.75'
 89	'-x+.75, y, -z+.75'
 90	'-x+.75, y+.5, -z+.25'
 91	'x, -y+.75, -z+.75'
 92	'x+.5, -y+.25, -z+.75'
 93	'x+.5, -y+.75, -z+.25'
 94	'x, y+.5, z+.5'
 95	'x+.5, y, z+.5'
 96	'x+.5, y+.5, z'
loop_
_atom_type_symbol
_atom_type_oxidation_number
C4+	4
Cl1-	-1
Mg2+	2
Na1+	1
O2-	-2
loop_
_atom_site_label
_atom_site_type_symbol
_atom_site_symmetry_multiplicity
_atom_site_Wyckoff_symbol
_atom_site_fract_x
_atom_site_fract_y
_atom_site_fract_z
_atom_site_occupancy
_atom_site_attached_hydrogens
Na1 Na1+ 48 f 0.89770(6) 0.125 0.125 1. 0 
Mg1 Mg2+ 16 d 0.5 0.5 0.5 1. 0 
C1 C4+ 32 e 0.28309(8) 0.28309(8) 0.28309(8) 1. 0 
Cl1 Cl1- 16 c 0 0 0 1. 0 
O1 O2- 96 g 0.26270(6) 0.23011(6) 0.35458(6) 1. 0 

#End of data_4237-ICSD


