data_411291-ICSD
#?2014 by Fachinformationszentrum Karlsruhe, and the U.S. Secretary of 
#Commerce on behalf of the United States.  All rights reserved.
_database_code_ICSD                411291
_audit_creation_date               2002/04/01
_chemical_name_systematic
;
Dipotassium Diaquapentakis(nitrato)praseodymate
;
_chemical_formula_structural       'K2 (Pr (N O3)5 (H2 O)2)'
_chemical_formula_sum              'H4 K2 N5 O17 Pr1'
_publ_section_title
;
Polar potassium rare earth nitrates K2 (RE (N O3)5 (H2 O)2) (RE= La, 
Ce,Pr and Nd). I. Crystal growth and crystal structures
;
loop_
_citation_id
_citation_journal_abbrev
_citation_year
_citation_journal_volume
_citation_page_first
_citation_page_last
_citation_journal_id_ASTM
primary 'Journal of Applied Crystallography' 2000 33 372 377 JACGAR
_publ_author_name
;
Held, P.;Hellwig, H.;Ruehle, S.;Bohaty, L.
;
_cell_length_a                     11.213(2)
_cell_length_b                     21.392(4)
_cell_length_c                     12.204(2)
_cell_angle_alpha                  90.
_cell_angle_beta                   90.
_cell_angle_gamma                  90.
_cell_volume                       2927.36
_cell_formula_units_Z              8
_symmetry_space_group_name_H-M     'F d d 2'
_symmetry_Int_Tables_number        43
_refine_ls_R_factor_all            .0162
loop_
_symmetry_equiv_pos_site_id
_symmetry_equiv_pos_as_xyz
  1	'x+.25, -y+.25, z+.25'
  2	'-x+.25, y+.25, z+.25'
  3	'-x, -y, z'
  4	'x, y, z'
  5	'x+.25, -y+.75, z+.75'
  6	'x+.75, -y+.25, z+.75'
  7	'x+.75, -y+.75, z+.25'
  8	'-x+.25, y+.75, z+.75'
  9	'-x+.75, y+.25, z+.75'
 10	'-x+.75, y+.75, z+.25'
 11	'-x, -y+.5, z+.5'
 12	'-x+.5, -y, z+.5'
 13	'-x+.5, -y+.5, z'
 14	'x, y+.5, z+.5'
 15	'x+.5, y, z+.5'
 16	'x+.5, y+.5, z'
loop_
_atom_type_symbol
_atom_type_oxidation_number
H1+	1
K1+	1
N5+	5
O2-	-2
Pr3+	3
loop_
_atom_site_label
_atom_site_type_symbol
_atom_site_symmetry_multiplicity
_atom_site_Wyckoff_symbol
_atom_site_fract_x
_atom_site_fract_y
_atom_site_fract_z
_atom_site_occupancy
_atom_site_attached_hydrogens
_atom_site_U_iso_or_equiv
Pr1 Pr3+ 8 a 0 0 0.00000(3) 1. 0 0 
O1 O2- 16 b 0.18496(17) 0.04841(8) 0.09122(17) 1. 0 0 
O2 O2- 16 b 0.22021(18) -.03964(9) 0.01287(19) 1. 0 0 
O3 O2- 16 b 0.36757(19) 0.01665(12) 0.0727(2) 1. 0 0 
O4 O2- 16 b 0.14040(17) 0.0586(1) -.14517(17) 1. 0 0 
O5 O2- 16 b -.04786(16) 0.06078(9) -.17871(15) 1. 0 0 
O6 O2- 16 b 0.0771(2) 0.10126(11) -.29540(15) 1. 0 0 
O7 O2- 16 b 0.0383(2) -.04549(11) 0.20262(18) 1. 0 0 
O8 O2- 8 a 0 0 0.3565(3) 1. 0 0 
K1 K1+ 16 b 0.05837(5) 0.10412(3) 0.47991(5) 1. 0 0 
N1 N5+ 16 b 0.26138(19) 0.00863(11) 0.0593(2) 1. 0 0 
N2 N5+ 16 b 0.0575(2) 0.07417(10) -.20878(17) 1. 0 0 
N3 N5+ 8 a 0 0 0.2564(3) 1. 0 0 
O9 O2- 16 b -.01403(19) 0.12244(9) 0.02572(16) 1. 0 0 
H1 H1+ 16 b -.033(4) 0.149(2) -.028(4) 1. 0 0.04(1) 
H2 H1+ 16 b 0.050(5) 0.136(2) 0.035(4) 1. 0 0.05(1) 

loop_
_atom_site_aniso_label
_atom_site_aniso_type_symbol
_atom_site_aniso_U_11
_atom_site_aniso_U_22
_atom_site_aniso_U_33
_atom_site_aniso_U_12
_atom_site_aniso_U_13
_atom_site_aniso_U_23
Pr1 Pr3+ 0.01600(7) 0.01395(7) 0.01842(7) 0.00163(6) 0 0
O1 O2- 0.0253(8) 0.0211(8) 0.0352(9) 0.0050(7) -.0050(7) -.0081(7)
O2 O2- 0.0230(7) 0.0226(8) 0.0441(11) 0.0030(7) -.0045(8) -.0112(8)
O3 O2- 0.0210(8) 0.0375(10) 0.0562(14) -.0022(8) -.0085(9) -.0036(10)
O4 O2- 0.0223(8) 0.0329(9) 0.0325(9) -.0035(7) -.0057(7) 0.0042(8)
O5 O2- 0.0215(8) 0.0217(8) 0.0272(8) -.0006(6) -.0009(6) 0.0030(6)
O6 O2- 0.0436(11) 0.0367(10) 0.0244(9) -.0072(9) 0.0030(8) 0.0085(8)
O7 O2- 0.0471(12) 0.0244(9) 0.036(1) 0.012(1) -.0079(9) -.0050(8)
O8 O2- 0.121(5) 0.050(2) 0.0197(15) -.021(2) 0 0
K1 K1+ 0.0275(2) 0.0255(2) 0.0387(3) 0.00156(19) -.0052(2) -.0003(2)
N1 N5+ 0.0202(9) 0.0197(9) 0.0276(10) 0.0013(7) -.0033(7) -.0001(8)
N2 N5+ 0.0269(10) 0.0167(9) 0.0231(9) -.0044(8) -.0004(7) -.0016(7)
N3 N5+ 0.044(2) 0.0240(16) 0.0202(14) -.0036(11) 0 0
O9 O2- 0.0298(10) 0.0194(8) 0.0328(12) -.0027(7) -.0068(7) 0.0039(6)
#End of data_411291-ICSD


