data_156433-ICSD
#?2014 by Fachinformationszentrum Karlsruhe, and the U.S. Secretary of 
#Commerce on behalf of the United States.  All rights reserved.
_database_code_ICSD                156433
_audit_creation_date               2007/08/01
_chemical_name_systematic          'Lanthanum Dipotassium Pentaniobate'
_chemical_formula_structural       'La K2 (Nb5 O15)'
_chemical_formula_sum              'K2 La1 Nb5 O15'
_publ_section_title
;
Crystal structures of K Ba2 Nb5 O15 and La K2 Nb5 O15 with the TTB-
type structure
;
loop_
_citation_id
_citation_journal_abbrev
_citation_year
_citation_journal_volume
_citation_page_first
_citation_page_last
_citation_journal_id_ASTM
primary 'Materials Research Bulletin' 2007 42 844 850 MRBUAC
_publ_author_name
;
Zhang, W.;Kumada, N.;Takei, T.;Yonesaki, Y.;Kinomura, N.
;
_cell_length_a                     12.563(2)
_cell_length_b                     12.563(2)
_cell_length_c                     3.9179(9)
_cell_angle_alpha                  90.
_cell_angle_beta                   90.
_cell_angle_gamma                  90.
_cell_volume                       618.36
_cell_formula_units_Z              2
_symmetry_space_group_name_H-M     'P 4/m b m'
_symmetry_Int_Tables_number        127
_refine_ls_R_factor_all            .047
loop_
_symmetry_equiv_pos_site_id
_symmetry_equiv_pos_as_xyz
  1	'y+.5, x+.5, -z'
  2	'-y+.5, -x+.5, -z'
  3	'-y, x, -z'
  4	'y, -x, -z'
  5	'x+.5, -y+.5, -z'
  6	'-x+.5, y+.5, -z'
  7	'x, y, -z'
  8	'-x, -y, -z'
  9	'-y+.5, -x+.5, z'
 10	'y+.5, x+.5, z'
 11	'y, -x, z'
 12	'-y, x, z'
 13	'-x+.5, y+.5, z'
 14	'x+.5, -y+.5, z'
 15	'-x, -y, z'
 16	'x, y, z'
loop_
_atom_type_symbol
_atom_type_oxidation_number
K1+	1
La3+	3
Nb5+	5
O2-	-2
loop_
_atom_site_label
_atom_site_type_symbol
_atom_site_symmetry_multiplicity
_atom_site_Wyckoff_symbol
_atom_site_fract_x
_atom_site_fract_y
_atom_site_fract_z
_atom_site_occupancy
_atom_site_attached_hydrogens
_atom_site_B_iso_or_equiv
La1 La3+ 2 b 0 0 0.5 1. 0 0.543(4) 
K1 K1+ 4 h 0.3282(1) 0.1718(1) 0.5 1. 0 2.04(2) 
Nb1 Nb5+ 2 d 0.5 0 0 1. 0 1.93(2) 
Nb2 Nb5+ 8 i 0.57541(4) 0.28455(4) 0 1. 0 0.598(6) 
O1 O2- 2 c 0.5 0 0.5 1. 0 1.95(8) 
O2 O2- 4 g 0.7161(4) 0.2161(4) 0 1. 0 1.05(6) 
O3 O2- 8 i 0.9977(4) 0.3436(3) 0 1. 0 1.43(7) 
O4 O2- 8 j 0.8039(4) 0.0750(4) 0.5 1. 0 1.51(8) 
O5 O2- 8 i 0.8666(4) 0.9373(3) 0 1. 0 1.2(7) 

#End of data_156433-ICSD


