data_249642-ICSD
#?2014 by Fachinformationszentrum Karlsruhe, and the U.S. Secretary of 
#Commerce on behalf of the United States.  All rights reserved.
_database_code_ICSD                249642
_audit_creation_date               2009/02/01
_chemical_name_systematic
;
Sodium Cerium Octaselenotetragallate
;
_chemical_formula_structural       'Na Ce Ga4 Se8'
_chemical_formula_sum              'Ce1 Ga4 Na1 Se8'
_publ_section_title
;
Synthesis, structure, and optical properties of the quaternary seleno-
gallates Na Ln Ga4 Se8 (Ln = La, Ce, Nd) and their comparison with 
the isostructural thio-gallates
;
loop_
_citation_id
_citation_journal_abbrev
_citation_year
_citation_journal_volume
_citation_journal_issue
_citation_page_first
_citation_page_last
_citation_journal_id_ASTM
primary 'Inorganic Chemistry' 2008 47 9 3603 3609 INOCAJ
_publ_author_name                  'Choudhury, A.;Dorhout, P.K.'
_cell_length_a                     21.141(1)
_cell_length_b                     21.138(1)
_cell_length_c                     12.712(1)
_cell_angle_alpha                  90.00
_cell_angle_beta                   90.00
_cell_angle_gamma                  90.00
_cell_volume                       5680.72
_cell_formula_units_Z              16
_symmetry_space_group_name_H-M     'F d d d Z'
_symmetry_Int_Tables_number        70
_refine_ls_R_factor_all            .0281
loop_
_symmetry_equiv_pos_site_id
_symmetry_equiv_pos_as_xyz
  1	'x+.75, y+.75, -z'
  2	'x+.75, -y, z+.75'
  3	'-x, y+.75, z+.75'
  4	'-x, -y, -z'
  5	'-x+.25, -y+.25, z'
  6	'-x+.25, y, -z+.25'
  7	'x, -y+.25, -z+.25'
  8	'x, y, z'
  9	'x+.75, y+.25, -z+.5'
 10	'x+.25, y+.75, -z+.5'
 11	'x+.25, y+.25, -z'
 12	'x+.75, -y+.5, z+.25'
 13	'x+.25, -y, z+.25'
 14	'x+.25, -y+.5, z+.75'
 15	'-x, y+.25, z+.25'
 16	'-x+.5, y+.75, z+.25'
 17	'-x+.5, y+.25, z+.75'
 18	'-x, -y+.5, -z+.5'
 19	'-x+.5, -y, -z+.5'
 20	'-x+.5, -y+.5, -z'
 21	'-x+.25, -y+.75, z+.5'
 22	'-x+.75, -y+.25, z+.5'
 23	'-x+.75, -y+.75, z'
 24	'-x+.25, y+.5, -z+.75'
 25	'-x+.75, y, -z+.75'
 26	'-x+.75, y+.5, -z+.25'
 27	'x, -y+.75, -z+.75'
 28	'x+.5, -y+.25, -z+.75'
 29	'x+.5, -y+.75, -z+.25'
 30	'x, y+.5, z+.5'
 31	'x+.5, y, z+.5'
 32	'x+.5, y+.5, z'
loop_
_atom_type_symbol
_atom_type_oxidation_number
Ce3+	3
Ga3+	3
Na1+	1
Se2-	-2
loop_
_atom_site_label
_atom_site_type_symbol
_atom_site_symmetry_multiplicity
_atom_site_Wyckoff_symbol
_atom_site_fract_x
_atom_site_fract_y
_atom_site_fract_z
_atom_site_occupancy
_atom_site_attached_hydrogens
_atom_site_U_iso_or_equiv
Ce1 Ce3+ 8 a 0.1250 0.1250 0.1250 1 0 0.01050(12) 
Ce2 Ce3+ 8 b 0.1250 0.1250 0.6250 1 0 0.01082(12) 
Na1 Na1+ 16 e 0.37804(13) 0.1250 0.1250 1 0 0.0284(7) 
Ga1 Ga3+ 32 h 0.75240(2) 0.48979(2) 0.12577(4) 1 0 0.01170(13) 
Ga2 Ga3+ 32 h 0.74950(2) 0.69497(2) 0.41580(4) 1 0 0.01192(13) 
Se1 Se2- 32 h 0.00222(2) 0.59229(2) 0.24813(3) 1 0 0.01247(12) 
Se2 Se2- 32 h 0.75129(2) 0.58380(2) 0.01511(3) 1 0 0.01091(12) 
Se3 Se2- 32 h 0.58653(2) 0.748414(19) 0.24527(3) 1 0 0.01174(12) 
Se4 Se2- 32 h 0.91302(2) 0.498406(19) 0.99771(3) 1 0 0.01155(12) 

loop_
_atom_site_aniso_label
_atom_site_aniso_type_symbol
_atom_site_aniso_U_11
_atom_site_aniso_U_22
_atom_site_aniso_U_33
_atom_site_aniso_U_12
_atom_site_aniso_U_13
_atom_site_aniso_U_23
Ce1 Ce3+ 0.0085(2) 0.0098(2) 0.0132(2) 0.000 0.000 0.000
Ce2 Ce3+ 0.0095(3) 0.0102(2) 0.0128(2) 0.000 0.000 0.000
Na1 Na1+ 0.0188(16) 0.0310(18) 0.0354(18) 0.000 0.000 -0.0047(12)
Ga1 Ga3+ 0.0134(3) 0.0113(3) 0.0104(2) 0.00139(17) -0.00016(19) 
-0.00078(19)
Ga2 Ga3+ 0.0128(3) 0.0121(3) 0.0108(2) -0.00097(19) 0.00058(19) 
-0.00149(19)
Se1 Se2- 0.0162(3) 0.0102(2) 0.0110(2) -0.00008(17) 0.00201(17) 0.00127(16)
Se2 Se2- 0.0128(3) 0.0106(2) 0.0093(2) 0.00092(16) 0.00062(16) -0.00066(16)
Se3 Se2- 0.0089(3) 0.0143(3) 0.0120(2) 0.00054(17) 0.00035(17) -0.00191(16)
Se4 Se2- 0.0089(3) 0.0119(3) 0.0138(2) -0.00037(17) -0.00025(17) 
0.00007(16)
#End of data_249642-ICSD


