data_51246-ICSD
#?2014 by Fachinformationszentrum Karlsruhe, and the U.S. Secretary of 
#Commerce on behalf of the United States.  All rights reserved.
_database_code_ICSD                51246
_audit_creation_date               2002/04/01
_chemical_name_systematic          'Magnesium Chloride'
_chemical_formula_structural       'Mg Cl2'
_chemical_formula_sum              'Cl2 Mg1'
_publ_section_title
;
Determination of structure candidates of simple crystalline A B2 
systems
;
loop_
_citation_id
_citation_journal_abbrev
_citation_year
_citation_journal_volume
_citation_page_first
_citation_page_last
_citation_journal_id_ASTM
primary 'Journal of Solid State Chemistry' 1998 136 233 246 JSSCBI
_publ_author_name
;
Wevers, M.A.C.;Schoen, J.C.;Jansen, M.
;
_cell_length_a                     7.317
_cell_length_b                     6.006
_cell_length_c                     6.038
_cell_angle_alpha                  90.
_cell_angle_beta                   90.
_cell_angle_gamma                  90.
_cell_volume                       265.35
_cell_formula_units_Z              4
_symmetry_space_group_name_H-M     'A m a 2'
_symmetry_Int_Tables_number        40
loop_
_symmetry_equiv_pos_site_id
_symmetry_equiv_pos_as_xyz
  1	'x+.5, -y, z'
  2	'-x+.5, y, z'
  3	'-x, -y, z'
  4	'x, y, z'
  5	'x+.5, -y+.5, z+.5'
  6	'-x+.5, y+.5, z+.5'
  7	'-x, -y+.5, z+.5'
  8	'x, y+.5, z+.5'
loop_
_atom_type_symbol
_atom_type_oxidation_number
Cl1-	-1
Mg2+	2
loop_
_atom_site_label
_atom_site_type_symbol
_atom_site_symmetry_multiplicity
_atom_site_Wyckoff_symbol
_atom_site_fract_x
_atom_site_fract_y
_atom_site_fract_z
_atom_site_occupancy
_atom_site_attached_hydrogens
Mg1 Mg2+ 4 b 0.25 0.993 0.949 1. 0 
Cl1 Cl1- 4 b 0.25 0.165 0.426 1. 0 
Cl2 Cl1- 4 a 0 0 0.277 1. 0 

#End of data_51246-ICSD


