data_35540-ICSD
#?2014 by Fachinformationszentrum Karlsruhe, and the U.S. Secretary of 
#Commerce on behalf of the United States.  All rights reserved.
_database_code_ICSD                35540
_audit_creation_date               1980/01/01
_audit_update_record               2012/08/01
_chemical_name_systematic          'Silver Oxide'
_chemical_formula_structural       'Ag2 O'
_chemical_formula_sum              'Ag2 O1'
_publ_section_title
;
The crystal structure of silver oxide (Ag2 O)
;
loop_
_citation_id
_citation_journal_abbrev
_citation_year
_citation_journal_volume
_citation_page_first
_citation_page_last
_citation_journal_id_ASTM
primary 'American Journal of Science, Serie 5(1,1921-1938)'
 1922 3 184 188 AJSC5L
_publ_author_name                  'Wyckoff, R.W.G.'
_cell_length_a                     4.76
_cell_length_b                     4.76
_cell_length_c                     4.76
_cell_angle_alpha                  90.
_cell_angle_beta                   90.
_cell_angle_gamma                  90.
_cell_volume                       107.85
_cell_formula_units_Z              2
_symmetry_space_group_name_H-M     'P n -3 m S'
_symmetry_Int_Tables_number        224
loop_
_symmetry_equiv_pos_site_id
_symmetry_equiv_pos_as_xyz
  1	'y+.5, x+.5, -z+.5'
  2	'z+.5, x+.5, -y+.5'
  3	'z+.5, y+.5, -x+.5'
  4	'y+.5, z+.5, -x+.5'
  5	'x+.5, z+.5, -y+.5'
  6	'x+.5, y+.5, -z+.5'
  7	'y+.5, -x+.5, z+.5'
  8	'z+.5, -x+.5, y+.5'
  9	'z+.5, -y+.5, x+.5'
 10	'y+.5, -z+.5, x+.5'
 11	'x+.5, -z+.5, y+.5'
 12	'x+.5, -y+.5, z+.5'
 13	'-y+.5, x+.5, z+.5'
 14	'-z+.5, x+.5, y+.5'
 15	'-z+.5, y+.5, x+.5'
 16	'-y+.5, z+.5, x+.5'
 17	'-x+.5, z+.5, y+.5'
 18	'-x+.5, y+.5, z+.5'
 19	'-y+.5, -x+.5, -z+.5'
 20	'-z+.5, -x+.5, -y+.5'
 21	'-z+.5, -y+.5, -x+.5'
 22	'-y+.5, -z+.5, -x+.5'
 23	'-x+.5, -z+.5, -y+.5'
 24	'-x+.5, -y+.5, -z+.5'
 25	'-y, -x, z'
 26	'-z, -x, y'
 27	'-z, -y, x'
 28	'-y, -z, x'
 29	'-x, -z, y'
 30	'-x, -y, z'
 31	'-y, x, -z'
 32	'-z, x, -y'
 33	'-z, y, -x'
 34	'-y, z, -x'
 35	'-x, z, -y'
 36	'-x, y, -z'
 37	'y, -x, -z'
 38	'z, -x, -y'
 39	'z, -y, -x'
 40	'y, -z, -x'
 41	'x, -z, -y'
 42	'x, -y, -z'
 43	'y, x, z'
 44	'z, x, y'
 45	'z, y, x'
 46	'y, z, x'
 47	'x, z, y'
 48	'x, y, z'
loop_
_atom_type_symbol
_atom_type_oxidation_number
Ag1+	1
O2-	-2
loop_
_atom_site_label
_atom_site_type_symbol
_atom_site_symmetry_multiplicity
_atom_site_Wyckoff_symbol
_atom_site_fract_x
_atom_site_fract_y
_atom_site_fract_z
_atom_site_occupancy
_atom_site_attached_hydrogens
O1 O2- 2 a 0 0 0 1. 0 
Ag1 Ag1+ 4 b 0.25 0.25 0.25 1. 0 

#End of data_35540-ICSD


