data_605476-ICSD
#?2014 by Fachinformationszentrum Karlsruhe, and the U.S. Secretary of 
#Commerce on behalf of the United States.  All rights reserved.
_database_code_ICSD                605476
_audit_creation_date               2010/02/01
_chemical_name_systematic          'Silver Indium Telluride'
_chemical_formula_structural       'Ag In Te2'
_chemical_formula_sum              'Ag1 In1 Te2'
_publ_section_title
;
Thermoelectric behaviour of the semiconducting system Cux Ag1-x In 
Te2
;
loop_
_citation_id
_citation_journal_abbrev
_citation_year
_citation_journal_volume
_citation_page_first
_citation_page_last
_citation_journal_id_ASTM
primary 'Metallurgical Society Conferences, Proceedings'
 1962 15 263 283 MSCOA6
2 'Nuovo Cimento della Societa Italiana di Fisica, Sezione D'
 1983 2 1858 1868 NCSDDN
_publ_author_name                  'Zalar, S.M.'
_cell_length_a                     6.401(9)
_cell_length_b                     6.401(9)
_cell_length_c                     12.613(4)
_cell_angle_alpha                  90.0
_cell_angle_beta                   90.0
_cell_angle_gamma                  90.0
_cell_volume                       516.79
_cell_formula_units_Z              4
_symmetry_space_group_name_H-M     'I -4 2 d'
_symmetry_Int_Tables_number        122
loop_
_symmetry_equiv_pos_site_id
_symmetry_equiv_pos_as_xyz
  1	'-y, -x+.5, z+.25'
  2	'y, -x, -z'
  3	'y, x+.5, z+.25'
  4	'-y, x, -z'
  5	'x, -y+.5, -z+.25'
  6	'-x, -y, z'
  7	'-x, y+.5, -z+.25'
  8	'x, y, z'
  9	'-y+.5, -x, z+.75'
 10	'y+.5, -x+.5, -z+.5'
 11	'y+.5, x, z+.75'
 12	'-y+.5, x+.5, -z+.5'
 13	'x+.5, -y, -z+.75'
 14	'-x+.5, -y+.5, z+.5'
 15	'-x+.5, y, -z+.75'
 16	'x+.5, y+.5, z+.5'
loop_
_atom_type_symbol
_atom_type_oxidation_number
Ag1+	1
In3+	3
Te2-	-2
loop_
_atom_site_label
_atom_site_type_symbol
_atom_site_symmetry_multiplicity
_atom_site_Wyckoff_symbol
_atom_site_fract_x
_atom_site_fract_y
_atom_site_fract_z
_atom_site_occupancy
_atom_site_attached_hydrogens
Ag1 Ag1+ 4 a 0 0 0 1. 0 
In1 In3+ 4 b 0 0 0.5 1. 0 
Te1 Te2- 8 d 0.262 0.25 0.125 1. 0 

#End of data_605476-ICSD


