data_25329-ICSD
#?2014 by Fachinformationszentrum Karlsruhe, and the U.S. Secretary of 
#Commerce on behalf of the United States.  All rights reserved.
_database_code_ICSD                25329
_audit_creation_date               1980/01/01
_chemical_name_systematic          'Dipotassium Tetraantimony Sulfide'
_chemical_formula_structural       'K2 Sb4 S7'
_chemical_formula_sum              'K2 S7 Sb4'
_publ_section_title
;
Darstellung und Kristallstruktur des K2 Sb4 S7
;
loop_
_citation_id
_citation_journal_abbrev
_citation_year
_citation_journal_volume
_citation_page_first
_citation_page_last
_citation_journal_id_ASTM
primary
;
Zeitschrift fuer Naturforschung, Teil B. Anorganische Chemie, 
Organische Chemie (2,1947-32,1977)
;
 1972 27 735 739 ZENBAX
_publ_author_name                  'Graf, H.A.;Schaefer, H.'
_cell_length_a                     10.13(2)
_cell_length_b                     7.95(2)
_cell_length_c                     17.63(3)
_cell_angle_alpha                  90.
_cell_angle_beta                   95.10(15)
_cell_angle_gamma                  90.
_cell_volume                       1414.18
_cell_formula_units_Z              4
_symmetry_space_group_name_H-M     'C 1 2/c 1'
_symmetry_Int_Tables_number        15
_refine_ls_R_factor_all            .121
loop_
_symmetry_equiv_pos_site_id
_symmetry_equiv_pos_as_xyz
  1	'x, -y, z+.5'
  2	'-x, -y, -z'
  3	'-x, y, -z+.5'
  4	'x, y, z'
  5	'x+.5, -y+.5, z+.5'
  6	'-x+.5, -y+.5, -z'
  7	'-x+.5, y+.5, -z+.5'
  8	'x+.5, y+.5, z'
loop_
_atom_type_symbol
_atom_type_oxidation_number
K1+	1
S2-	-2
Sb3+	3
loop_
_atom_site_label
_atom_site_type_symbol
_atom_site_symmetry_multiplicity
_atom_site_Wyckoff_symbol
_atom_site_fract_x
_atom_site_fract_y
_atom_site_fract_z
_atom_site_occupancy
_atom_site_attached_hydrogens
Sb1 Sb3+ 8 f 0.0072 0.1241 0.1193 1. 0 
Sb2 Sb3+ 8 f 0.1714 0.5249 0.4678 1. 0 
S1 S2- 8 f 0.0236 0.7031 0.0393 1. 0 
S2 S2- 8 f 0.3857 0.8732 0.1555 1. 0 
S3 S2- 8 f 0.2273 0.252 0.1289 1. 0 
S4 S2- 4 e 0 0.9932 0.25 1. 0 
K1 K1+ 8 f 0.1589 0.6157 0.2048 1. 0 

#End of data_25329-ICSD


