data_20476-ICSD
#?2014 by Fachinformationszentrum Karlsruhe, and the U.S. Secretary of 
#Commerce on behalf of the United States.  All rights reserved.
_database_code_ICSD                20476
_audit_creation_date               1980/01/01
_audit_update_record               2010/08/01
_chemical_name_systematic          'Sodium Samarium Silicate'
_chemical_formula_structural       'Na Sm (Si O4)'
_chemical_formula_sum              'Na1 O4 Si1 Sm1'
_publ_section_title
;
The crystal structure of Na Sm Si O4
;
loop_
_citation_id
_citation_journal_abbrev
_citation_year
_citation_journal_volume
_citation_page_first
_citation_page_last
_citation_journal_id_ASTM
primary 'Doklady Akademii Nauk SSSR' 1967 177 574 577 DANKAS
_publ_author_name
;
Chichagov, A.V.;Ilyukhin, V.V.;Belov, N.V.
;
_cell_length_a                     11.8
_cell_length_b                     11.8
_cell_length_c                     5.45
_cell_angle_alpha                  90.
_cell_angle_beta                   90.
_cell_angle_gamma                  90.
_cell_volume                       758.86
_cell_formula_units_Z              8
_symmetry_space_group_name_H-M     'I 4/m'
_symmetry_Int_Tables_number        87
_refine_ls_R_factor_all            .14
loop_
_symmetry_equiv_pos_site_id
_symmetry_equiv_pos_as_xyz
  1	'-y, x, -z'
  2	'y, -x, -z'
  3	'x, y, -z'
  4	'-x, -y, -z'
  5	'y, -x, z'
  6	'-y, x, z'
  7	'-x, -y, z'
  8	'x, y, z'
  9	'-y+.5, x+.5, -z+.5'
 10	'y+.5, -x+.5, -z+.5'
 11	'x+.5, y+.5, -z+.5'
 12	'-x+.5, -y+.5, -z+.5'
 13	'y+.5, -x+.5, z+.5'
 14	'-y+.5, x+.5, z+.5'
 15	'-x+.5, -y+.5, z+.5'
 16	'x+.5, y+.5, z+.5'
loop_
_atom_type_symbol
_atom_type_oxidation_number
Na1+	1
O2-	-2
Si4+	4
Sm3+	3
loop_
_atom_site_label
_atom_site_type_symbol
_atom_site_symmetry_multiplicity
_atom_site_Wyckoff_symbol
_atom_site_fract_x
_atom_site_fract_y
_atom_site_fract_z
_atom_site_occupancy
_atom_site_attached_hydrogens
_atom_site_B_iso_or_equiv
Na1 Na1+ 8 h 0.41 0.106 0.5 1. 0 -.37 
Sm1 Sm3+ 8 h 0.185 0.117 0 1. 0 -.37 
Si1 Si4+ 8 h 0.102 0.249 0.5 1. 0 -.37 
O1 O2- 16 i 0.044 0.2 0.258 1. 0 -.37 
O2 O2- 8 h 0.389 0.11 0 1. 0 -.37 
O3 O2- 8 h 0.237 0.201 0.5 1. 0 -.37 

#End of data_20476-ICSD


