data_24036-ICSD
#?2014 by Fachinformationszentrum Karlsruhe, and the U.S. Secretary of 
#Commerce on behalf of the United States.  All rights reserved.
_database_code_ICSD                24036
_audit_creation_date               1980/01/01
_audit_update_record               2010/02/01
_chemical_name_systematic          'Trimagnesium Bis(borate)'
_chemical_formula_structural       'Mg3 (B O3)2'
_chemical_formula_sum              'B2 Mg3 O6'
_chemical_name_mineral             Kotoite
_publ_section_title
;
The crystal strucutre of the isomorphous orthoborates of cobalt and 
magnesium
;
loop_
_citation_id
_citation_journal_abbrev
_citation_year
_citation_journal_volume
_citation_page_first
_citation_page_last
_citation_journal_id_ASTM
primary 'Acta Chemica Scandinavica (1-27,1973-42,1988)' 1949 3 660 675 ACSAA4
_publ_author_name                  'Berger, S.V.'
_cell_length_a                     4.497(2)
_cell_length_b                     5.398(2)
_cell_length_c                     8.416(2)
_cell_angle_alpha                  90.
_cell_angle_beta                   90.
_cell_angle_gamma                  90.
_cell_volume                       204.3
_cell_formula_units_Z              2
_symmetry_space_group_name_H-M     'P n n m'
_symmetry_Int_Tables_number        58
loop_
_symmetry_equiv_pos_site_id
_symmetry_equiv_pos_as_xyz
  1	'x+.5, -y+.5, z+.5'
  2	'-x+.5, y+.5, z+.5'
  3	'x, y, -z'
  4	'-x, -y, -z'
  5	'-x+.5, y+.5, -z+.5'
  6	'x+.5, -y+.5, -z+.5'
  7	'-x, -y, z'
  8	'x, y, z'
loop_
_atom_type_symbol
_atom_type_oxidation_number
B3+	3
Mg2+	2
O2-	-2
loop_
_atom_site_label
_atom_site_type_symbol
_atom_site_symmetry_multiplicity
_atom_site_Wyckoff_symbol
_atom_site_fract_x
_atom_site_fract_y
_atom_site_fract_z
_atom_site_occupancy
_atom_site_attached_hydrogens
Mg1 Mg2+ 2 a 0.5 0.5 0.5 1. 0 
Mg2 Mg2+ 4 f 0.5 0 0.321 1. 0 
B1 B3+ 4 g 0.56 0.25 0 1. 0 
O1 O2- 4 g 0.258 0.316 0 1. 0 
O2 O2- 8 h 0.705 0.218 0.139 1. 0 

#End of data_24036-ICSD


