data_163663-ICSD
#?2014 by Fachinformationszentrum Karlsruhe, and the U.S. Secretary of 
#Commerce on behalf of the United States.  All rights reserved.
_database_code_ICSD                163663
_audit_creation_date               2009/08/01
_chemical_name_systematic          'Calcium Titanate'
_chemical_formula_structural       'Ca (Ti O3)'
_chemical_formula_sum              'Ca1 O3 Ti1'
_publ_section_title
;
Parameterization of the crystal structures of centrosymmetric zone-
boundary-tilted perovskites: an analysis in terms of symmetry-adapted 
basis-vectors of the cubic aristotype phase
;
loop_
_citation_id
_citation_journal_abbrev
_citation_year
_citation_journal_volume
_citation_page_first
_citation_page_last
_citation_journal_id_ASTM
primary 'Canadian Mineralogist' 2009 47 381 400 CAMIA6
_publ_author_name                  'Knight, K.S.'
_cell_length_a                     5.38095(2)
_cell_length_b                     5.43710(2)
_cell_length_c                     7.64208(5)
_cell_angle_alpha                  90.
_cell_angle_beta                   90.
_cell_angle_gamma                  90.
_cell_volume                       223.58
_cell_formula_units_Z              4
_symmetry_space_group_name_H-M     'P b n m'
_symmetry_Int_Tables_number        62
_refine_ls_R_factor_all            .036
loop_
_symmetry_equiv_pos_site_id
_symmetry_equiv_pos_as_xyz
  1	'-x+.5, y+.5, z'
  2	'x, y, -z+.5'
  3	'x+.5, -y+.5, z+.5'
  4	'-x, -y, -z'
  5	'x+.5, -y+.5, -z'
  6	'-x, -y, z+.5'
  7	'-x+.5, y+.5, -z+.5'
  8	'x, y, z'
loop_
_atom_type_symbol
_atom_type_oxidation_number
Ca2+	2
O2-	-2
Ti4+	4
loop_
_atom_site_label
_atom_site_type_symbol
_atom_site_symmetry_multiplicity
_atom_site_Wyckoff_symbol
_atom_site_fract_x
_atom_site_fract_y
_atom_site_fract_z
_atom_site_occupancy
_atom_site_attached_hydrogens
_atom_site_U_iso_or_equiv
Ca1 Ca2+ 4 c 0.0061(2) 0.5354(2) 0.250 1. 0 0.0101(2) 
Ti1 Ti4+ 4 a 0 0 0 1. 0 0.0085(2) 
O1 O2- 4 c -0.0720(1) -0.0162(1) 0.250 1. 0 0.0092(5) 
O2 O2- 8 d 0.21044(6) 0.28916(6) 0.03720(7) 1. 0 0.0093(3) 

#End of data_163663-ICSD


