data_83427-ICSD
#?2014 by Fachinformationszentrum Karlsruhe, and the U.S. Secretary of 
#Commerce on behalf of the United States.  All rights reserved.
_database_code_ICSD                83427
_audit_creation_date               1998/06/26
_chemical_name_systematic          'Disodium Zinc Catena-disilicate'
_chemical_formula_structural       'Na2 Zn (Si2 O6)'
_chemical_formula_sum              'Na2 O6 Si2 Zn1'
_publ_section_title
;
Determination of the substructure of Na2 Zn Si2 O6, synthesised in 
the solid state
;
loop_
_citation_id
_citation_journal_abbrev
_citation_year
_citation_journal_volume
_citation_page_first
_citation_page_last
_citation_journal_id_ASTM
primary 'Acta Chemica Scandinavica (43,1989-)' 1997 51 259 263 ACHSE7
_publ_author_name                  'Grins, J.;Werner, P.E.;Kanno, Y.'
_cell_length_a                     6.176(1)
_cell_length_b                     9.413(1)
_cell_length_c                     9.790(1)
_cell_angle_alpha                  90.
_cell_angle_beta                   93.7(1)
_cell_angle_gamma                  90.
_cell_volume                       567.95
_cell_formula_units_Z              4
_symmetry_space_group_name_H-M     'C 1 2/c 1'
_symmetry_Int_Tables_number        15
_refine_ls_R_factor_all            .099
loop_
_symmetry_equiv_pos_site_id
_symmetry_equiv_pos_as_xyz
  1	'x, -y, z+.5'
  2	'-x, -y, -z'
  3	'-x, y, -z+.5'
  4	'x, y, z'
  5	'x+.5, -y+.5, z+.5'
  6	'-x+.5, -y+.5, -z'
  7	'-x+.5, y+.5, -z+.5'
  8	'x+.5, y+.5, z'
loop_
_atom_type_symbol
_atom_type_oxidation_number
Na1+	1
O2-	-2
Si4+	4
Zn2+	2
loop_
_atom_site_label
_atom_site_type_symbol
_atom_site_symmetry_multiplicity
_atom_site_Wyckoff_symbol
_atom_site_fract_x
_atom_site_fract_y
_atom_site_fract_z
_atom_site_occupancy
_atom_site_attached_hydrogens
_atom_site_B_iso_or_equiv
Zn1 Zn2+ 4 e 0 0.715(2) 0.25 1. 0 0.3(3) 
Si1 Si4+ 8 f 0.145(4) 0.997(3) 0.634(2) 1. 0 2.4(7) 
Na1 Na1+ 8 f 0.547(5) 0.180(3) 0.592(3) 1. 0 3.2(9) 
O1 O2- 4 a 0 0 0 1. 0 5.(1) 
O2 O2- 4 e 0 0.065(8) 0.25 1. 0 5.(1) 
O3 O2- 8 f 0.148(8) 0.607(6) 0.386(5) 1. 0 5.(1) 
O4 O2- 8 f 0.197(8) 0.151(6) 0.670(6) 1. 0 5.(1) 

#End of data_83427-ICSD


