data_87422-ICSD
#?2014 by Fachinformationszentrum Karlsruhe, and the U.S. Secretary of 
#Commerce on behalf of the United States.  All rights reserved.
_database_code_ICSD                87422
_audit_creation_date               2000/12/16
_chemical_name_systematic          'Lithium Cobalt Phosphate(V)'
_chemical_formula_structural       'Li Co (P O4)'
_chemical_formula_sum              'Co1 Li1 O4 P1'
_chemical_name_mineral             Unnamed_Olivine
_publ_section_title
;
Synthesis and structural study of the Li1-3x Fex Co P O4 (x=0-0.10) 
solid solution related to the litiophylite-triphylite family
;
loop_
_citation_id
_citation_journal_abbrev
_citation_year
_citation_journal_volume
_citation_page_first
_citation_page_last
_citation_journal_id_ASTM
primary 'Anales de Quimica International Edition' 1998 94 383 387 AQIEFZ
_publ_author_name
;
Pujana, A.;Pizarro, J.L.;Goni, A.;Rojo, T.;Arriortua, M.I.
;
_cell_length_a                     10.2021(3)
_cell_length_b                     5.9227(2)
_cell_length_c                     4.7003(1)
_cell_angle_alpha                  90.
_cell_angle_beta                   90.
_cell_angle_gamma                  90.
_cell_volume                       284.01
_cell_formula_units_Z              4
_symmetry_space_group_name_H-M     'P n m a'
_symmetry_Int_Tables_number        62
_refine_ls_R_factor_all            .049
loop_
_symmetry_equiv_pos_site_id
_symmetry_equiv_pos_as_xyz
  1	'x+.5, y, -z+.5'
  2	'x, -y+.5, z'
  3	'-x+.5, y+.5, z+.5'
  4	'-x, -y, -z'
  5	'-x+.5, -y, z+.5'
  6	'-x, y+.5, -z'
  7	'x+.5, -y+.5, -z+.5'
  8	'x, y, z'
loop_
_atom_type_symbol
_atom_type_oxidation_number
Co2+	2
Li1+	1
O2-	-2
P5+	5
loop_
_atom_site_label
_atom_site_type_symbol
_atom_site_symmetry_multiplicity
_atom_site_Wyckoff_symbol
_atom_site_fract_x
_atom_site_fract_y
_atom_site_fract_z
_atom_site_occupancy
_atom_site_attached_hydrogens
_atom_site_B_iso_or_equiv
Li1 Li1+ 4 a 0.5 0.5 0.5 1. 0 2.4(3) 
Co1 Co2+ 4 c 0.27894(9) 0.25 0.9784(3) 1. 0 2.77(4) 
P1 P5+ 4 c 0.0949(2) 0.25 0.4168(4) 1. 0 2.91(6) 
O1 O2- 4 c 0.0950(2) 0.25 0.7416(9) 1. 0 3.0(1) 
O2 O2- 4 c 0.4542(5) 0.25 0.2109(8) 1. 0 2.4(1) 
O3 O2- 8 d 0.1643(4) 0.0488(5) 0.2832(5) 1. 0 2.45(8) 

#End of data_87422-ICSD


