data_96441-ICSD
#?2014 by Fachinformationszentrum Karlsruhe, and the U.S. Secretary of 
#Commerce on behalf of the United States.  All rights reserved.
_database_code_ICSD                96441
_audit_creation_date               2004/04/01
_audit_update_record               2012/02/01
_chemical_name_systematic
;
Dipotassium Bis(dioxouranium(VI)) Pentaoxotungstate Oxide
;
_chemical_formula_structural       'K2 (U O2)2 (W O5) O'
_chemical_formula_sum              'K2 O10 U2 W1'
_publ_section_title
;
Synthesis and crystal structure of new uranyl tungstates M2 (U O2) 
(W2 O8) (M = Na, K), M2 (U O2)2 (W O5) O (M = K, Rb) and Na10 (U O2)8 
(W5 O20) O8
;
loop_
_citation_id
_citation_journal_abbrev
_citation_year
_citation_journal_volume
_citation_page_first
_citation_page_last
_citation_journal_id_ASTM
primary 'Journal of Solid State Chemistry' 2003 172 305 318 JSSCBI
_publ_author_name
;
Obbade, S.;Dion, C.;Bekaert, E.;Yagoubi, S.;Saadi, M.;Abraham, F.
;
_cell_length_a                     8.083(4)
_cell_length_b                     28.724(5)
_cell_length_c                     9.012(4)
_cell_angle_alpha                  90
_cell_angle_beta                   102.14(1)
_cell_angle_gamma                  90
_cell_volume                       2045.58
_cell_formula_units_Z              8
_symmetry_space_group_name_H-M     'P 1 21/n 1'
_symmetry_Int_Tables_number        14
_refine_ls_R_factor_all            .037
loop_
_symmetry_equiv_pos_site_id
_symmetry_equiv_pos_as_xyz
  1	'-x+.5, y+.5, -z+.5'
  2	'-x, -y, -z'
  3	'x+.5, -y+.5, z+.5'
  4	'x, y, z'
loop_
_atom_type_symbol
_atom_type_oxidation_number
K1+	1
O2-	-2
U6+	6
W6+	6
loop_
_atom_site_label
_atom_site_type_symbol
_atom_site_symmetry_multiplicity
_atom_site_Wyckoff_symbol
_atom_site_fract_x
_atom_site_fract_y
_atom_site_fract_z
_atom_site_occupancy
_atom_site_attached_hydrogens
_atom_site_U_iso_or_equiv
U1 U6+ 4 e 0.4724(2) 0.06715(4) 0.9686(2) 1. 0 0.0135(4) 
U2 U6+ 4 e 0.6702(2) 0.16794(4) 0.2143(1) 1. 0 0.0129(4) 
U3 U6+ 4 e 0.0917(2) 0.09874(4) 0.5756(2) 1. 0 0.0160(4) 
U4 U6+ 4 e 0.3213(2) 0.18603(4) 0.8554(2) 1. 0 0.0137(4) 
W1 W6+ 4 e 0.9110(2) 0.21038(4) 0.5460(2) 1. 0 0.0137(4) 
W2 W6+ 4 e 0.7406(2) 0.03236(4) 0.3109(2) 1. 0 0.0178(5) 
K1 K1+ 4 e 0.5890(12) 0.1217(2) 0.6069(9) 1. 0 0.025(2) 
K2 K1+ 4 e 0.9127(13) 0.2524(3) 0.9611(9) 1. 0 0.039(3) 
K3 K1+ 4 e 0.7301(12) -0.0137(3) 0.6763(9) 1. 0 0.045(3) 
K4 K1+ 4 e 0.9854(13) 0.1020(3) 0.0121(9) 1. 0 0.041(3) 
O1 O2- 4 e 0.509(3) 0.1650(6) 0.323(2) 1. 0 0.002(5) 
O2 O2- 4 e 0.301(3) 0.0642(6) 0.072(2) 1. 0 0.012(5) 
O3 O2- 4 e 0.844(3) 0.1750(6) 0.115(3) 1. 0 0.016(6) 
O4 O2- 4 e 0.165(3) 0.1787(6) 0.968(3) 1. 0 0.017(6) 
O5 O2- 4 e 0.461(3) 0.1969(7) 0.728(3) 1. 0 0.014(6) 
O6 O2- 4 e 0.643(3) 0.0660(7) 0.859(3) 1. 0 0.019(6) 
O7 O2- 4 e 0.869(3) 0.1528(7) 0.443(2) 1. 0 0.011(5) 
O8 O2- 4 e 0.946(3) 0.0877(7) 0.693(3) 1. 0 0.031(7) 
O9 O2- 4 e 0.796(3) 0.2091(8) 0.685(3) 1. 0 0.035(7) 
O10 O2- 4 e 0.612(3) 0.0451(8) 0.444(3) 1. 0 0.035(7) 
O11 O2- 4 e 0.241(3) 0.1097(8) 0.455(3) 1. 0 0.035(7) 
O12 O2- 4 e 0.293(3) 0.1089(7) 0.780(2) 1. 0 0.016(6) 
O13 O2- 4 e 0.610(3) 0.0052(7) 0.135(3) 1. 0 0.025(6) 
O14 O2- 4 e 0.764(3) 0.2347(7) 0.368(3) 1. 0 0.018(6) 
O15 O2- 4 e 0.505(3) 0.1437(7) 0.013(3) 1. 0 0.018(6) 
O16 O2- 4 e 0.680(3) 0.0874(7) 0.188(3) 1. 0 0.024(6) 
O17 O2- 4 e 0.105(3) 0.1812(7) 0.638(3) 1. 0 0.021(6) 
O18 O2- 4 e 0.013(3) 0.2680(7) 0.567(2) 1. 0 0.017(6) 
O19 O2- 4 e 0.799(3) -0.0276(7) 0.373(3) 1. 0 0.027(6) 
O20 O2- 4 e 0.952(3) 0.0551(7) 0.359(3) 1. 0 0.031(7) 

#End of data_96441-ICSD


