data_246302-ICSD
#?2014 by Fachinformationszentrum Karlsruhe, and the U.S. Secretary of 
#Commerce on behalf of the United States.  All rights reserved.
_database_code_ICSD                246302
_audit_creation_date               2009/08/01
_chemical_name_systematic          'Dilithium Selenate(VI)'
_chemical_formula_structural       'Li2 (Se O4)'
_chemical_formula_sum              'Li2 O4 Se1'
_publ_section_title
;
Structure of dilithium selenate(VI)
;
loop_
_citation_id
_citation_journal_abbrev
_citation_year
_citation_journal_volume
_citation_journal_issue
_citation_page_first
_citation_page_last
_citation_journal_id_ASTM
primary 'Acta Crystallographica, Section C: Crystal Structure Communications'
 1989 45 1 158 159 ACSCEE
_publ_author_name                  'Pertlik, F.;Fuith, A.H.'
_cell_length_a                     13.967(1)
_cell_length_b                     13.967(1)
_cell_length_c                     9.342(1)
_cell_angle_alpha                  90.
_cell_angle_beta                   90.
_cell_angle_gamma                  120.
_cell_volume                       1578.25
_cell_formula_units_Z              18
_symmetry_space_group_name_H-M     'R -3 H'
_symmetry_Int_Tables_number        148
_refine_ls_R_factor_all            .032
loop_
_symmetry_equiv_pos_site_id
_symmetry_equiv_pos_as_xyz
  1	'x-y, x, -z'
  2	'y, -x+y, -z'
  3	'-x, -y, -z'
  4	'-x+y, -x, z'
  5	'-y, x-y, z'
  6	'x, y, z'
  7	'x-y+.6666, x+.3333, -z+.3333'
  8	'x-y+.3333, x+.6666, -z+.6666'
  9	'y+.6666, -x+y+.3333, -z+.3333'
 10	'y+.3333, -x+y+.6666, -z+.6666'
 11	'-x+.6666, -y+.3333, -z+.3333'
 12	'-x+.3333, -y+.6666, -z+.6666'
 13	'-x+y+.6666, -x+.3333, z+.3333'
 14	'-x+y+.3333, -x+.6666, z+.6666'
 15	'-y+.6666, x-y+.3333, z+.3333'
 16	'-y+.3333, x-y+.6666, z+.6666'
 17	'x+.6666, y+.3333, z+.3333'
 18	'x+.3333, y+.6666, z+.6666'
loop_
_atom_type_symbol
_atom_type_oxidation_number
Li1+	1
O2-	-2
Se6+	6
loop_
_atom_site_label
_atom_site_type_symbol
_atom_site_symmetry_multiplicity
_atom_site_Wyckoff_symbol
_atom_site_fract_x
_atom_site_fract_y
_atom_site_fract_z
_atom_site_occupancy
_atom_site_attached_hydrogens
_atom_site_U_iso_or_equiv
Li1 Li1+ 18 f 0.9797(4) 0.1917(4) 0.0845(5) 1. 0 0.0202 
Li2 Li1+ 18 f 0.9840(4) 0.1917(4) 0.4141(5) 1. 0 0.1697 
Se1 Se6+ 18 f 0.9854(1) 0.1978(1) 0.7495(1) 1. 0 0.0118 
O1 O2- 18 f 0.1104(2) 0.2156(2) 0.7504(2) 1. 0 0.0185 
O2 O2- 18 f -0.0045(2) 0.3196(1) 0.7512(2) 1. 0 0.0171 
O3 O2- 18 f 0.9189(2) 0.1282(2) 0.8928(2) 1. 0 0.0178 
O4 O2- 18 f 0.9223(2) 0.1297(2) 0.6046(2) 1. 0 0.0179 

#End of data_246302-ICSD


