data_245270-ICSD
#?2014 by Fachinformationszentrum Karlsruhe, and the U.S. Secretary of 
#Commerce on behalf of the United States.  All rights reserved.
_database_code_ICSD                245270
_audit_creation_date               2007/08/01
_chemical_name_systematic          'Cerium(III) Aluminium Oxide'
_chemical_formula_structural       'Ce Al O3'
_chemical_formula_sum              'Al1 Ce1 O3'
_publ_section_title
;
"Unusual" phase transition in Ce Al O3
;
loop_
_citation_id
_citation_journal_abbrev
_citation_year
_citation_journal_volume
_citation_journal_issue
_citation_page_first
_citation_page_last
_citation_journal_id_ASTM
primary 'Journal of Solid State Chemistry' 2006 179 8 2732 2738 JSSCBI
_publ_author_name                  'Fu, W.T.;Ijdo, D.J.W.'
_cell_length_a                     5.37769(2)
_cell_length_b                     5.37769(2)
_cell_length_c                     5.37769(2)
_cell_angle_alpha                  60.062(1)
_cell_angle_beta                   60.062(1)
_cell_angle_gamma                  60.062(1)
_cell_volume                       110.12
_cell_formula_units_Z              2
_symmetry_space_group_name_H-M     'R -3 c R'
_symmetry_Int_Tables_number        167
loop_
_symmetry_equiv_pos_site_id
_symmetry_equiv_pos_as_xyz
  1	'-x+.5, -z+.5, -y+.5'
  2	'-z+.5, -y+.5, -x+.5'
  3	'-y+.5, -x+.5, -z+.5'
  4	'x+.5, z+.5, y+.5'
  5	'z+.5, y+.5, x+.5'
  6	'y+.5, x+.5, z+.5'
  7	'-z, -x, -y'
  8	'-y, -z, -x'
  9	'-x, -y, -z'
 10	'z, x, y'
 11	'y, z, x'
 12	'x, y, z'
loop_
_atom_type_symbol
_atom_type_oxidation_number
Al3+	3
Ce3+	3
O2-	-2
loop_
_atom_site_label
_atom_site_type_symbol
_atom_site_symmetry_multiplicity
_atom_site_Wyckoff_symbol
_atom_site_fract_x
_atom_site_fract_y
_atom_site_fract_z
_atom_site_occupancy
_atom_site_attached_hydrogens
_atom_site_U_iso_or_equiv
Al1 Al3+ 2 b 0 0 0 1. 0 0.0163(4) 
Ce1 Ce3+ 2 a 0.25 0.25 0.25 1. 0 0.0227(3) 
O1 O2- 6 e 0.77354(9) 0.72646(9) 0.25 1. 0 0.0267(2) 

#End of data_245270-ICSD


