data_26998-ICSD
#?2014 by Fachinformationszentrum Karlsruhe, and the U.S. Secretary of 
#Commerce on behalf of the United States.  All rights reserved.
_database_code_ICSD                26998
_audit_creation_date               1980/01/01
_audit_update_record               1988/01/22
_chemical_name_systematic          'Zinc Divanadium Oxide'
_chemical_formula_structural       'Zn V2 O6'
_chemical_formula_sum              'O6 V2 Zn1'
_publ_section_title
;
Structure cristalline de la phase Zn V2 O6
;
loop_
_citation_id
_citation_journal_abbrev
_citation_year
_citation_journal_volume
_citation_page_first
_citation_page_last
_citation_journal_id_ASTM
primary
;
Comptes Rendus Hebdomadaires des Seances de l`Academie des Sciences, 
Serie C, Sciences Chimiques (1966-)
;
 1968 267 227 230 CHDCAQ
_publ_author_name                  'Angenault, J.;Rimsky, A.'
_cell_length_a                     9.242(8)
_cell_length_b                     3.526(3)
_cell_length_c                     6.574(6)
_cell_angle_alpha                  90.
_cell_angle_beta                   111.55(25)
_cell_angle_gamma                  90.
_cell_volume                       199.25
_cell_formula_units_Z              2
_symmetry_space_group_name_H-M     'C 1 2 1'
_symmetry_Int_Tables_number        5
_refine_ls_R_factor_all            .102
loop_
_symmetry_equiv_pos_site_id
_symmetry_equiv_pos_as_xyz
  1	'-x, y, -z'
  2	'x, y, z'
  3	'-x+.5, y+.5, -z'
  4	'x+.5, y+.5, z'
loop_
_atom_type_symbol
_atom_type_oxidation_number
O2-	-2
V5+	5
Zn2+	2
loop_
_atom_site_label
_atom_site_type_symbol
_atom_site_symmetry_multiplicity
_atom_site_Wyckoff_symbol
_atom_site_fract_x
_atom_site_fract_y
_atom_site_fract_z
_atom_site_occupancy
_atom_site_attached_hydrogens
_atom_site_B_iso_or_equiv
Zn1 Zn2+ 2 a 0 0 0 1. 0 1.16 
V1 V5+ 4 c 0.309 0.517 0.347 1. 0 0.67 
O1 O2- 4 c 0.152 0.551 0.109 1. 0 1.23 
O2 O2- 4 c 0.47 0.525 0.284 1. 0 0.44 
O3 O2- 4 c 0.192 0.511 0.568 1. 0 1.93 

#End of data_26998-ICSD


