data_183914-ICSD
#?2014 by Fachinformationszentrum Karlsruhe, and the U.S. Secretary of 
#Commerce on behalf of the United States.  All rights reserved.
_database_code_ICSD                183914
_audit_creation_date               2012/08/01
_chemical_name_systematic          'Calcium Hexafluorosilicate'
_chemical_formula_structural       'Ca (Si F6)'
_chemical_formula_sum              'Ca1 F6 Si1'
_publ_section_title
;
Structural characterization of anhydrous and bishydrated calcium 
hexafluorosilicate by powder diffraction methods
;
loop_
_citation_id
_citation_journal_abbrev
_citation_year
_citation_journal_volume
_citation_journal_issue
_citation_page_first
_citation_page_last
_citation_journal_id_ASTM
primary 'Powder Diffraction' 2011 26 4 308 312 PODIE2
_publ_author_name
;
Frisoni, S.;Brenna, S.;Masciocchi, N.
;
_cell_length_a                     5.3497(3)
_cell_length_b                     5.3497(3)
_cell_length_c                     13.5831(11)
_cell_angle_alpha                  90.
_cell_angle_beta                   90.
_cell_angle_gamma                  120.
_cell_volume                       336.66
_cell_formula_units_Z              3
_symmetry_space_group_name_H-M     'R -3 H'
_symmetry_Int_Tables_number        148
_refine_ls_R_factor_all            .022
loop_
_symmetry_equiv_pos_site_id
_symmetry_equiv_pos_as_xyz
  1	'x-y, x, -z'
  2	'y, -x+y, -z'
  3	'-x, -y, -z'
  4	'-x+y, -x, z'
  5	'-y, x-y, z'
  6	'x, y, z'
  7	'x-y+.6666, x+.3333, -z+.3333'
  8	'x-y+.3333, x+.6666, -z+.6666'
  9	'y+.6666, -x+y+.3333, -z+.3333'
 10	'y+.3333, -x+y+.6666, -z+.6666'
 11	'-x+.6666, -y+.3333, -z+.3333'
 12	'-x+.3333, -y+.6666, -z+.6666'
 13	'-x+y+.6666, -x+.3333, z+.3333'
 14	'-x+y+.3333, -x+.6666, z+.6666'
 15	'-y+.6666, x-y+.3333, z+.3333'
 16	'-y+.3333, x-y+.6666, z+.6666'
 17	'x+.6666, y+.3333, z+.3333'
 18	'x+.3333, y+.6666, z+.6666'
loop_
_atom_type_symbol
_atom_type_oxidation_number
Ca2+	2
F1-	-1
Si4+	4
loop_
_atom_site_label
_atom_site_type_symbol
_atom_site_symmetry_multiplicity
_atom_site_Wyckoff_symbol
_atom_site_fract_x
_atom_site_fract_y
_atom_site_fract_z
_atom_site_occupancy
_atom_site_attached_hydrogens
_atom_site_B_iso_or_equiv
Ca1 Ca2+ 3 a 0 0 0 1. 0 0.79(9) 
Si1 Si4+ 3 b 0 0 0.5 1. 0 0.77(12) 
F1 F1- 18 f 0.3908(5) -0.0575(6) 0.2378(2) 1. 0 1.62(7) 

#End of data_183914-ICSD


