data_172755-ICSD
#?2014 by Fachinformationszentrum Karlsruhe, and the U.S. Secretary of 
#Commerce on behalf of the United States.  All rights reserved.
_database_code_ICSD                172755
_audit_creation_date               2007/08/01
_chemical_name_systematic
;
Lanthanum Zinc Titanium Oxide (1/0.5/0.5/3)
;
_chemical_formula_structural       'La Zn0.5 Ti0.5 O3'
_chemical_formula_sum              'La1 O3 Ti0.5 Zn0.5'
_chemical_name_mineral             Perovskite
_publ_section_title
;
Neutron and electron diffraction studies of La (Zn1/2 Ti1/2) O3 
perovskite
;
loop_
_citation_id
_citation_journal_abbrev
_citation_year
_citation_journal_volume
_citation_journal_issue
_citation_page_first
_citation_page_last
_citation_journal_id_ASTM
primary 'Acta Crystallographica, Section B: Structural Science'
 2006 62 4 521 529 ASBSDK
_publ_author_name                  'Ubic, R.;Hu Yi;Abrahams, I.'
_cell_length_a                     7.89497(5)
_cell_length_b                     5.59640(3)
_cell_length_c                     5.58089(3)
_cell_angle_alpha                  90
_cell_angle_beta                   90.034(1)
_cell_angle_gamma                  90
_cell_volume                       246.58
_cell_formula_units_Z              4
_symmetry_space_group_name_H-M     'P 1 21/n 1'
_symmetry_Int_Tables_number        14
_refine_ls_R_factor_all            .0783
loop_
_symmetry_equiv_pos_site_id
_symmetry_equiv_pos_as_xyz
  1	'-x+.5, y+.5, -z+.5'
  2	'-x, -y, -z'
  3	'x+.5, -y+.5, z+.5'
  4	'x, y, z'
loop_
_atom_type_symbol
_atom_type_oxidation_number
La3+	3
O2-	-2
Ti4+	4
Zn2+	2
loop_
_atom_site_label
_atom_site_type_symbol
_atom_site_symmetry_multiplicity
_atom_site_Wyckoff_symbol
_atom_site_fract_x
_atom_site_fract_y
_atom_site_fract_z
_atom_site_occupancy
_atom_site_attached_hydrogens
_atom_site_U_iso_or_equiv
La1 La3+ 4 e 0.250(2) 0.0330(9) 0.9933(2) 1 0 0.0168(2) 
Zn1 Zn2+ 2 c 0 0.5 0 1 0 0.0232(5) 
Ti1 Ti4+ 2 b 0 0 0.5 1 0 0.0160(4) 
O1 O2- 4 e 0.9605(3) 0.2059(3) 0.2234(3) 1 0 0.0155(4) 
O2 O2- 4 e 0.9593(3) 0.7211(3) 0.2971(3) 1 0 0.0200(5) 
O3 O2- 4 e 0.2415(3) 0.9837(1) 0.4224(2) 1 0 0.0144(3) 

#End of data_172755-ICSD


