data_417791-ICSD
#?2014 by Fachinformationszentrum Karlsruhe, and the U.S. Secretary of 
#Commerce on behalf of the United States.  All rights reserved.
_database_code_ICSD                417791
_audit_creation_date               2008/02/01
_chemical_name_systematic
;
Dipotassium Heptachloro Pentaoxo Triniobate(V)
;
_chemical_formula_structural       'K2 (Nb3 O5 Cl7)'
_chemical_formula_sum              'Cl7 K2 Nb3 O5'
_publ_section_title
;
On oxohalogeno niobates(V) M2 [Nb3 O5 X7]?(M?= N H4, K, Rb, Cs; X?= 
Cl, Br)?- new members of a compound family with a layered structure
;
loop_
_citation_id
_citation_journal_abbrev
_citation_year
_citation_journal_volume
_citation_journal_issue
_citation_page_first
_citation_page_last
_citation_journal_id_ASTM
primary 'Zeitschrift fuer Anorganische und Allgemeine Chemie (1950) (DE)'
 2007 633 5-6 757 762 ZAACAB
_publ_author_name
;
Beck, J.;Bordinhao, J.;Kusterer, C.
;
_cell_length_a                     16.7346(3)
_cell_length_b                     8.8558(2)
_cell_length_c                     11.0623(3)
_cell_angle_alpha                  90.00
_cell_angle_beta                   112.6610(10)
_cell_angle_gamma                  90.00
_cell_volume                       1512.85
_cell_formula_units_Z              4
_symmetry_space_group_name_H-M     'C 1 2/c 1'
_symmetry_Int_Tables_number        15
_refine_ls_R_factor_all            .0693
loop_
_symmetry_equiv_pos_site_id
_symmetry_equiv_pos_as_xyz
  1	'x, -y, z+.5'
  2	'-x, -y, -z'
  3	'-x, y, -z+.5'
  4	'x, y, z'
  5	'x+.5, -y+.5, z+.5'
  6	'-x+.5, -y+.5, -z'
  7	'-x+.5, y+.5, -z+.5'
  8	'x+.5, y+.5, z'
loop_
_atom_type_symbol
_atom_type_oxidation_number
Cl1-	-1
K1+	1
Nb5+	5
O2-	-2
loop_
_atom_site_label
_atom_site_type_symbol
_atom_site_symmetry_multiplicity
_atom_site_Wyckoff_symbol
_atom_site_fract_x
_atom_site_fract_y
_atom_site_fract_z
_atom_site_occupancy
_atom_site_attached_hydrogens
_atom_site_U_iso_or_equiv
Nb1 Nb5+ 8 f -0.00284(2) 0.21087(4) 0.02643(3) 1 0 0.01049(10) 
Nb2 Nb5+ 4 e 0.0000 0.46459(5) -0.2500 1 0 0.00983(12) 
Cl1 Cl1- 8 f 0.15297(7) 0.21477(13) 0.13468(12) 1 0 0.0288(3) 
Cl2 Cl1- 8 f -0.15799(7) 0.20699(13) -0.04652(11) 1 0 0.0267(2) 
Cl3 Cl1- 8 f 0.15303(7) 0.42574(13) -0.16132(11) 1 0 0.0255(2) 
Cl4 Cl1- 4 e 0.0000 0.08971(16) 0.2500 1 0 0.0237(3) 
O1 O2- 8 f -0.00196(19) 0.2831(3) -0.1216(3) 1 0 0.0167(6) 
O2 O2- 8 f -0.0025(2) 0.4012(3) 0.1240(3) 1 0 0.0166(6) 
O3 O2- 4 a 0.0000 0.0000 0.0000 1 0 0.0164(9) 
K1 K1+ 8 f 0.20584(13) -0.0357(2) 0.35729(15) 1 0 0.0702(5) 

loop_
_atom_site_aniso_label
_atom_site_aniso_type_symbol
_atom_site_aniso_U_11
_atom_site_aniso_U_22
_atom_site_aniso_U_33
_atom_site_aniso_U_12
_atom_site_aniso_U_13
_atom_site_aniso_U_23
Nb1 Nb5+ 0.01614(19) 0.00769(15) 0.00902(16) 0.00002(13) 0.00636(13) 
0.00082(13)
Nb2 Nb5+ 0.0147(3) 0.0064(2) 0.0097(2) 0.000 0.0062(2) 0.000
Cl1 Cl1- 0.0180(6) 0.0290(6) 0.0359(6) 0.0005(5) 0.0066(5) 0.0034(5)
Cl2 Cl1- 0.0173(5) 0.0302(6) 0.0311(6) -0.0001(5) 0.0077(5) 0.0029(5)
Cl3 Cl1- 0.0172(6) 0.0318(6) 0.0258(6) 0.0016(4) 0.0064(5) -0.0009(5)
Cl4 Cl1- 0.0475(11) 0.0128(6) 0.0154(7) 0.000 0.0170(7) 0.000
O1 O2- 0.0254(16) 0.0128(13) 0.0135(13) -0.0004(12) 0.0094(12) 0.0010(11)
O2 O2- 0.0260(17) 0.0105(13) 0.0151(14) 0.0009(12) 0.0099(13) -0.0010(11)
O3 O2- 0.031(2) 0.0059(17) 0.016(2) -0.0007(15) 0.0129(19) 0.0002(14)
K1 K1+ 0.0864(13) 0.0677(10) 0.0462(8) 0.0453(10) 0.0143(8) 0.0070(8)
#End of data_417791-ICSD


