data_75034-ICSD
#?2014 by Fachinformationszentrum Karlsruhe, and the U.S. Secretary of 
#Commerce on behalf of the United States.  All rights reserved.
_database_code_ICSD                75034
_audit_creation_date               1995/10/17
_audit_update_record               2000/07/15
_chemical_name_systematic
;
Calcium Copper Arsenate (1.5/1.5/2)
;
_chemical_formula_structural       'Ca1.5 Cu1.5 (As O4)2'
_chemical_formula_sum              'As2 Ca1.5 Cu1.5 O8'
_publ_section_title
;
Zur Kenntnis eines Calcium-Kupfer-Orthoarsenats: Ca1.5 Cu1.5 (As O4)2
;
loop_
_citation_id
_citation_journal_abbrev
_citation_year
_citation_journal_volume
_citation_page_first
_citation_page_last
_citation_journal_id_ASTM
primary 'Journal of Alloys and Compounds' 1994 206 155 158 JALCEU
_publ_author_name                  'Osterloh, D.;Mueller Buschbaum, H.'
_cell_length_a                     16.6089(90)
_cell_length_b                     5.056(4)
_cell_length_c                     8.950(6)
_cell_angle_alpha                  90.
_cell_angle_beta                   117.08(5)
_cell_angle_gamma                  90.
_cell_volume                       669.18
_cell_formula_units_Z              4
_symmetry_space_group_name_H-M     'P 1 21/a 1'
_symmetry_Int_Tables_number        14
_refine_ls_R_factor_all            .074
loop_
_symmetry_equiv_pos_site_id
_symmetry_equiv_pos_as_xyz
  1	'x+.5, -y+.5, z'
  2	'-x, -y, -z'
  3	'-x+.5, y+.5, -z'
  4	'x, y, z'
loop_
_atom_type_symbol
_atom_type_oxidation_number
As5+	5
Ca2+	2
Cu2+	2
O2-	-2
loop_
_atom_site_label
_atom_site_type_symbol
_atom_site_symmetry_multiplicity
_atom_site_Wyckoff_symbol
_atom_site_fract_x
_atom_site_fract_y
_atom_site_fract_z
_atom_site_occupancy
_atom_site_attached_hydrogens
_atom_site_B_iso_or_equiv
Ca1 Ca2+ 2 a 0 0 0 1. 0 1.49(8) 
Ca2 Ca2+ 4 e 0.7321(3) 0.9641(10) 0.6935(7) 1. 0 1.01(7) 
Cu1 Cu2+ 2 b 0.5 0 0.5 1. 0 0.98(6) 
Cu2 Cu2+ 4 e 0.8804(2) 0.9853(10) 0.2004(4) 1. 0 1.19(5) 
As1 As5+ 4 e 0.6544(2) 0.9986(10) 0.0363(3) 1. 0 1.07(4) 
As2 As5+ 4 e 0.5942(2) 0.5089(9) 0.4323(3) 1. 0 0.74(4) 
O1 O2- 4 e 0.764(1) 0.051(1) 0.184(1) 1. 0 0.93(10) 
O2 O2- 4 e 0.996(1) 0.062(1) 0.758(1) 1. 0 1.18(11) 
O3 O2- 4 e 0.923(1) 0.192(1) 0.422(1) 1. 0 0.66(10) 
O4 O2- 4 e 0.898(1) 0.692(1) 0.501(1) 1. 0 0.63(10) 
O5 O2- 4 e 0.810(1) 0.118(1) 0.559(1) 1. 0 0.69(10) 
O6 O2- 4 e 0.857(1) 0.596(1) 0.151(1) 1. 0 1.64(11) 
O7 O2- 4 e 0.908(1) 0.670(1) 0.898(1) 1. 0 1.29(11) 
O8 O2- 4 e 0.864(1) 0.165(1) 0.962(1) 1. 0 1.10(11) 

#End of data_75034-ICSD


