data_14107-ICSD
#?2014 by Fachinformationszentrum Karlsruhe, and the U.S. Secretary of 
#Commerce on behalf of the United States.  All rights reserved.
_database_code_ICSD                14107
_audit_creation_date               1980/12/31
_chemical_name_systematic          'Copper Tetrachloroaluminate'
_chemical_formula_structural       'Cu (Al Cl4)2'
_chemical_formula_sum              'Al2 Cl8 Cu1'
_publ_section_title
;
Cu Al2 Cl8. Darstellung und Kristallstruktur
;
loop_
_citation_id
_citation_journal_abbrev
_citation_year
_citation_journal_volume
_citation_page_first
_citation_page_last
_citation_journal_id_ASTM
primary 'Zeitschrift fuer Anorganische und Allgemeine Chemie (1950) (DE)'
 1980 461 31 34 ZAACAB
_publ_author_name
;
Schaefer, H.;Binnewies, M.;Laumanns, R.;Waechter, H.
;
_cell_length_a                     6.614(8)
_cell_length_b                     7.376(4)
_cell_length_c                     12.319(1)
_cell_angle_alpha                  90.
_cell_angle_beta                   94.11(9)
_cell_angle_gamma                  90.
_cell_volume                       599.44
_cell_formula_units_Z              2
_symmetry_space_group_name_H-M     'P 1 21/c 1'
_symmetry_Int_Tables_number        14
_refine_ls_R_factor_all            .051
loop_
_symmetry_equiv_pos_site_id
_symmetry_equiv_pos_as_xyz
  1	'x, -y+.5, z+.5'
  2	'-x, -y, -z'
  3	'-x, y+.5, -z+.5'
  4	'x, y, z'
loop_
_atom_type_symbol
_atom_type_oxidation_number
Al3+	3
Cl1-	-1
Cu2+	2
loop_
_atom_site_label
_atom_site_type_symbol
_atom_site_symmetry_multiplicity
_atom_site_Wyckoff_symbol
_atom_site_fract_x
_atom_site_fract_y
_atom_site_fract_z
_atom_site_occupancy
_atom_site_attached_hydrogens
Cu1 Cu2+ 2 a 0 0 0 1. 0 
Al1 Al3+ 4 e 0.1912(6) 0.2652(5) 0.1808(2) 1. 0 
Cl1 Cl1- 4 e 0.2998(5) 0.0133(4) 0.1081(2) 1. 0 
Cl2 Cl1- 4 e -.1663(6) -.2667(5) 0.1501(2) 1. 0 
Cl3 Cl1- 4 e 0.3567(6) 0.4869(5) 0.1365(3) 1. 0 
Cl4 Cl1- 4 e -.1115(5) 0.2443(4) 0.0943(2) 1. 0 

loop_
_atom_site_aniso_label
_atom_site_aniso_type_symbol
_atom_site_aniso_B_11
_atom_site_aniso_B_22
_atom_site_aniso_B_33
_atom_site_aniso_B_12
_atom_site_aniso_B_13
_atom_site_aniso_B_23
Cu1 Cu2+ 4.2(1) 4.3(1) 3.6(1) 0.6(1) -.8(1) -1.3(1)
Al1 Al3+ 4.1(2) 3.9(2) 2.9(1) -.1(2) 0.0(1) -.3(1)
Cl1 Cl1- 4.3(2) 4.9(1) 4.0(1) 0.9(1) -.7(1) -1.3(1)
Cl2 Cl1- 6.8(2) 5.1(1) 2.7(1) -.8(2) 0.6(1) 0.1(1)
Cl3 Cl1- 6.3(2) 5.3(2) 5.6(1) -1.7(2) -.2(1) 0.9(1)
Cl4 Cl1- 4.1(1) 4.2(1) 3.9(1) 0.6(1) -.30(11) -1.0
#End of data_14107-ICSD


