data_411714-ICSD
#?2014 by Fachinformationszentrum Karlsruhe, and the U.S. Secretary of 
#Commerce on behalf of the United States.  All rights reserved.
_database_code_ICSD                411714
_audit_creation_date               2002/10/01
_audit_update_record               2010/08/01
_chemical_name_systematic
;
Tetratelluridotetrabismuth Tetrakis(tetrachloroaluminate)
;
_chemical_formula_structural       '(Bi4 Te4) (Al Cl4)4'
_chemical_formula_sum              'Al4 Bi4 Cl16 Te4'
_publ_section_title
;
(Bi4 Te4)(4+) - a cube-shaped, polycationic main group element 
cluster
;
loop_
_citation_id
_citation_journal_abbrev
_citation_year
_citation_journal_volume
_citation_page_first
_citation_page_last
_citation_journal_id_ASTM
primary 'Angewandte Chemie. International Edition' 2001 40 2287 2290 ACIEF5
_publ_author_name                  'Beck, J.;Schlueter, S.;Dolg, M.'
_cell_length_a                     12.2726(6)
_cell_length_b                     12.2726(6)
_cell_length_c                     11.4535(7)
_cell_angle_alpha                  90.
_cell_angle_beta                   90.
_cell_angle_gamma                  90.
_cell_volume                       1725.09
_cell_formula_units_Z              2
_symmetry_space_group_name_H-M     'I -4'
_symmetry_Int_Tables_number        82
_refine_ls_R_factor_all            .028
loop_
_symmetry_equiv_pos_site_id
_symmetry_equiv_pos_as_xyz
  1	'-y, x, -z'
  2	'y, -x, -z'
  3	'-x, -y, z'
  4	'x, y, z'
  5	'-y+.5, x+.5, -z+.5'
  6	'y+.5, -x+.5, -z+.5'
  7	'-x+.5, -y+.5, z+.5'
  8	'x+.5, y+.5, z+.5'
loop_
_atom_type_symbol
_atom_type_oxidation_number
Al3+	3
Bi3+	3
Cl1-	-1
Te2-	-2
loop_
_atom_site_label
_atom_site_type_symbol
_atom_site_symmetry_multiplicity
_atom_site_Wyckoff_symbol
_atom_site_fract_x
_atom_site_fract_y
_atom_site_fract_z
_atom_site_occupancy
_atom_site_attached_hydrogens
Bi1 Bi3+ 8 g 0.55723(2) 0.16297(2) 0.37424(2) 1. 0 
Te1 Te2- 8 g 0.34293(4) 0.05515(4) 0.38905(4) 1. 0 
Cl1 Cl1- 8 g 0.1388(2) 0.4523(2) 0.3610(2) 1. 0 
Cl2 Cl1- 8 g 0.2963(2) 0.3167(2) 0.1455(2) 1. 0 
Cl3 Cl1- 8 g 0.3878(2) 0.3536(2) 0.4291(2) 1. 0 
Cl4 Cl1- 8 g 0.3650(2) 0.5776(2) 0.2320(3) 1. 0 
Al1 Al3+ 8 g 0.2996(2) 0.4283(2) 0.2888(2) 1. 0 

loop_
_atom_site_aniso_label
_atom_site_aniso_type_symbol
_atom_site_aniso_U_11
_atom_site_aniso_U_22
_atom_site_aniso_U_33
_atom_site_aniso_U_12
_atom_site_aniso_U_13
_atom_site_aniso_U_23
Bi1 Bi3+ 0.0279(2) 0.02578(15) 0.02983(15) -.00081(10) -.00078(12) 
-.00595(11)
Te1 Te2- 0.0230(3) 0.0310(3) 0.0292(2) 0.0033(2) 0.0035(2) -.0016(2)
Cl1 Cl1- 0.0309(9) 0.0689(14) 0.0329(9) 0.0107(8) 0.0014(8) 0.0014(12)
Cl2 Cl1- 0.0653(14) 0.0365(10) 0.0386(11) 0.0107(9) -.0026(10) -.0089(9)
Cl3 Cl1- 0.0451(12) 0.0409(11) 0.0430(11) 0.0155(8) -.0136(9) -.0009(9)
Cl4 Cl1- 0.068(2) 0.0302(11) 0.081(2) -.0066(10) 0.0124(14) 0.0110(11)
Al1 Al3+ 0.0319(12) 0.0236(11) 0.0330(11) 0.0047(9) 0.0016(9) 0.0004(9)
#End of data_411714-ICSD


