data_413482-ICSD
#?2014 by Fachinformationszentrum Karlsruhe, and the U.S. Secretary of 
#Commerce on behalf of the United States.  All rights reserved.
_database_code_ICSD                413482
_audit_creation_date               2006/10/01
_chemical_name_systematic
;
Calcium Bis(hydrogenselenate) Hydrate
;
_chemical_formula_structural       'Ca (H Se O4)2 (H2 O)'
_chemical_formula_sum              'H4 Ca1 O9 Se2'
_publ_section_title
;
Calcium leaching from glass in selenic acid. The crystal structure of 
calcium hydrogen selenates: Ca (H Se O4)2 * H2 O and Cs Ca (H Se O4)3
;
loop_
_citation_id
_citation_journal_abbrev
_citation_year
_citation_journal_volume
_citation_journal_issue
_citation_page_first
_citation_page_last
_citation_journal_id_ASTM
primary 'Zhurnal Neorganicheskoi Khimii' 2004 49 7 1061 1064 ZNOKAQ
_publ_author_name
;
Zakharov, M.A.;Troyanov, S.I.;Kemnitz, E.
;
_cell_length_a                     5.8390(10)
_cell_length_b                     15.199(3)
_cell_length_c                     8.163(2)
_cell_angle_alpha                  90.00
_cell_angle_beta                   91.99(3)
_cell_angle_gamma                  90.00
_cell_volume                       724
_cell_formula_units_Z              4
_symmetry_space_group_name_H-M     'P 1 21/c 1'
_symmetry_Int_Tables_number        14
_refine_ls_R_factor_all            .0253
loop_
_symmetry_equiv_pos_site_id
_symmetry_equiv_pos_as_xyz
  1	'x, -y+.5, z+.5'
  2	'-x, -y, -z'
  3	'-x, y+.5, -z+.5'
  4	'x, y, z'
loop_
_atom_type_symbol
_atom_type_oxidation_number
Ca2+	2
H1+	1
O2-	-2
Se6+	6
loop_
_atom_site_label
_atom_site_type_symbol
_atom_site_symmetry_multiplicity
_atom_site_Wyckoff_symbol
_atom_site_fract_x
_atom_site_fract_y
_atom_site_fract_z
_atom_site_occupancy
_atom_site_attached_hydrogens
_atom_site_U_iso_or_equiv
Se1 Se6+ 4 e 0.27785(5) 0.368052(16) 0.70610(3) 1 0 0.00388(8) 
Se2 Se6+ 4 e 0.23810(5) 0.425201(17) 0.22132(3) 1 0 0.00434(8) 
Ca1 Ca2+ 4 e 0.77364(10) 0.39645(3) 0.42348(5) 1 0 0.00540(13) 
O1 O2- 4 e 0.2734(4) 0.47252(12) 0.7573(2) 1 0 0.0098(4) 
O2 O2- 4 e 0.4934(4) 0.34183(12) 0.59690(19) 1 0 0.0100(4) 
O3 O2- 4 e 0.0283(3) 0.33581(13) 0.6335(2) 1 0 0.0083(4) 
O4 O2- 4 e 0.3099(4) 0.31257(14) 0.88826(19) 1 0 0.0104(4) 
O5 O2- 4 e 0.0081(3) 0.36666(13) 0.1866(2) 1 0 0.0088(4) 
O6 O2- 4 e 0.4735(3) 0.36905(12) 0.21793(19) 1 0 0.0086(4) 
O7 O2- 4 e 0.2081(4) 0.47641(13) 0.3965(2) 1 0 0.0109(4) 
O8 O2- 4 e 0.2450(4) 0.51054(13) 0.0826(3) 1 0 0.0097(5) 
O9 O2- 4 e 0.7642(4) 0.22966(14) 0.4065(3) 1 0 0.0103(4) 
H1 H1+ 4 e 0.445(8) 0.291(3) 0.894(4) 1 0 0.026(10) 
H2 H1+ 4 e 0.249(9) 0.493(3) 0.014(5) 1 0 0.041(15) 
H3 H1+ 4 e 0.819(7) 0.209(2) 0.337(4) 1 0 0.015(10) 
H4 H1+ 4 e 0.840(8) 0.206(3) 0.484(5) 1 0 0.033(11) 

loop_
_atom_site_aniso_label
_atom_site_aniso_type_symbol
_atom_site_aniso_U_11
_atom_site_aniso_U_22
_atom_site_aniso_U_33
_atom_site_aniso_U_12
_atom_site_aniso_U_13
_atom_site_aniso_U_23
Se1 Se6+ 0.00329(17) 0.00457(14) 0.00378(11) 0.00028(11) 0.00013(9) 
0.00036(9)
Se2 Se6+ 0.00432(17) 0.00476(15) 0.00396(12) 0.00050(11) 0.00036(9) 
-0.00018(9)
Ca1 Ca2+ 0.0051(4) 0.0063(3) 0.0048(2) 0.0000(2) 0.00002(19) -0.0003(2)
O1 O2- 0.0138(14) 0.0063(10) 0.0091(9) -0.0005(8) -0.0005(7) -0.0011(7)
O2 O2- 0.0091(13) 0.0124(10) 0.0088(8) 0.0017(8) 0.0062(7) 0.0002(7)
O3 O2- 0.0038(13) 0.0103(10) 0.0105(8) -0.0017(8) -0.0044(7) 0.0019(7)
O4 O2- 0.0094(14) 0.0166(11) 0.0052(8) 0.0060(9) 0.0000(7) 0.0054(7)
O5 O2- 0.0032(12) 0.0112(10) 0.0121(8) -0.0024(8) 0.0000(7) -0.0024(7)
O6 O2- 0.0053(12) 0.0101(10) 0.0103(8) 0.0021(8) -0.0016(7) -0.0025(7)
O7 O2- 0.0184(14) 0.0113(10) 0.0031(8) 0.0033(8) -0.0003(7) -0.0002(6)
O8 O2- 0.0180(14) 0.0062(10) 0.0048(8) 0.0000(8) -0.0003(8) 0.0027(8)
O9 O2- 0.0106(14) 0.0130(11) 0.0072(9) 0.0016(9) 0.0013(8) -0.0037(8)
#End of data_413482-ICSD


