data_33241-ICSD
#?2014 by Fachinformationszentrum Karlsruhe, and the U.S. Secretary of 
#Commerce on behalf of the United States.  All rights reserved.
_database_code_ICSD                33241
_audit_creation_date               1983/12/31
_audit_update_record               2012/08/01
_chemical_name_systematic
;
Potassium Lanthanum Cyclo-tetraphosphate
;
_chemical_formula_structural       'K La (P O3)4'
_chemical_formula_sum              'K1 La1 O12 P4'
_publ_section_title
;
Crystal structure of potassium lanthanum metaphosphate
;
loop_
_citation_id
_citation_journal_abbrev
_citation_year
_citation_journal_volume
_citation_page_first
_citation_page_last
_citation_journal_id_ASTM
primary 'Wu Li Hsueh Pao (= Acta Physica Sinica)' 1983 32 675 680 WLHPAR
_publ_author_name
;
Lin, Y.-H.;Hu, N.-H.;Zhou, Q.-L.;Liu, S.-Z.
;
_cell_length_a                     8.106(3)
_cell_length_b                     8.551(2)
_cell_length_c                     7.326(3)
_cell_angle_alpha                  90.
_cell_angle_beta                   92.18(6)
_cell_angle_gamma                  90.
_cell_volume                       507.43
_cell_formula_units_Z              2
_symmetry_space_group_name_H-M     'P 1 21 1'
_symmetry_Int_Tables_number        4
_refine_ls_R_factor_all            .061
loop_
_symmetry_equiv_pos_site_id
_symmetry_equiv_pos_as_xyz
  1	'-x, y+.5, -z'
  2	'x, y, z'
loop_
_atom_type_symbol
_atom_type_oxidation_number
K1+	1
La3+	3
O2-	-2
P5+	5
loop_
_atom_site_label
_atom_site_type_symbol
_atom_site_symmetry_multiplicity
_atom_site_Wyckoff_symbol
_atom_site_fract_x
_atom_site_fract_y
_atom_site_fract_z
_atom_site_occupancy
_atom_site_attached_hydrogens
La1 La3+ 2 a 0.2414 0.25 0.2334(1) 1. 0 
K1 K1+ 2 a 0.2798(3) 0.0534(4) 0.7267(3) 1. 0 
P1 P5+ 2 a 0.8923(3) 0.3236(3) 0.8952(3) 1. 0 
P2 P5+ 2 a 0.9001(3) 0.1267(3) 0.5667(3) 1. 0 
P3 P5+ 2 a 0.3935(3) 0.4949(3) 0.6248(3) 1. 0 
P4 P5+ 2 a 0.6202(3) 0.1005(3) 0.9987(3) 1. 0 
O1 O2- 2 a 0.8223(9) 0.4831(9) 0.9149(10) 1. 0 
O2 O2- 2 a 0.8668(8) 0.2801(7) 0.6853(9) 1. 0 
O3 O2- 2 a 0.7841(9) 0.2045(8) 0.0076(10) 1. 0 
O4 O2- 2 a 0.6135(7) 0.0019(8) 0.8277(8) 1. 0 
O5 O2- 2 a 0.0759(9) 0.4830(9) 0.3150(11) 1. 0 
O6 O2- 2 a 0.0327(10) 0.1558(9) 0.4379(12) 1. 0 
O7 O2- 2 a 0.4747(8) 0.2043(8) 0.0285(10) 1. 0 
O8 O2- 2 a 0.6563(8) 0.9857(8) 0.1666(7) 1. 0 
O9 O2- 2 a 0.7302(9) 0.1273(9) 0.4534(10) 1. 0 
O10 O2- 2 a 0.3499(9) 0.3410(8) 0.541(1) 1. 0 
O11 O2- 2 a 0.0673(7) 0.2954(7) 0.9567(9) 1. 0 
O12 O2- 2 a 0.4347(8) 0.0520(8) 0.3901(9) 1. 0 

#End of data_33241-ICSD


