data_93122-ICSD
#?2014 by Fachinformationszentrum Karlsruhe, and the U.S. Secretary of 
#Commerce on behalf of the United States.  All rights reserved.
_database_code_ICSD                93122
_audit_creation_date               2003/04/01
_chemical_name_systematic          'Aluminium Phosphate(V)'
_chemical_formula_structural       'Al (P O4)'
_chemical_formula_sum              'Al1 O4 P1'
_publ_section_title
;
Chemistry - structure - simulation or chemistry - simulation - 
structure sequences? the case of MIL-34, a new porous 
aluminophosphate
;
loop_
_citation_id
_citation_journal_abbrev
_citation_year
_citation_journal_volume
_citation_page_first
_citation_page_last
_citation_journal_id_ASTM
primary 'Journal of the American Chemical Society' 2001 123 9642 9651 JACSAT
_publ_author_name
;
Loiseau, T.;Mellot-Draznieks, C.;Sassoye, C.;Girard, S.;Guillou, 
N.;Huguenard, C.;Taulelle, F.;Ferey, G.
;
_cell_length_a                     8.706
_cell_length_b                     8.749
_cell_length_c                     12.768
_cell_angle_alpha                  111.17
_cell_angle_beta                   97.70
_cell_angle_gamma                  105.14
_cell_volume                       846.79
_cell_formula_units_Z              8
_symmetry_space_group_name_H-M     'P -1'
_symmetry_Int_Tables_number        2
loop_
_symmetry_equiv_pos_site_id
_symmetry_equiv_pos_as_xyz
  1	'-x, -y, -z'
  2	'x, y, z'
loop_
_atom_type_symbol
_atom_type_oxidation_number
Al3+	3
O2-	-2
P5+	5
loop_
_atom_site_label
_atom_site_type_symbol
_atom_site_symmetry_multiplicity
_atom_site_Wyckoff_symbol
_atom_site_fract_x
_atom_site_fract_y
_atom_site_fract_z
_atom_site_occupancy
_atom_site_attached_hydrogens
Al1 Al3+ 2 i 0.6931 0.2102 0.6320 1. 0 
Al2 Al3+ 2 i 0.3166 0.1985 0.8168 1. 0 
Al3 Al3+ 2 i 0.9727 0.6761 -0.0581 1. 0 
Al4 Al3+ 2 i 0.5202 0.2061 0.8225 1. 0 
P1 P5+ 2 i 0.5992 0.5106 0.8151 1. 0 
P2 P5+ 2 i 0.6030 -0.0876 0.6266 1. 0 
P3 P5+ 2 i 0.7433 -0.0354 -0.0427 1. 0 
P4 P5+ 2 i -0.0159 0.3292 0.8158 1. 0 
O1 O2- 2 i 0.7091 0.7938 0.5047 1. 0 
O2 O2- 2 i 0.4319 0.8044 0.6904 1. 0 
O3 O2- 2 i 0.1199 0.7786 0.7054 1. 0 
O4 O2- 2 i 0.6935 -0.0314 0.6888 1. 0 
O5 O2- 2 i 0.4894 0.5874 0.7908 1. 0 
O6 O2- 2 i 0.5100 0.3627 0.8620 1. 0 
O7 O2- 2 i 0.4399 -0.0179 0.6184 1. 0 
O8 O2- 2 i 0.6371 0.3896 0.7024 1. 0 
O9 O2- 2 i -0.0435 0.4781 0.8503 1. 0 
O10 O2- 2 i 0.7592 0.6162 -0.0952 1. 0 
O11 O2- 2 i 0.8306 0.7114 0.7927 1. 0 
O12 O2- 2 i 0.6714 0.8270 0.8940 1. 0 
O13 O2- 2 i -0.0735 0.8739 -0.0658 1. 0 
O14 O2- 2 i 0.7114 0.8863 -0.0814 1. 0 
O15 O2- 2 i 0.6638 -0.0423 -0.0870 1. 0 
O16 O2- 2 i 0.0354 0.7133 -0.0852 1. 0 

#End of data_93122-ICSD


