data_15350-ICSD
#?2014 by Fachinformationszentrum Karlsruhe, and the U.S. Secretary of 
#Commerce on behalf of the United States.  All rights reserved.
_database_code_ICSD                15350
_audit_creation_date               1980/01/01
_audit_update_record               2014/08/01
_chemical_name_systematic          'Magnesium Digallium Sulfide'
_chemical_formula_structural       'Mg Ga2 S4'
_chemical_formula_sum              'Ga2 Mg1 S4'
_publ_section_title
;
Complex sulphur compounds.I. The crystal structure of Mg Ga2 S4
;
loop_
_citation_id
_citation_journal_abbrev
_citation_year
_citation_journal_volume
_citation_page_first
_citation_page_last
_citation_journal_id_ASTM
primary 'Acta Crystallographica (1,1948-23,1967)' 1967 23 634 640 ACCRA9
_publ_author_name
;
Romers, C.;Blaisse, B.A.;Ijdo, D.J.W.
;
_cell_length_a                     12.74(2)
_cell_length_b                     22.540(50)
_cell_length_c                     6.43(2)
_cell_angle_alpha                  90.
_cell_angle_beta                   108.8(2)
_cell_angle_gamma                  90.
_cell_volume                       1747.93
_cell_formula_units_Z              12
_symmetry_space_group_name_H-M     'C 1 2/c 1'
_symmetry_Int_Tables_number        15
_refine_ls_R_factor_all            .146
loop_
_symmetry_equiv_pos_site_id
_symmetry_equiv_pos_as_xyz
  1	'x, -y, z+.5'
  2	'-x, -y, -z'
  3	'-x, y, -z+.5'
  4	'x, y, z'
  5	'x+.5, -y+.5, z+.5'
  6	'-x+.5, -y+.5, -z'
  7	'-x+.5, y+.5, -z+.5'
  8	'x+.5, y+.5, z'
loop_
_atom_type_symbol
_atom_type_oxidation_number
Ga3+	3
Mg2+	2
S2-	-2
loop_
_atom_site_label
_atom_site_type_symbol
_atom_site_symmetry_multiplicity
_atom_site_Wyckoff_symbol
_atom_site_fract_x
_atom_site_fract_y
_atom_site_fract_z
_atom_site_occupancy
_atom_site_attached_hydrogens
_atom_site_B_iso_or_equiv
S1 S2- 8 f 0.1091(45) -.1319(44) -.0158(58) 1. 0 1.59(65) 
S2 S2- 8 f 0.1085(49) 0.0439(43) -.0162(61) 1. 0 1.71(71) 
S3 S2- 8 f 0.1283(45) 0.2162(41) -.0021(55) 1. 0 1.50(64) 
S4 S2- 8 f 0.3742(45) 0.1179(41) 0.0002(56) 1. 0 1.51(64) 
S5 S2- 8 f 0.3665(45) -.0409(40) 0.0009(58) 1. 0 1.47(67) 
S6 S2- 8 f 0.3844(50) -.1981(46) 0.0122(60) 1. 0 1.86(69) 
Ga1 Ga3+ 8 f 0.2921(23) -.1249(21) 0.1180(28) 1. 0 2.07(35) 
Ga2 Ga3+ 8 f 0.2887(24) 0.0402(21) 0.1188(29) 1. 0 2.10(37) 
Ga3 Ga3+ 8 f 0.3163(22) 0.2003(22) 0.1476(26) 1. 0 1.95(34) 
Mg1 Mg2+ 4 e 0 -.1298(93) 0.25 1. 0 2.05(52) 
Mg2 Mg2+ 4 e 0 0.0436(88) 0.25 1. 0 1.99(57) 
Mg3 Mg2+ 4 e 0 0.2180(85) 0.25 1. 0 1.72(40) 

#End of data_15350-ICSD


