data_262579-ICSD
#?2014 by Fachinformationszentrum Karlsruhe, and the U.S. Secretary of 
#Commerce on behalf of the United States.  All rights reserved.
_database_code_ICSD                262579
_audit_creation_date               2012/08/01
_chemical_name_systematic
;
Tripotassium Nickel Dioxide - Beta Phase
;
_chemical_formula_structural       'K3 Ni O2'
_chemical_formula_sum              'K3 Ni1 O2'
_publ_section_title
;
K3 Ni O2 revisited, phase transition and crystal structure refinement
;
loop_
_citation_id
_citation_journal_abbrev
_citation_year
_citation_journal_volume
_citation_journal_issue
_citation_page_first
_citation_page_last
_citation_journal_id_ASTM
primary 'Zeitschrift fuer Anorganische und Allgemeine Chemie (1950) (DE)'
 2012 638 5 737 743 ZAACAB
_publ_author_name                  'Duris, K.;Mueller, U.;Jansen, M.'
_cell_length_a                     6.0310(9)
_cell_length_b                     6.0310(9)
_cell_length_c                     7.156(1)
_cell_angle_alpha                  90.
_cell_angle_beta                   90.
_cell_angle_gamma                  90.
_cell_volume                       260.28
_cell_formula_units_Z              2
_symmetry_space_group_name_H-M     'P 42/m n m'
_symmetry_Int_Tables_number        136
_refine_ls_R_factor_all            .0371
loop_
_symmetry_equiv_pos_site_id
_symmetry_equiv_pos_as_xyz
  1	'-y+.5, x+.5, -z+.5'
  2	'y+.5, -x+.5, -z+.5'
  3	'y, x, -z'
  4	'-y, -x, -z'
  5	'y+.5, -x+.5, z+.5'
  6	'-y+.5, x+.5, z+.5'
  7	'-y, -x, z'
  8	'y, x, z'
  9	'x+.5, -y+.5, -z+.5'
 10	'-x+.5, y+.5, -z+.5'
 11	'x, y, -z'
 12	'-x, -y, -z'
 13	'-x+.5, y+.5, z+.5'
 14	'x+.5, -y+.5, z+.5'
 15	'-x, -y, z'
 16	'x, y, z'
loop_
_atom_type_symbol
_atom_type_oxidation_number
K1+	1
Ni1+	1
O2-	-2
loop_
_atom_site_label
_atom_site_type_symbol
_atom_site_symmetry_multiplicity
_atom_site_Wyckoff_symbol
_atom_site_fract_x
_atom_site_fract_y
_atom_site_fract_z
_atom_site_occupancy
_atom_site_attached_hydrogens
_atom_site_U_iso_or_equiv
Ni1 Ni1+ 2 a 0 0 0 1. 0 0.0031(1) 
K1 K1+ 4 d 0 0.5 0.25 1. 0 0.0052(1) 
K2 K1+ 2 b 0.5 0.5 0 1. 0 0.0148(2) 
O1 O2- 4 g 0.2054(4) 0.7946(4) 0 1. 0 0.0055(1) 

loop_
_atom_site_aniso_label
_atom_site_aniso_type_symbol
_atom_site_aniso_U_11
_atom_site_aniso_U_22
_atom_site_aniso_U_33
_atom_site_aniso_U_12
_atom_site_aniso_U_13
_atom_site_aniso_U_23
Ni1 Ni1+ 0.029(1) 0.029(1) 0.035(1) 0.005(1) 0 0
K1 K1+ 0.055(1) 0.055(1) 0.044(1) 0 0 0
K2 K1+ 0.137(3) 0.137(3) 0.169(4) 0.111(3) 0 0
O1 O2- 0.040(1) 0.040(1) 0.085(3) 0.014(1) 0 0
#End of data_262579-ICSD


