data_417675-ICSD
#?2014 by Fachinformationszentrum Karlsruhe, and the U.S. Secretary of 
#Commerce on behalf of the United States.  All rights reserved.
_database_code_ICSD                417675
_audit_creation_date               2011/02/01
_chemical_name_systematic          'Trisilver(I) Antimonate(V)'
_chemical_formula_structural       'Ag3 (Sb O4)'
_chemical_formula_sum              'Ag3 O4 Sb1'
_publ_section_title
;
Synthesis, crystal structure, and properties of Ag3 Sb O4
;
loop_
_citation_id
_citation_journal_abbrev
_citation_year
_citation_journal_volume
_citation_journal_issue
_citation_page_first
_citation_page_last
_citation_journal_id_ASTM
primary 'Zeitschrift fuer Anorganische und Allgemeine Chemie (1950) (DE)'
 2010 636 8 1461 1465 ZAACAB
2 'Acta Crystallographica, Section C: Crystal Structure Communications'
 2005 61- i1 i2 ACSCEE
_publ_author_name                  'Klein, W.;Jansen, M.'
_cell_length_a                     7.04357
_cell_length_b                     7.04357
_cell_length_c                     8.86652(9)
_cell_angle_alpha                  90.0
_cell_angle_beta                   90.0
_cell_angle_gamma                  90.0
_cell_volume                       439.88
_cell_formula_units_Z              4
_symmetry_space_group_name_H-M     'P 41 2 2'
_symmetry_Int_Tables_number        91
_refine_ls_R_factor_all            .0875
loop_
_symmetry_equiv_pos_site_id
_symmetry_equiv_pos_as_xyz
  1	'y, x, -z+.75'
  2	'-y, -x, -z+.25'
  3	'x, -y, -z+.5'
  4	'-x, y, -z'
  5	'y, -x, z+.75'
  6	'-y, x, z+.25'
  7	'-x, -y, z+.5'
  8	'x, y, z'
loop_
_atom_type_symbol
_atom_type_oxidation_number
Ag1+	1
O2-	-2
Sb5+	5
loop_
_atom_site_label
_atom_site_type_symbol
_atom_site_symmetry_multiplicity
_atom_site_Wyckoff_symbol
_atom_site_fract_x
_atom_site_fract_y
_atom_site_fract_z
_atom_site_occupancy
_atom_site_attached_hydrogens
_atom_site_U_iso_or_equiv
Ag1 Ag1+ 4 a 0 0.7412(6) 0 1.0 0 0.0192(18) 
Ag2 Ag1+ 4 a 0 0.2057(9) 0 1.0 0 0.0350(24) 
Ag3 Ag1+ 4 b 0.5 0.7942(8) 0 1.0 0 0.0315(21) 
Sb1 Sb5+ 4 b 0.5 0.2780(6) 0 1.0 0 0.0184(18) 
O1 O2- 8 d 0.7010(26) 0.4931(33) 0.0160(28) 1.0 0 0.013(6) 
O2 O2- 8 d 0.3072(27) 0.0866(25) 0.0283(24) 1.0 0 0.011(5) 

#End of data_417675-ICSD


