data_44812-ICSD
#?2014 by Fachinformationszentrum Karlsruhe, and the U.S. Secretary of 
#Commerce on behalf of the United States.  All rights reserved.
_database_code_ICSD                44812
_audit_creation_date               2000/12/16
_chemical_name_systematic          'Heptalithium Manganese(V) Nitride'
_chemical_formula_structural       'Li7 Mn N4'
_chemical_formula_sum              'Li7 Mn1 N4'
_publ_section_title
;
Die Struktur von Li7 V N4 und Li7 Mn N4
;
loop_
_citation_id
_citation_journal_abbrev
_citation_year
_citation_journal_volume
_citation_page_first
_citation_page_last
_citation_journal_id_ASTM
primary 'Angewandte Chemie (German Edition)' 1959 71 161 161 ANCEAD
_publ_author_name                  'Juza, R.;Anschuetz, E.;Puff, H.'
_cell_length_a                     9.571
_cell_length_b                     9.571
_cell_length_c                     9.571
_cell_angle_alpha                  90.
_cell_angle_beta                   90.
_cell_angle_gamma                  90.
_cell_volume                       876.74
_cell_formula_units_Z              8
_symmetry_space_group_name_H-M     'P -4 3 n'
_symmetry_Int_Tables_number        218
loop_
_symmetry_equiv_pos_site_id
_symmetry_equiv_pos_as_xyz
  1	'-z+.5, y+.5, -x+.5'
  2	'-y+.5, x+.5, -z+.5'
  3	'-x+.5, z+.5, -y+.5'
  4	'z+.5, -y+.5, -x+.5'
  5	'y+.5, -x+.5, -z+.5'
  6	'x+.5, -z+.5, -y+.5'
  7	'-z+.5, -y+.5, x+.5'
  8	'-y+.5, -x+.5, z+.5'
  9	'-x+.5, -z+.5, y+.5'
 10	'z+.5, y+.5, x+.5'
 11	'y+.5, x+.5, z+.5'
 12	'x+.5, z+.5, y+.5'
 13	'-z, -x, y'
 14	'-y, -z, x'
 15	'-x, -y, z'
 16	'z, -x, -y'
 17	'y, -z, -x'
 18	'x, -y, -z'
 19	'-z, x, -y'
 20	'-y, z, -x'
 21	'-x, y, -z'
 22	'z, x, y'
 23	'y, z, x'
 24	'x, y, z'
loop_
_atom_type_symbol
_atom_type_oxidation_number
Li1+	1
Mn5+	5
N3-	-3
loop_
_atom_site_label
_atom_site_type_symbol
_atom_site_symmetry_multiplicity
_atom_site_Wyckoff_symbol
_atom_site_fract_x
_atom_site_fract_y
_atom_site_fract_z
_atom_site_occupancy
_atom_site_attached_hydrogens
Li1 Li1+ 6 b 0 0.5 0.5 1. 0 
Li2 Li1+ 6 d 0.25 0 0.5 1. 0 
Li3 Li1+ 8 e 0.25 0.25 0.25 1. 0 
Li4 Li1+ 12 f 0.25 0 0 1. 0 
Li5 Li1+ 24 i 0.25 0.25 0 1. 0 
Mn1 Mn5+ 2 a 0 0 0 1. 0 
Mn2 Mn5+ 6 c 0.25 0.5 0 1. 0 
N1 N3- 8 e 0.115 0.115 0.115 1. 0 
N2 N3- 24 i 0.375 0.375 0.125 1. 0 

#End of data_44812-ICSD


