data_281485-ICSD
#?2014 by Fachinformationszentrum Karlsruhe, and the U.S. Secretary of 
#Commerce on behalf of the United States.  All rights reserved.
_database_code_ICSD                281485
_audit_creation_date               2004/04/01
_chemical_name_systematic
;
Octapotassium Mue-oxo-di-mue-sulfato(VI)- 
Bis(oxobis(sulfato(VI))vanadate)
;
_chemical_formula_structural       'K8 ((V O (S O4)2)2 O (S O4)2)'
_chemical_formula_sum              'K8 O27 S6 V2'
_publ_section_title
;
Crystal structure and spectroscopic characterization of K8 (V O)2 O 
(S O4)6
;
loop_
_citation_id
_citation_journal_abbrev
_citation_year
_citation_journal_volume
_citation_page_first
_citation_page_last
_citation_journal_id_ASTM
primary 'Inorganic Chemistry' 2003 42 7123 7128 INOCAJ
_publ_author_name
;
Rasmussen, S.B.;Rasmussen, R.M.;Fehrmann, R.;Nielsen, K.
;
_cell_length_a                     13.5973(9)
_cell_length_b                     13.9288(9)
_cell_length_c                     14.0516(9)
_cell_angle_alpha                  90.
_cell_angle_beta                   90.286(1)
_cell_angle_gamma                  90.
_cell_volume                       2661.26
_cell_formula_units_Z              4
_symmetry_space_group_name_H-M     'P 1 21 1'
_symmetry_Int_Tables_number        4
_refine_ls_R_factor_all            .0417
loop_
_symmetry_equiv_pos_site_id
_symmetry_equiv_pos_as_xyz
  1	'-x, y+.5, -z'
  2	'x, y, z'
loop_
_atom_type_symbol
_atom_type_oxidation_number
K1+	1
O2-	-2
S6+	6
V5+	5
loop_
_atom_site_label
_atom_site_type_symbol
_atom_site_symmetry_multiplicity
_atom_site_Wyckoff_symbol
_atom_site_fract_x
_atom_site_fract_y
_atom_site_fract_z
_atom_site_occupancy
_atom_site_attached_hydrogens
_atom_site_U_iso_or_equiv
V1 V5+ 2 a 0.89581(12) 0.41952(13) 0.36885(10) 1. 0 0.0173(3) 
V2 V5+ 2 a 0.90464(11) 0.42261(12) 0.12397(10) 1. 0 0.0152(3) 
O1 O2- 2 a 0.8643(4) 0.4161(5) 0.2457(5) 1. 0 0.0192(13) 
O2 O2- 2 a 0.8106(5) 0.4859(6) 0.4053(4) 1. 0 0.0349(18) 
O3 O2- 2 a 0.8521(5) 0.3275(4) 0.0849(4) 1. 0 0.0249(15) 
O4 O2- 2 a 0.0278(5) 0.3597(5) 0.1627(4) 1. 0 0.0255(16) 
O5 O2- 2 a 0.9820(4) 0.5530(5) 0.1733(4) 1. 0 0.0226(15) 
O6 O2- 2 a 0.9967(5) 0.5182(5) 0.3416(4) 1. 0 0.0295(18) 
O7 O2- 2 a 0.0223(5) 0.3199(5) 0.3295(4) 1. 0 0.0325(19) 
S1 S6+ 2 a 0.05113(17) 0.28313(18) 0.23693(15) 1. 0 0.0181(5) 
S2 S6+ 2 a 0.02718(17) 0.58354(17) 0.26320(15) 1. 0 0.0172(5) 
O8 O2- 2 a 0.1578(4) 0.2698(5) 0.2323(4) 1. 0 0.0269(17) 
O9 O2- 2 a 0.9987(5) 0.1965(5) 0.2115(5) 1. 0 0.0350(18) 
O10 O2- 2 a 0.9942(5) 0.6789(5) 0.2887(5) 1. 0 0.0318(17) 
O11 O2- 2 a 0.1333(5) 0.5814(6) 0.2599(4) 1. 0 0.0300(16) 
S3 S6+ 2 a 0.77526(17) 0.60187(18) 0.03361(16) 1. 0 0.0180(5) 
O12 O2- 2 a 0.8025(4) 0.5061(5) 0.0837(4) 1. 0 0.0281(16) 
O13 O2- 2 a 0.2979(5) 0.0743(5) 0.0365(5) 1. 0 0.0309(17) 
O14 O2- 2 a 0.7350(6) 0.6640(6) 0.1049(5) 1. 0 0.048(2) 
O15 O2- 2 a 0.1407(5) 0.1399(6) 0.0115(5) 1. 0 0.0322(18) 
S4 S6+ 2 a 0.97829(17) 0.40877(18) -.08831(15) 1. 0 0.0170(5) 
O16 O2- 2 a 0.9797(5) 0.4548(5) 0.0103(4) 1. 0 0.0182(14) 
O17 O2- 2 a 0.1232(5) -.1043(6) 0.1183(5) 1. 0 0.0298(18) 
O18 O2- 2 a 0.0310(5) 0.3191(5) -.0799(5) 1. 0 0.0330(18) 
O19 O2- 2 a 0.9704(5) -.0234(6) 0.1462(5) 1. 0 0.0336(19) 
S5 S6+ 2 a 0.96957(18) 0.45661(17) 0.58515(15) 1. 0 0.0177(5) 
O20 O2- 2 a 0.9666(5) 0.4047(5) 0.4880(4) 1. 0 0.0236(15) 
O21 O2- 2 a 0.0275(5) 0.3941(5) 0.6475(5) 1. 0 0.0304(17) 
O22 O2- 2 a 0.0183(6) 0.5485(5) 0.5681(5) 1. 0 0.0377(19) 
O23 O2- 2 a 0.8708(5) 0.4672(6) 0.6206(5) 1. 0 0.0292(17) 
S6 S6+ 2 a 0.77730(17) 0.24518(17) 0.46880(16) 1. 0 0.0172(5) 
O24 O2- 2 a 0.8329(5) 0.2981(5) 0.3917(4) 1. 0 0.0347(18) 
O25 O2- 2 a 0.8478(5) 0.2004(6) 0.5316(5) 1. 0 0.0362(19) 
O26 O2- 2 a 0.7164(5) 0.3107(6) 0.5220(6) 1. 0 0.042(2) 
O27 O2- 2 a 0.7190(5) 0.1749(5) 0.4175(5) 1. 0 0.0351(18) 
V3 V5+ 2 a 0.59353(12) -.06952(12) 0.36797(11) 1. 0 0.0168(4) 
V4 V5+ 2 a 0.58792(12) -.08272(12) 0.12522(11) 1. 0 0.0169(3) 
O28 O2- 2 a 0.6307(4) -.0752(6) 0.2444(5) 1. 0 0.0196(12) 
O29 O2- 2 a 0.6870(5) -.0172(5) 0.4080(4) 1. 0 0.0265(16) 
O30 O2- 2 a 0.6793(5) -.1388(5) 0.0832(5) 1. 0 0.0292(17) 
S7 S6+ 2 a 0.44193(18) -.21832(17) 0.24519(16) 1. 0 0.0190(5) 
O31 O2- 2 a 0.3400(5) -.2134(6) 0.2132(4) 1. 0 0.0288(17) 
O32 O2- 2 a 0.4644(5) -.3153(5) 0.2790(5) 1. 0 0.0301(17) 
S8 S6+ 2 a 0.44824(17) 0.07052(17) 0.24864(15) 1. 0 0.0174(5) 
O33 O2- 2 a 0.3474(5) 0.0742(6) 0.2797(5) 1. 0 0.0285(17) 
O34 O2- 2 a 0.4818(5) 0.1634(5) 0.2156(5) 1. 0 0.0317(17) 
O35 O2- 2 a 0.5079(5) -.1978(5) 0.1611(4) 1. 0 0.0243(16) 
O36 O2- 2 a 0.4591(5) -.0040(5) 0.1739(4) 1. 0 0.0182(14) 
O37 O2- 2 a 0.5107(5) 0.0446(5) 0.3347(4) 1. 0 0.0256(16) 
O38 O2- 2 a 0.4600(4) -.1471(5) 0.3202(4) 1. 0 0.0181(14) 
S9 S6+ 2 a 0.71122(17) 0.09910(18) 0.05030(16) 1. 0 0.0186(5) 
O39 O2- 2 a 0.6220(4) 0.0421(5) 0.0839(4) 1. 0 0.0222(15) 
O40 O2- 2 a 0.6703(5) 0.1792(6) -.0037(5) 1. 0 0.0365(19) 
O41 O2- 2 a 0.7713(5) 0.0401(6) -.0103(5) 1. 0 0.0323(18) 
O42 O2- 2 a 0.7637(6) 0.1324(5) 0.1328(5) 1. 0 0.0369(19) 
S10 S6+ 2 a 0.51409(19) -.07741(19) -.09572(16) 1. 0 0.0212(5) 
O43 O2- 2 a 0.5035(5) -.0936(5) 0.0109(4) 1. 0 0.0276(16) 
O44 O2- 2 a 0.5099(5) 0.0255(5) -.1117(5) 1. 0 0.0359(18) 
O45 O2- 2 a 0.6067(5) -.1170(6) -.1281(5) 1. 0 0.0354(19) 
O46 O2- 2 a 0.4284(5) -.1224(6) -.1354(5) 1. 0 0.045(2) 
S11 S6+ 2 a 0.52351(18) -.05915(18) 0.58883(16) 1. 0 0.0203(6) 
O47 O2- 2 a 0.5191(5) -.0718(7) 0.4828(5) 1. 0 0.050(3) 
O48 O2- 2 a 0.4517(7) 0.0121(8) 0.6088(7) 1. 0 0.083(4) 
O49 O2- 2 a 0.4933(6) -.1515(6) 0.6273(6) 1. 0 0.064(3) 
O50 O2- 2 a 0.6227(5) -.0341(5) 0.6193(5) 1. 0 0.0257(16) 
S12 S6+ 2 a 0.71406(17) -.25043(18) 0.45032(16) 1. 0 0.0182(5) 
O51 O2- 2 a 0.6362(5) -.1965(5) 0.3938(5) 1. 0 0.038(2) 
O52 O2- 2 a 0.7759(5) -.1830(5) 0.5004(5) 1. 0 0.038(2) 
O53 O2- 2 a 0.7675(6) -.3064(6) 0.3811(5) 1. 0 0.051(2) 
O54 O2- 2 a 0.6601(6) -.3112(6) 0.5152(5) 1. 0 0.043(2) 
K1 K1+ 2 a 0.16351(16) 0.06972(16) 0.20550(15) 1. 0 0.0258(5) 
K2 K1+ 2 a 0.67632(17) 0.49322(18) 0.55030(15) 1. 0 0.0270(5) 
K3 K1+ 2 a 0.31235(16) -.12606(17) 0.04215(15) 1. 0 0.0262(5) 
K4 K1+ 2 a 0.81225(17) -.14931(19) -.05098(16) 1. 0 0.0318(6) 
K5 K1+ 2 a 0.46285(17) -.3023(2) 0.47917(17) 1. 0 0.0352(6) 
K6 K1+ 2 a 0.86139(18) 0.0787(2) 0.28417(16) 1. 0 0.0371(6) 
K7 K1+ 2 a 0.6382(2) 0.5806(3) 0.24763(18) 1. 0 0.0540(8) 
K8 K1+ 2 a 0.04413(17) 0.21629(17) 0.51508(16) 1. 0 0.0270(5) 
K9 K1+ 2 a 0.53068(17) 0.67462(18) -.01418(17) 1. 0 0.0323(5) 
K10 K1+ 2 a 0.33931(16) 0.28023(16) 0.29898(16) 1. 0 0.0277(5) 
K11 K1+ 2 a 0.32211(17) 0.57215(18) 0.19780(16) 1. 0 0.0314(5) 
K12 K1+ 2 a 0.17556(17) 0.49414(18) 0.44169(16) 1. 0 0.0302(5) 
K13 K1+ 2 a 0.16019(17) 0.79254(17) 0.29136(15) 1. 0 0.0273(5) 
K14 K1+ 2 a 0.84516(19) 0.7887(2) 0.22680(17) 1. 0 0.0403(6) 
K15 K1+ 2 a 0.94889(16) 0.14575(18) 0.00971(17) 1. 0 0.0310(6) 
K16 K1+ 2 a 0.6481(2) 0.2602(2) 0.25553(18) 1. 0 0.0432(7) 

loop_
_atom_site_aniso_label
_atom_site_aniso_type_symbol
_atom_site_aniso_U_11
_atom_site_aniso_U_22
_atom_site_aniso_U_33
_atom_site_aniso_U_12
_atom_site_aniso_U_13
_atom_site_aniso_U_23
V1 V5+ 0.0232(8) 0.0168(8) 0.0119(7) -0.0010(7) 0.0031(6) 0.0014(7)
V2 V5+ 0.0193(8) 0.0144(8) 0.0119(7) -0.0006(7) -0.0007(6) 0.0001(7)
O1 O2- 0.024(3) 0.020(3) 0.013(2) 0.003(3) 0.002(3) -0.002(3)
O2 O2- 0.048(5) 0.039(5) 0.018(3) 0.019(4) 0.009(3) 0.002(3)
O3 O2- 0.035(4) 0.017(3) 0.022(3) -0.009(3) -0.005(3) 0.000(3)
O4 O2- 0.031(4) 0.027(4) 0.018(3) 0.017(3) 0.009(3) 0.012(3)
O5 O2- 0.038(4) 0.025(4) 0.006(3) -0.012(3) 0.000(2) 0.004(3)
O6 O2- 0.048(4) 0.031(4) 0.009(3) -0.021(4) -0.008(3) 0.011(3)
O7 O2- 0.041(4) 0.037(4) 0.020(3) 0.025(4) 0.005(3) -0.004(3)
S1 S6+ 0.0207(12) 0.0192(12) 0.0146(11) 0.009(1) 0.0009(9) 0.0019(10)
S2 S6+ 0.0220(12) 0.0165(11) 0.0132(10) -0.0034(10) -0.0005(8) -0.0007(9)
O8 O2- 0.019(3) 0.038(4) 0.024(3) 0.008(3) -0.001(3) 0.002(3)
O9 O2- 0.041(5) 0.025(4) 0.039(4) -0.012(3) -0.001(3) -0.002(3)
O10 O2- 0.044(4) 0.012(3) 0.040(4) 0.008(3) 0.002(3) -0.006(3)
O11 O2- 0.029(4) 0.036(4) 0.025(3) 0.000(4) 0.004(3) 0.001(3)
S3 S6+ 0.0189(12) 0.0161(12) 0.0191(11) 0.0018(10) -0.0002(9) 0.0015(10)
O12 O2- 0.021(3) 0.033(4) 0.031(4) 0.003(3) -0.005(3) 0.012(3)
O13 O2- 0.022(3) 0.033(4) 0.038(4) 0.004(3) -0.014(3) -0.008(3)
O14 O2- 0.072(6) 0.027(4) 0.045(5) 0.008(4) 0.029(4) -0.018(4)
O15 O2- 0.026(4) 0.031(4) 0.040(4) 0.000(3) 0.010(3) -0.010(3)
S4 S6+ 0.0209(12) 0.0172(12) 0.0128(10) 0.003(1) -0.0006(8) -0.002(1)
O16 O2- 0.028(4) 0.014(3) 0.012(3) -0.005(3) 0.002(3) 0.004(3)
O17 O2- 0.027(4) 0.041(5) 0.022(4) 0.004(4) -0.006(3) 0.004(3)
O18 O2- 0.042(4) 0.025(4) 0.032(4) 0.011(4) -0.002(3) -0.006(3)
O19 O2- 0.042(5) 0.041(4) 0.017(3) 0.021(4) 0.008(3) 0.001(3)
S5 S6+ 0.0266(13) 0.0152(11) 0.0114(10) -0.0014(10) -0.0008(9) -0.0009(9)
O20 O2- 0.037(4) 0.023(4) 0.011(3) 0.001(3) -0.003(3) -0.007(3)
O21 O2- 0.045(4) 0.027(4) 0.020(3) 0.014(4) -0.009(3) 0.000(3)
O22 O2- 0.058(5) 0.023(4) 0.032(4) -0.021(4) -0.001(3) 0.003(3)
O23 O2- 0.025(4) 0.041(5) 0.021(3) -0.001(4) 0.004(3) -0.015(3)
S6 S6+ 0.0213(12) 0.0129(11) 0.0175(11) -0.0032(10) 0.0010(9) 0.0018(9)
O24 O2- 0.049(5) 0.034(4) 0.020(3) -0.034(4) 0.009(3) 0.003(3)
O25 O2- 0.036(4) 0.043(5) 0.030(4) 0.017(4) -0.005(3) 0.012(4)
O26 O2- 0.036(4) 0.033(5) 0.057(5) 0.007(4) 0.014(4) -0.011(4)
O27 O2- 0.047(5) 0.029(4) 0.029(4) -0.018(4) -0.007(3) 0.001(3)
V3 V5+ 0.0207(8) 0.0144(9) 0.0152(7) 0.0002(7) -0.0026(6) 0.0012(7)
V4 V5+ 0.0209(8) 0.0146(8) 0.0152(7) 0.0008(7) 0.0042(6) 0.0011(7)
O28 O2- 0.020(3) 0.021(3) 0.017(3) -0.003(4) 0.004(3) 0.002(2)
O29 O2- 0.037(4) 0.013(3) 0.029(4) -0.006(3) -0.011(3) 0.012(3)
O30 O2- 0.026(4) 0.037(5) 0.024(4) 0.008(4) 0.008(3) -0.004(3)
S7 S6+ 0.0258(13) 0.0169(12) 0.0141(11) -0.0058(11) -0.0005(9) 0.0021(10)
O31 O2- 0.022(4) 0.045(5) 0.019(3) -0.006(4) -0.003(3) 0.003(3)
O32 O2- 0.049(4) 0.013(3) 0.028(4) -0.005(3) 0.000(3) 0.003(3)
S8 S6+ 0.0208(12) 0.0164(12) 0.0151(11) 0.0036(11) -0.0008(9) 0.0025(10)
O33 O2- 0.026(4) 0.033(4) 0.026(4) 0.008(4) 0.004(3) -0.002(3)
O34 O2- 0.041(4) 0.011(3) 0.044(4) 0.003(3) 0.012(3) 0.009(3)
O35 O2- 0.028(4) 0.022(4) 0.023(3) -0.009(3) 0.012(3) -0.010(3)
O36 O2- 0.023(3) 0.019(3) 0.013(3) 0.000(3) 0.005(3) -0.002(3)
O37 O2- 0.038(4) 0.017(3) 0.021(3) 0.006(3) -0.012(3) -0.002(3)
O38 O2- 0.018(3) 0.022(4) 0.014(3) -0.004(3) 0.005(3) -0.002(3)
S9 S6+ 0.0201(12) 0.0155(12) 0.0203(12) -0.0008(10) -0.0010(9) 0.0024(10)
O39 O2- 0.016(3) 0.021(3) 0.030(3) -0.002(3) 0.004(3) 0.010(3)
O40 O2- 0.037(4) 0.032(4) 0.041(4) -0.001(4) -0.001(3) 0.021(4)
O41 O2- 0.027(4) 0.030(4) 0.040(4) 0.003(4) 0.021(3) -0.009(4)
O42 O2- 0.051(5) 0.034(4) 0.026(4) -0.013(4) -0.013(3) -0.004(3)
S10 S6+ 0.0285(13) 0.0220(12) 0.0132(10) -0.0013(12) 0.0018(9) -0.002(1)
O43 O2- 0.032(4) 0.036(4) 0.014(3) -0.010(3) 0.003(3) 0.001(3)
O44 O2- 0.041(4) 0.027(4) 0.040(4) 0.003(4) 0.005(3) 0.012(3)
O45 O2- 0.036(4) 0.047(5) 0.024(4) 0.009(4) 0.006(3) -0.004(4)
O46 O2- 0.037(4) 0.066(6) 0.032(4) -0.022(4) 0.000(3) -0.017(4)
S11 S6+ 0.0225(13) 0.0236(14) 0.0146(11) 0.0046(11) -0.0004(9) -0.003(1)
O47 O2- 0.031(4) 0.109(8) 0.011(3) -0.021(5) 0.003(3) 0.000(4)
O48 O2- 0.072(7) 0.095(8) 0.081(7) 0.066(6) -0.043(5) -0.067(6)
O49 O2- 0.064(6) 0.059(6) 0.070(6) -0.026(5) -0.032(5) 0.048(5)
O50 O2- 0.029(4) 0.027(4) 0.022(3) -0.006(3) -0.005(3) 0.000(3)
S12 S6+ 0.0178(12) 0.0158(12) 0.0210(12) 0.0003(10) -0.0001(9) 0.0019(10)
O51 O2- 0.050(5) 0.014(3) 0.050(5) -0.004(3) -0.036(4) 0.012(3)
O52 O2- 0.040(4) 0.022(4) 0.053(5) 0.000(4) -0.024(4) -0.004(4)
O53 O2- 0.048(5) 0.055(6) 0.050(5) 0.011(5) 0.013(4) -0.025(5)
O54 O2- 0.047(5) 0.042(5) 0.039(4) -0.008(4) 0.005(4) 0.035(4)
K1 K1+ 0.0297(12) 0.0228(12) 0.0249(11) 0.0019(11) -0.0023(9) -0.0025(10)
K2 K1+ 0.0279(12) 0.0293(13) 0.0236(11) 0.0049(11) -0.0007(9) -0.0046(10)
K3 K1+ 0.0271(12) 0.0252(12) 0.0263(11) 0.0027(10) 0.0041(9) 0.0048(10)
K4 K1+ 0.0293(12) 0.0389(15) 0.0272(12) 0.0050(11) 0.0058(10) -0.0073(11)
K5 K1+ 0.0243(12) 0.0511(17) 0.0303(12) 0.0010(12) 0.0035(9) -0.0046(12)
K6 K1+ 0.0354(13) 0.0511(17) 0.0249(11) 0.0097(13) -0.0034(10) 0.0081(12)
K7 K1+ 0.0536(17) 0.074(2) 0.0347(15) -0.0144(18) 0.0087(13) 0.0041(15)
K8 K1+ 0.0273(12) 0.0221(11) 0.0315(12) -0.005(1) -0.0003(9) 0.0012(10)
K9 K1+ 0.0292(12) 0.0343(13) 0.0335(12) 0.0034(11) 0.0031(10) 0.0009(11)
K10 K1+ 0.0298(13) 0.0213(12) 0.0320(12) 0.0035(11) -0.0062(9) -0.0032(10)
K11 K1+ 0.0280(12) 0.0308(13) 0.0353(12) -0.0046(11) 0.0067(9) -0.0081(11)
K12 K1+ 0.0336(13) 0.0327(13) 0.0244(11) 0.0089(11) -0.0013(9) 0.0085(10)
K13 K1+ 0.0323(13) 0.0226(12) 0.0271(11) 0.0007(11) 0.0067(9) 0.0003(10)
K14 K1+ 0.0391(14) 0.0492(17) 0.0324(13) -0.0042(13) -0.0004(10) 0.0102(12)
K15 K1+ 0.0245(12) 0.0280(13) 0.0405(14) -0.0006(11) -0.0003(10) 
-0.0010(11)
K16 K1+ 0.0495(16) 0.0435(16) 0.0365(14) 0.0139(14) -0.0127(11) 0.0075(12)
#End of data_281485-ICSD


