data_14165-ICSD
#?2014 by Fachinformationszentrum Karlsruhe, and the U.S. Secretary of 
#Commerce on behalf of the United States.  All rights reserved.
_database_code_ICSD                14165
_audit_creation_date               1980/01/01
_audit_update_record               2012/02/01
_chemical_name_systematic          'Sodium Vanadotellurate(IV)'
_chemical_formula_structural       'Na (V Te O5)'
_chemical_formula_sum              'Na1 O5 Te1 V1'
_publ_section_title
;
Etude des composes M V Te O5 (M = Na, K, Rb, Ag) structure 
cristalline de Na V Te O5
;
loop_
_citation_id
_citation_journal_abbrev
_citation_year
_citation_journal_volume
_citation_page_first
_citation_page_last
_citation_journal_id_ASTM
primary 'Acta Chemica Scandinavica (1-27,1973-42,1988)' 1972 26 59 70 ACSAA4
2
;
Comptes Rendus Hebdomadaires des Seances de l`Academie des Sciences, 
Serie C, Sciences Chimiques (1966-)
;
 1969 269 23 25 CHDCAQ
_publ_author_name
;
Darriet, J.;Guillaume, G.;Wilhelmi, K.A.;Galy, J.
;
_cell_length_a                     5.891
_cell_length_b                     11.389
_cell_length_c                     6.823
_cell_angle_alpha                  90.
_cell_angle_beta                   103.08
_cell_angle_gamma                  90.
_cell_volume                       445.9
_cell_formula_units_Z              4
_symmetry_space_group_name_H-M     'P 1 21/c 1'
_symmetry_Int_Tables_number        14
_refine_ls_R_factor_all            .19
loop_
_symmetry_equiv_pos_site_id
_symmetry_equiv_pos_as_xyz
  1	'x, -y+.5, z+.5'
  2	'-x, -y, -z'
  3	'-x, y+.5, -z+.5'
  4	'x, y, z'
loop_
_atom_type_symbol
_atom_type_oxidation_number
Na1+	1
O2-	-2
Te4+	4
V5+	5
loop_
_atom_site_label
_atom_site_type_symbol
_atom_site_symmetry_multiplicity
_atom_site_Wyckoff_symbol
_atom_site_fract_x
_atom_site_fract_y
_atom_site_fract_z
_atom_site_occupancy
_atom_site_attached_hydrogens
_atom_site_B_iso_or_equiv
Na1 Na1+ 4 e 0.8235(38) 0.2023(29) 0.3169(31) 1. 0 2.34 
V1 V5+ 4 e 0.3260(13) 0.3788(11) 0.0892(10) 1. 0 0.66 
Te1 Te4+ 4 e 0.7580(4) 0.5590(4) 0.4041(4) 1. 0 0.53 
O1 O2- 4 e 0.5353(55) 0.2970(39) 0.0404(45) 1. 0 1.36 
O2 O2- 4 e 0.1400(55) 0.2952(43) 0.1807(43) 1. 0 1.56 
O3 O2- 4 e 0.8777(51) 0.4045(40) 0.4840(45) 1. 0 1.31 
O4 O2- 4 e 0.4392(50) 0.4892(39) 0.2761(41) 1. 0 0.83 
O5 O2- 4 e 0.8316(59) 0.5488(40) 0.1417(45) 1. 0 1.89 

#End of data_14165-ICSD


