data_31127-ICSD
#?2014 by Fachinformationszentrum Karlsruhe, and the U.S. Secretary of 
#Commerce on behalf of the United States.  All rights reserved.
_database_code_ICSD                31127
_audit_creation_date               1980/01/01
_audit_update_record               2012/08/01
_chemical_name_systematic          'Calcium Tecto-dialumodisilicate'
_chemical_formula_structural       'Ca Al2 (Si O4)2'
_chemical_formula_sum              'Al2 Ca1 O8 Si2'
_chemical_name_mineral             Anorthite
_publ_section_title
;
A refinement of the structure of anorthite
;
loop_
_citation_id
_citation_journal_abbrev
_citation_year
_citation_journal_volume
_citation_page_first
_citation_page_last
_citation_journal_id_ASTM
primary
;
Zeitschrift fuer Kristallographie, Kristallgeometrie, Kristallphysik, 
Kristallchemie (-144,1977)
;
 1971 133 75 84 ZEKGAX
2 'Acta Crystallographica (1,1948-23,1967)' 1962 15 1005 1017 ACCRA9
_publ_author_name                  'Wainwright, J.E.;Starkey, J.'
_cell_length_a                     8.173(1)
_cell_length_b                     12.869(1)
_cell_length_c                     14.165(1)
_cell_angle_alpha                  93.113(6)
_cell_angle_beta                   115.913(6)
_cell_angle_gamma                  91.261(6)
_cell_volume                       1336.35
_cell_formula_units_Z              8
_symmetry_space_group_name_H-M     'P -1'
_symmetry_Int_Tables_number        2
_refine_ls_R_factor_all            .06
loop_
_symmetry_equiv_pos_site_id
_symmetry_equiv_pos_as_xyz
  1	'-x, -y, -z'
  2	'x, y, z'
loop_
_atom_type_symbol
_atom_type_oxidation_number
Al3+	3
Ca2+	2
O2-	-2
Si4+	4
loop_
_atom_site_label
_atom_site_type_symbol
_atom_site_symmetry_multiplicity
_atom_site_Wyckoff_symbol
_atom_site_fract_x
_atom_site_fract_y
_atom_site_fract_z
_atom_site_occupancy
_atom_site_attached_hydrogens
_atom_site_B_iso_or_equiv
O1 O2- 2 i 0.0269(4) 0.1242(3) 0.9960(4) 1. 0 0 
O2 O2- 2 i 0.9812(4) 0.1257(3) 0.4835(3) 1. 0 0 
O3 O2- 2 i 0.4875(4) 0.6241(4) 0.4868(4) 1. 0 0 
O4 O2- 2 i 0.5169(3) 0.6247(3) 0.9966(4) 1. 0 0 
O5 O2- 2 i 0.5744(4) 0.9913(3) 0.1434(4) 1. 0 0 
O6 O2- 2 i 0.5720(4) 0.9897(4) 0.6379(4) 1. 0 0 
O7 O2- 2 i 0.0731(3) 0.4875(4) 0.6354(4) 1. 0 0 
O8 O2- 2 i 0.0734(3) 0.4932(3) 0.1386(4) 1. 0 0 
O9 O2- 2 i 0.8154(5) 0.1018(4) 0.0806(4) 1. 0 0 
O10 O2- 2 i 0.8124(4) 0.0968(4) 0.6057(4) 1. 0 0 
O11 O2- 2 i 0.3325(4) 0.5957(3) 0.6047(4) 1. 0 0 
O12 O2- 2 i 0.2854(4) 0.6034(3) 0.0798(4) 1. 0 0 
O13 O2- 2 i 0.8175(5) 0.8554(4) 0.1443(3) 1. 0 0 
O14 O2- 2 i 0.8113(4) 0.8518(4) 0.6034(4) 1. 0 0 
O15 O2- 2 i 0.2987(4) 0.3559(4) 0.6115(4) 1. 0 0 
O16 O2- 2 i 0.3419(4) 0.3587(3) 0.1333(3) 1. 0 0 
O17 O2- 2 i 0.0141(4) 0.2796(3) 0.1351(4) 1. 0 0 
O18 O2- 2 i 0.0205(4) 0.2909(3) 0.6474(4) 1. 0 0 
O19 O2- 2 i 0.5094(3) 0.7769(3) 0.6344(4) 1. 0 0 
O20 O2- 2 i 0.5092(4) 0.7965(3) 0.1510(3) 1. 0 0 
O21 O2- 2 i 0.0008(2) 0.6806(3) 0.1044(3) 1. 0 0 
O22 O2- 2 i 0.0089(3) 0.6899(4) 0.6013(3) 1. 0 0 
O23 O2- 2 i 0.5165(4) 0.1788(3) 0.6101(3) 1. 0 0 
O24 O2- 2 i 0.5071(3) 0.1963(3) 0.0975(3) 1. 0 0 
O25 O2- 2 i 0.1826(3) 0.1059(2) 0.1917(3) 1. 0 0 
O26 O2- 2 i 0.2155(3) 0.1025(2) 0.6847(4) 1. 0 0 
O27 O2- 2 i 0.6989(3) 0.6079(4) 0.6790(4) 1. 0 0 
O28 O2- 2 i 0.6908(4) 0.6043(3) 0.2019(2) 1. 0 0 
O29 O2- 2 i 0.2038(2) 0.8740(3) 0.2107(2) 1. 0 0 
O30 O2- 2 i 0.1709(2) 0.8564(4) 0.7197(3) 1. 0 0 
O31 O2- 2 i 0.6884(3) 0.3628(4) 0.7332(4) 1. 0 0 
O32 O2- 2 i 0.7006(3) 0.3697(4) 0.1970(2) 1. 0 0 
Ca1 Ca2+ 2 i 0.2651(2) 0.9864(1) 0.0867(1) 1. 0 0 
Ca2 Ca2+ 2 i 0.2692(2) 0.0312(1) 0.5435(1) 1. 0 0 
Ca3 Ca2+ 2 i 0.7737(2) 0.5359(1) 0.5412(1) 1. 0 0 
Ca4 Ca2+ 2 i 0.7634(2) 0.5052(1) 0.0747(1) 1. 0 0 
Si1 Si4+ 2 i 0.0092(2) 0.1592(1) 0.1044(1) 1. 0 0.662(3) 
Al1 Al3+ 2 i 0.0066(2) 0.1610(1) 0.6112(1) 1. 0 0.609(5) 
Si2 Si4+ 2 i 0.5062(2) 0.6560(1) 0.6042(1) 1. 0 0.631(4) 
Al2 Al3+ 2 i 0.4984(2) 0.6658(1) 0.1128(1) 1. 0 0.605(3) 
Al3 Al3+ 2 i 0.9912(2) 0.8152(1) 0.1176(1) 1. 0 0.598(4) 
Si3 Si4+ 2 i 0.0061(2) 0.8154(1) 0.6135(1) 1. 0 0.558(3) 
Al4 Al3+ 2 i 0.5073(3) 0.3145(1) 0.6212(1) 1. 0 0.622(5) 
Si4 Si4+ 2 i 0.5041(2) 0.3204(1) 0.1099(1) 1. 0 0.613(4) 
Al5 Al3+ 2 i 0.6845(2) 0.1130(1) 0.1519(1) 1. 0 0.637(5) 
Si5 Si4+ 2 i 0.6814(2) 0.1034(1) 0.6646(1) 1. 0 0.596(3) 
Al6 Al3+ 2 i 0.1907(2) 0.6110(1) 0.6674(1) 1. 0 0.664(3) 
Si6 Si4+ 2 i 0.1713(2) 0.6067(1) 0.1495(1) 1. 0 0.670(6) 
Si7 Si4+ 2 i 0.6742(2) 0.8829(1) 0.1876(1) 1. 0 0.624(5) 
Al7 Al3+ 2 i 0.6809(2) 0.8719(1) 0.6725(1) 1. 0 0.572(4) 
Si8 Si4+ 2 i 0.1762(2) 0.3789(1) 0.6734(1) 1. 0 0.666(3) 
Al8 Al3+ 2 i 0.1852(2) 0.3775(1) 0.1816(1) 1. 0 0.657(5) 

#End of data_31127-ICSD


