data_26870-ICSD
#?2014 by Fachinformationszentrum Karlsruhe, and the U.S. Secretary of 
#Commerce on behalf of the United States.  All rights reserved.
_database_code_ICSD                26870
_audit_creation_date               1986/09/30
_audit_update_record               2005/10/01
_chemical_name_systematic          'Sodium Hydrogendifluoride'
_chemical_formula_structural       'Na (H F2)'
_chemical_formula_sum              'H1 F2 Na1'
_publ_section_title
;
Die Struktur des kristallisierten Natriumhydrofluorids und die 
Gestalt des Ions H F2-
;
loop_
_citation_id
_citation_journal_abbrev
_citation_year
_citation_journal_volume
_citation_page_first
_citation_page_last
_citation_journal_id_ASTM
primary 'Zeitschrift fuer Physikalische Chemie (Leipzig)'
 1926 123 151 159 ZPCLAH
_publ_author_name                  'Andersen, C.C.;Hassel, O.'
_cell_length_a                     5.05
_cell_length_b                     5.05
_cell_length_c                     5.05
_cell_angle_alpha                  40.03
_cell_angle_beta                   40.03
_cell_angle_gamma                  40.03
_cell_volume                       48.01
_cell_formula_units_Z              1
_symmetry_space_group_name_H-M     'R -3 m R'
_symmetry_Int_Tables_number        166
loop_
_symmetry_equiv_pos_site_id
_symmetry_equiv_pos_as_xyz
  1	'-z, -y, -x'
  2	'-z, -x, -y'
  3	'-x, -z, -y'
  4	'-y, -z, -x'
  5	'-y, -x, -z'
  6	'-x, -y, -z'
  7	'z, y, x'
  8	'z, x, y'
  9	'x, z, y'
 10	'y, z, x'
 11	'y, x, z'
 12	'x, y, z'
loop_
_atom_type_symbol
_atom_type_oxidation_number
F1-	-1
H1+	1
Na1+	1
loop_
_atom_site_label
_atom_site_type_symbol
_atom_site_symmetry_multiplicity
_atom_site_Wyckoff_symbol
_atom_site_fract_x
_atom_site_fract_y
_atom_site_fract_z
_atom_site_occupancy
_atom_site_attached_hydrogens
Na1 Na1+ 1 a 0 0 0 1. 0 
H1 H1+ 1 b 0.5 0.5 0.5 1. 0 
F1 F1- 2 c 0.41 0.41 0.41 1. 0 

#End of data_26870-ICSD


