data_420876-ICSD
#?2014 by Fachinformationszentrum Karlsruhe, and the U.S. Secretary of 
#Commerce on behalf of the United States.  All rights reserved.
_database_code_ICSD                420876
_audit_creation_date               2010/08/01
_chemical_name_systematic
;
Dineodymium(III) Magnesioiridate(IV)
;
_chemical_formula_structural       'Nd2 (Mg Ir O6)'
_chemical_formula_sum              'Ir1 Mg1 Nd2 O6'
_publ_section_title
;
Crystal growth, structure and magnetic properties of the double 
perovskites Ln2 Mg Ir O6 (Ln = Pr, Nd, Sm-Gd)
;
loop_
_citation_id
_citation_journal_abbrev
_citation_year
_citation_journal_volume
_citation_journal_issue
_citation_page_first
_citation_page_last
_citation_journal_id_ASTM
primary 'Journal of Solid State Chemistry' 2010 183 2 465 470 JSSCBI
_publ_author_name
;
Mugavero III, S.J.;Fox, A.H.;Smith, M.D.;zur Loye, H.C.
;
_cell_length_a                     5.4787(2)
_cell_length_b                     5.6517(2)
_cell_length_c                     7.8125(3)
_cell_angle_alpha                  90.00
_cell_angle_beta                   90.0210(10)
_cell_angle_gamma                  90.00
_cell_volume                       241.91
_cell_formula_units_Z              2
_symmetry_space_group_name_H-M     'P 1 21/n 1'
_symmetry_Int_Tables_number        14
_refine_ls_R_factor_all            .0281
loop_
_symmetry_equiv_pos_site_id
_symmetry_equiv_pos_as_xyz
  1	'-x+.5, y+.5, -z+.5'
  2	'-x, -y, -z'
  3	'x+.5, -y+.5, z+.5'
  4	'x, y, z'
loop_
_atom_type_symbol
_atom_type_oxidation_number
Ir4+	4
Mg2+	2
Nd3+	3
O2-	-2
loop_
_atom_site_label
_atom_site_type_symbol
_atom_site_symmetry_multiplicity
_atom_site_Wyckoff_symbol
_atom_site_fract_x
_atom_site_fract_y
_atom_site_fract_z
_atom_site_occupancy
_atom_site_attached_hydrogens
_atom_site_U_iso_or_equiv
Ir1 Ir4+ 2 b 0.5000 0.5000 0.0000 1 0 0.00697(7) 
Nd1 Nd3+ 4 e 0.48692(6) 0.05431(5) 0.25044(5) 1 0 0.01067(8) 
Mg1 Mg2+ 2 a 0.0000 0.0000 0.0000 1 0 0.0076(4) 
O1 O2- 4 e 0.2046(9) 0.3000(9) 0.0471(7) 1 0 0.0110(8) 
O2 O2- 4 e 0.5927(9) 0.4735(8) 0.2467(7) 1 0 0.0114(8) 
O3 O2- 4 e 0.3044(9) 0.7933(9) 0.0479(7) 1 0 0.0117(8) 

loop_
_atom_site_aniso_label
_atom_site_aniso_type_symbol
_atom_site_aniso_U_11
_atom_site_aniso_U_22
_atom_site_aniso_U_33
_atom_site_aniso_U_12
_atom_site_aniso_U_13
_atom_site_aniso_U_23
Ir1 Ir4+ 0.00792(12) 0.00676(12) 0.00624(12) -0.00021(10) -0.00057(14) 
-0.00022(12)
Nd1 Nd3+ 0.01127(14) 0.01126(14) 0.00947(14) -0.00068(11) -0.00133(15) 
0.00007(9)
Mg1 Mg2+ 0.0052(11) 0.0074(10) 0.0102(12) -0.0013(10) 0.0009(15) 0.0017(12)
O1 O2- 0.0111(19) 0.0095(19) 0.012(2) -0.0043(15) 0.0018(16) -0.0006(16)
O2 O2- 0.0124(19) 0.0152(19) 0.0065(19) -0.0004(14) -0.0020(16) 0.0004(18)
O3 O2- 0.014(2) 0.0102(19) 0.011(2) 0.0015(16) -0.0024(16) -0.0002(16)
#End of data_420876-ICSD


