data_6145-ICSD
#?2014 by Fachinformationszentrum Karlsruhe, and the U.S. Secretary of 
#Commerce on behalf of the United States.  All rights reserved.
_database_code_ICSD                6145
_audit_creation_date               1980/01/01
_audit_update_record               2012/08/01
_chemical_name_systematic          'Neodymium Pentasodium Tungstate'
_chemical_formula_structural       'Nd Na5 (W O4)4'
_chemical_formula_sum              'Na5 Nd1 O16 W4'
_publ_section_title
;
Crystal structure and fluorescence lifetime of a laser material Nd 
Na5 (W O4)4
;
loop_
_citation_id
_citation_journal_abbrev
_citation_year
_citation_journal_volume
_citation_page_first
_citation_page_last
_citation_journal_id_ASTM
primary 'Materials Research Bulletin' 1974 9 775 780 MRBUAC
_publ_author_name                  'Hong, H.Y.-P.;Dwight, K.'
_cell_length_a                     11.559(2)
_cell_length_b                     11.559(2)
_cell_length_c                     11.453(2)
_cell_angle_alpha                  90.
_cell_angle_beta                   90.
_cell_angle_gamma                  90.
_cell_volume                       1530.24
_cell_formula_units_Z              4
_symmetry_space_group_name_H-M     'I 41/a S'
_symmetry_Int_Tables_number        88
_refine_ls_R_factor_all            .077
loop_
_symmetry_equiv_pos_site_id
_symmetry_equiv_pos_as_xyz
  1	'y, -x+.5, z+.25'
  2	'-y, x+.5, z+.25'
  3	'y, -x, -z'
  4	'-y, x, -z'
  5	'-x, -y+.5, -z+.25'
  6	'x, y+.5, -z+.25'
  7	'-x, -y, z'
  8	'x, y, z'
  9	'y+.5, -x, z+.75'
 10	'-y+.5, x, z+.75'
 11	'y+.5, -x+.5, -z+.5'
 12	'-y+.5, x+.5, -z+.5'
 13	'-x+.5, -y, -z+.75'
 14	'x+.5, y, -z+.75'
 15	'-x+.5, -y+.5, z+.5'
 16	'x+.5, y+.5, z+.5'
loop_
_atom_type_symbol
_atom_type_oxidation_number
Na1+	1
Nd3+	3
O2-	-2
W6+	6
loop_
_atom_site_label
_atom_site_type_symbol
_atom_site_symmetry_multiplicity
_atom_site_Wyckoff_symbol
_atom_site_fract_x
_atom_site_fract_y
_atom_site_fract_z
_atom_site_occupancy
_atom_site_attached_hydrogens
Nd1 Nd3+ 4 b 0 0 0.5 1. 0 
Na1 Na1+ 4 a 0.5 0.5 0.5 1. 0 
Na2 Na1+ 16 f 0.296(1) 0.125(1) 0.037(1) 1. 0 
W1 W6+ 16 f 0.1814(1) 0.4045(1) 0.0150(1) 1. 0 
O1 O2- 16 f 0.062(2) 0.382(2) 0.921(2) 1. 0 
O2 O2- 16 f 0.180(2) 0.285(2) 0.109(2) 1. 0 
O3 O2- 16 f 0.317(2) 0.415(2) 0.939(2) 1. 0 
O4 O2- 16 f 0.151(2) 0.530(2) 0.098(2) 1. 0 

#End of data_6145-ICSD


