data_16578-ICSD
#?2014 by Fachinformationszentrum Karlsruhe, and the U.S. Secretary of 
#Commerce on behalf of the United States.  All rights reserved.
_database_code_ICSD                16578
_audit_creation_date               1980/01/01
_audit_update_record               2013/02/01
_chemical_name_systematic          'Silver Antimony Sulfide'
_chemical_formula_structural       'Ag Sb S2'
_chemical_formula_sum              'Ag1 S2 Sb1'
_chemical_name_mineral             Miargyrite
_publ_section_title
;
A redetermination of the structure of miargyrite, Ag Sb S2
;
loop_
_citation_id
_citation_journal_abbrev
_citation_year
_citation_journal_volume
_citation_journal_issue
_citation_page_first
_citation_page_last
_citation_journal_id_ASTM
primary 'Acta Crystallographica (1,1948-23,1967)' 1964 17- 847 851 ACCRA9
2 'Inorganic Materials' 1975 11 10 1610 1612 INOMAF
3 'Phase Transition' 1992 38- 127 220 PHTRDP
_publ_author_name                  'Knowles, C.R.'
_cell_length_a                     12.862(13)
_cell_length_b                     4.41(4)
_cell_length_c                     13.22(1)
_cell_angle_alpha                  90.
_cell_angle_beta                   98.63(8)
_cell_angle_gamma                  90.
_cell_volume                       741.37
_cell_formula_units_Z              8
_symmetry_space_group_name_H-M     'C 1 c 1'
_symmetry_Int_Tables_number        9
_refine_ls_R_factor_all            .08
loop_
_symmetry_equiv_pos_site_id
_symmetry_equiv_pos_as_xyz
  1	'x, -y, z+.5'
  2	'x, y, z'
  3	'x+.5, -y+.5, z+.5'
  4	'x+.5, y+.5, z'
loop_
_atom_type_symbol
_atom_type_oxidation_number
Ag1+	1
S2-	-2
Sb3+	3
loop_
_atom_site_label
_atom_site_type_symbol
_atom_site_symmetry_multiplicity
_atom_site_Wyckoff_symbol
_atom_site_fract_x
_atom_site_fract_y
_atom_site_fract_z
_atom_site_occupancy
_atom_site_attached_hydrogens
_atom_site_B_iso_or_equiv
Ag1 Ag1+ 4 a 0 0 0.25 1. 0 1.16(6) 
Ag2 Ag1+ 4 a 0.0091(4) 0.5173(23) 0.4996(4) 1. 0 1.21(6) 
Sb1 Sb3+ 4 a 0.2585(2) 0.9568(16) 0.6207(4) 1. 0 0.95(6) 
Sb2 Sb3+ 4 a 0.7486(4) 0.0526(17) 0.3652(4) 1. 0 0.92(6) 
S1 S2- 4 a 0.1457(8) 0.3754(46) 0.6875(10) 1. 0 1.52(22) 
S2 S2- 4 a 0.8612(9) 0.6709(52) 0.2941(11) 1. 0 0.90(16) 
S3 S2- 4 a 0.1161(8) 0.1815(46) 0.4072(8) 1. 0 1.72(19) 
S4 S2- 4 a 0.8966(10) 0.8399(55) 0.5757(10) 1. 0 0.40(14) 

#End of data_16578-ICSD


