data_42035-ICSD
#?2014 by Fachinformationszentrum Karlsruhe, and the U.S. Secretary of 
#Commerce on behalf of the United States.  All rights reserved.
_database_code_ICSD                42035
_audit_creation_date               2000/07/15
_audit_update_record               2014/08/01
_chemical_name_systematic          'Tetrasodium Tetrathiostannate'
_chemical_formula_structural       'Na4 (Sn S4)'
_chemical_formula_sum              'Na4 S4 Sn1'
_publ_section_title
;
Etude de la tetracoordination de l'etain dans deux 
orthothiostannates: Na4 Sn S4 et Ba2 Sn S4 (alpha)
;
loop_
_citation_id
_citation_journal_abbrev
_citation_year
_citation_journal_volume
_citation_page_first
_citation_page_last
_citation_journal_id_ASTM
primary 'Journal of Solid State Chemistry' 1975 14 319 327 JSSCBI
2 'Crystal Structure Communications' 1973 2 157 158 CSCMCS
3
;
Comptes Rendus Hebdomadaires des Seances de l`Academie des Sciences, 
Serie C, Sciences Chimiques (1966-)
;
 1972 275 741 744 CHDCAQ
_publ_author_name
;
Jumas, J.C.;Philippot, E.;Vermot-Gaud-Daniel, F.;Ribes, M.;Maurin, M.
;
_cell_length_a                     7.837(3)
_cell_length_b                     7.837(3)
_cell_length_c                     6.950(3)
_cell_angle_alpha                  90.
_cell_angle_beta                   90.
_cell_angle_gamma                  90.
_cell_volume                       426.86
_cell_formula_units_Z              2
_symmetry_space_group_name_H-M     'P -4 21 c'
_symmetry_Int_Tables_number        114
_refine_ls_R_factor_all            .088
loop_
_symmetry_equiv_pos_site_id
_symmetry_equiv_pos_as_xyz
  1	'y+.5, x+.5, z+.5'
  2	'y, -x, -z'
  3	'-y+.5, -x+.5, z+.5'
  4	'-y, x, -z'
  5	'x+.5, -y+.5, -z+.5'
  6	'-x, -y, z'
  7	'-x+.5, y+.5, -z+.5'
  8	'x, y, z'
loop_
_atom_type_symbol
_atom_type_oxidation_number
Na1+	1
S2-	-2
Sn4+	4
loop_
_atom_site_label
_atom_site_type_symbol
_atom_site_symmetry_multiplicity
_atom_site_Wyckoff_symbol
_atom_site_fract_x
_atom_site_fract_y
_atom_site_fract_z
_atom_site_occupancy
_atom_site_attached_hydrogens
Na1 Na1+ 8 e 0.1997(8) 0.5910(9) 0.0313(1) 1. 0 
Sn1 Sn4+ 2 a 0 0 0 1. 0 
S1 S2- 8 e 0.0922(4) 0.2376(5) 0.1883(7) 1. 0 

loop_
_atom_site_aniso_label
_atom_site_aniso_type_symbol
_atom_site_aniso_U_11
_atom_site_aniso_U_22
_atom_site_aniso_U_33
_atom_site_aniso_U_12
_atom_site_aniso_U_13
_atom_site_aniso_U_23
Na1 Na1+ 0.032(3) 0.030(3) 0.033(4) 0.003(3) 0.002(3) 0.001(3)
Sn1 Sn4+ 0.0194(5) 0.0194(5) 0.0184(15) 0 0 0
S1 S2- 0.019(1) 0.024(2) 0.022(2) 0.002(1) 0.000(2) 0.003(2)
#End of data_42035-ICSD


