data_86316-ICSD
#?2014 by Fachinformationszentrum Karlsruhe, and the U.S. Secretary of 
#Commerce on behalf of the United States.  All rights reserved.
_database_code_ICSD                86316
_audit_creation_date               1999/11/30
_audit_update_record               2006/04/01
_chemical_name_systematic          'Calcium Sulfate(VI) - Gamma'
_chemical_formula_structural       'Ca (S O4)'
_chemical_formula_sum              'Ca1 O4 S1'
_publ_section_title
;
A crystallographic study of the low-temperature dehydration products 
of gypsum, Ca S O4 . 2(H2 O): hemihydrate Ca S O4 . 0.50(H2 O) and 
gamma-(Ca S O4)
;
loop_
_citation_id
_citation_journal_abbrev
_citation_year
_citation_journal_volume
_citation_page_first
_citation_page_last
_citation_journal_id_ASTM
primary 'American Mineralogist' 1984 69 910 918 AMMIAY
_publ_author_name
;
Lager, G.A.;Armbruster, T.;Rotella, F.J.;Jorgensen, J.D.;Hinks, D.G.
;
_cell_length_a                     6.9694(8)
_cell_length_b                     6.9694(8)
_cell_length_c                     6.3033(4)
_cell_angle_alpha                  90.
_cell_angle_beta                   90.
_cell_angle_gamma                  120.
_cell_volume                       265.15
_cell_formula_units_Z              3
_symmetry_space_group_name_H-M     'P 62 2 2'
_symmetry_Int_Tables_number        180
_refine_ls_R_factor_all            .024
loop_
_symmetry_equiv_pos_site_id
_symmetry_equiv_pos_as_xyz
  1	'x, x-y, -z+.3333'
  2	'-x+y, y, -z'
  3	'-y, -x, -z+.6667'
  4	'-x, -x+y, -z+.3333'
  5	'x-y, -y, -z'
  6	'y, x, -z+.6667'
  7	'x-y, x, z+.3333'
  8	'y, -x+y, z+.6667'
  9	'-x, -y, z'
 10	'-x+y, -x, z+.3333'
 11	'-y, x-y, z+.6667'
 12	'x, y, z'
loop_
_atom_type_symbol
_atom_type_oxidation_number
Ca2+	2
O2-	-2
S6+	6
loop_
_atom_site_label
_atom_site_type_symbol
_atom_site_symmetry_multiplicity
_atom_site_Wyckoff_symbol
_atom_site_fract_x
_atom_site_fract_y
_atom_site_fract_z
_atom_site_occupancy
_atom_site_attached_hydrogens
_atom_site_B_iso_or_equiv
Ca1 Ca2+ 3 c 0.5 0 0 1. 0 1.17(10) 
S1 S6+ 3 d 0.5 0 0.5 1. 0 0.99(8) 
O1 O2- 12 k 0.4458(3) 0.1347(3) 0.3578(3) 1. 0 1.44(6) 

#End of data_86316-ICSD


