data_158975-ICSD
#?2014 by Fachinformationszentrum Karlsruhe, and the U.S. Secretary of 
#Commerce on behalf of the United States.  All rights reserved.
_database_code_ICSD                158975
_audit_creation_date               2008/08/01
_chemical_name_systematic          'Potassium Manganese Vanadate'
_chemical_formula_structural       'K Mn (V O4)'
_chemical_formula_sum              'K1 Mn1 O4 V1'
_publ_section_title
;
Structural and magnetic properties of a new type of ordered oxygen-
deficient perovskite, K Mn V O4
;
loop_
_citation_id
_citation_journal_abbrev
_citation_year
_citation_journal_volume
_citation_page_first
_citation_page_last
_citation_journal_id_ASTM
primary 'Chemistry of Materials' 2007 19 5563 5569 CMATEX
_publ_author_name
;
Ben Yahia, H.;Gaudin, E.;Lee, C.;Whangbo Myunghwan;Darriet, J.
;
_cell_length_a                     12.081(7)
_cell_length_b                     5.645(2)
_cell_length_c                     23.804(12)
_cell_angle_alpha                  90
_cell_angle_beta                   103.45(2)
_cell_angle_gamma                  90
_cell_volume                       1578.84
_cell_formula_units_Z              16
_symmetry_space_group_name_H-M     'P 1 21/n 1'
_symmetry_Int_Tables_number        14
_refine_ls_R_factor_all            .0304
loop_
_symmetry_equiv_pos_site_id
_symmetry_equiv_pos_as_xyz
  1	'-x+.5, y+.5, -z+.5'
  2	'-x, -y, -z'
  3	'x+.5, -y+.5, z+.5'
  4	'x, y, z'
loop_
_atom_type_symbol
_atom_type_oxidation_number
K1+	1
Mn2+	2
O2-	-2
V5+	5
loop_
_atom_site_label
_atom_site_type_symbol
_atom_site_symmetry_multiplicity
_atom_site_Wyckoff_symbol
_atom_site_fract_x
_atom_site_fract_y
_atom_site_fract_z
_atom_site_occupancy
_atom_site_attached_hydrogens
_atom_site_U_iso_or_equiv
Mn1 Mn2+ 4 e 0.82354(2) 0.24114(4) 0.441643(12) 1 0 0.00894(6) 
Mn2 Mn2+ 4 e 0.55987(2) 0.23481(4) 0.682563(11) 1 0 0.00765(6) 
V1 V5+ 4 e 0.76666(3) 0.75043(5) 0.345541(13) 1 0 0.00746(7) 
V2 V5+ 4 e 0.13559(3) 0.27321(5) 0.463837(13) 1 0 0.00759(7) 
V3 V5+ 4 e 0.38596(2) 0.27248(5) 0.207757(12) 1 0 0.00633(6) 
V4 V5+ 4 e 0.50481(2) 0.27255(5) 0.429752(12) 1 0 0.00666(6) 
Mn3 Mn2+ 4 e 0.99521(2) 0.77983(5) 0.424076(13) 1 0 0.01036(7) 
Mn4 Mn2+ 4 e 0.38590(2) 0.25918(5) 0.561929(12) 1 0 0.01011(7) 
K1 K1+ 4 e 0.30508(4) 0.78492(8) 0.435752(19) 1 0 0.01744(11) 
K2 K1+ 4 e 0.87867(4) 0.76243(7) 0.19183(2) 1 0 0.01738(11) 
K3 K1+ 4 e 0.26738(4) 0.27113(7) 0.314432(18) 1 0 0.01290(10) 
K4 K1+ 4 e 0.94384(4) 0.28224(8) 0.31348(2) 1 0 0.02187(14) 
O1 O2- 4 e 0.22459(11) 0.1180(2) 0.52017(6) 1 0 0.0125(3) 
O2 O2- 4 e 0.35029(11) 0.6556(2) 0.55434(6) 1 0 0.0124(3) 
O3 O2- 4 e 0.80879(12) 0.0352(2) 0.36414(6) 1 0 0.0137(4) 
O4 O2- 4 e 0.00444(12) 0.1322(2) 0.45036(7) 1 0 0.0168(4) 
O5 O2- 4 e 0.55846(11) 0.4996(2) 0.61322(6) 1 0 0.0127(4) 
O6 O2- 4 e 0.11946(11) 0.5769(2) 0.47788(6) 1 0 0.0115(3) 
O7 O2- 4 e 0.85518(11) 0.5560(2) 0.39432(6) 1 0 0.0117(3) 
O8 O2- 4 e 0.45451(13) 0.2490(2) 0.49008(6) 1 0 0.0147(4) 
O9 O2- 4 e 0.57138(12) 0.9704(2) 0.74905(6) 1 0 0.0127(4) 
O10 O2- 4 e 0.77501(13) 0.6824(3) 0.27941(6) 1 0 0.0184(4) 
O11 O2- 4 e 0.73998(11) 0.2229(2) 0.68737(6) 1 0 0.0131(3) 
O12 O2- 4 e 0.56933(12) 0.4832(2) 0.75056(6) 1 0 0.0129(4) 
O13 O2- 4 e 0.51778(12) 0.9893(2) 0.60871(6) 1 0 0.0133(4) 
O14 O2- 4 e 0.18679(15) 0.2480(3) 0.40587(7) 1 0 0.0232(5) 
O15 O2- 4 e 0.37460(11) 0.2791(2) 0.65047(6) 1 0 0.0120(3) 
O16 O2- 4 e 0.05592(13) 0.7680(3) 0.35068(6) 1 0 0.0174(4) 

loop_
_atom_site_aniso_label
_atom_site_aniso_type_symbol
_atom_site_aniso_U_11
_atom_site_aniso_U_22
_atom_site_aniso_U_33
_atom_site_aniso_U_12
_atom_site_aniso_U_13
_atom_site_aniso_U_23
Mn1 Mn2+ 0.00954(11) 0.00904(10) 0.00803(10) 0.00015(8) 0.00165(8) 
-0.00109(8)
Mn2 Mn2+ 0.00792(10) 0.00728(9) 0.00727(10) -0.00004(7) 0.00078(8) 
-0.00023(7)
V1 V5+ 0.00743(11) 0.00702(10) 0.00795(11) -0.00041(8) 0.00183(8) 
-0.00025(8)
V2 V5+ 0.00818(11) 0.00707(10) 0.00755(11) -0.00009(8) 0.00188(8) 
-0.00060(8)
V3 V5+ 0.00714(11) 0.00580(10) 0.00613(11) -0.00017(8) 0.00173(8) 
-0.00025(8)
V4 V5+ 0.00770(11) 0.00570(10) 0.00667(11) 0.00007(8) 0.00188(8) 
-0.00019(8)
Mn3 Mn2+ 0.01100(12) 0.00972(10) 0.01045(11) -0.00081(8) 0.00265(9) 
-0.00016(8)
Mn4 Mn2+ 0.01161(12) 0.01009(10) 0.00898(11) -0.00075(8) 0.00310(9) 
-0.00038(8)
K1 K1+ 0.01651(19) 0.02343(19) 0.01354(18) 0.00275(14) 0.00586(14) 
0.00182(14)
K2 K1+ 0.01455(17) 0.01479(16) 0.01999(19) -0.00160(13) -0.00171(14) 
0.00267(13)
K3 K1+ 0.01524(17) 0.01169(14) 0.01209(16) -0.00155(12) 0.00383(13) 
-0.00057(12)
K4 K1+ 0.0269(2) 0.01689(18) 0.0278(2) -0.00110(15) 0.0184(2) -0.00001(15)
O1 O2- 0.0127(6) 0.0111(5) 0.0121(6) -0.0001(4) -0.0008(5) 0.0021(4)
O2 O2- 0.0075(5) 0.0144(5) 0.0151(6) -0.0001(4) 0.0020(4) -0.0001(4)
O3 O2- 0.0208(7) 0.0094(5) 0.0108(6) -0.0048(4) 0.0034(5) -0.0017(4)
O4 O2- 0.0087(6) 0.0102(5) 0.0297(8) -0.0003(4) 0.0005(5) -0.0030(5)
O5 O2- 0.0122(6) 0.0113(5) 0.0138(6) 0.0022(4) 0.0017(5) 0.0047(4)
O6 O2- 0.0148(6) 0.0085(5) 0.0095(5) 0.0004(4) -0.0004(4) -0.0015(4)
O7 O2- 0.0113(6) 0.0098(5) 0.0138(6) 0.0005(4) 0.0028(5) 0.0028(4)
O8 O2- 0.0199(7) 0.0156(6) 0.0111(6) -0.0001(5) 0.0085(5) 0.0005(4)
O9 O2- 0.0152(6) 0.0091(5) 0.0134(6) 0.0014(4) 0.0023(5) 0.0039(4)
O10 O2- 0.0232(8) 0.0219(7) 0.0108(6) -0.0001(5) 0.0054(5) -0.0031(5)
O11 O2- 0.0081(5) 0.0142(5) 0.0162(6) 0.0006(4) 0.0009(4) 0.0006(4)
O12 O2- 0.0160(6) 0.0089(5) 0.0127(6) -0.0007(4) 0.0014(5) -0.0036(4)
O13 O2- 0.0187(7) 0.0096(5) 0.0113(6) -0.0012(4) 0.0027(5) -0.0036(4)
O14 O2- 0.0339(9) 0.0246(7) 0.0152(7) 0.0064(6) 0.0142(7) 0.0020(5)
O15 O2- 0.0079(5) 0.0161(5) 0.0116(6) -0.0010(4) 0.0015(4) -0.0004(4)
O16 O2- 0.0213(7) 0.0223(6) 0.0113(6) -0.0013(5) 0.0093(5) -0.0002(5)
#End of data_158975-ICSD


