data_159001-ICSD
#?2014 by Fachinformationszentrum Karlsruhe, and the U.S. Secretary of 
#Commerce on behalf of the United States.  All rights reserved.
_database_code_ICSD                159001
_audit_creation_date               2008/08/01
_audit_update_record               2013/08/01
_chemical_name_systematic          'Potassium Bis(thiocyanato)aurate'
_chemical_formula_structural       'K (Au (S C N)2)'
_chemical_formula_sum              'C2 Au1 K1 N2 S2'
_publ_section_title
;
Emission energy correlates with inverse of gold-gold distance for 
various (Au (S C N)2)(-) salts
;
loop_
_citation_id
_citation_journal_abbrev
_citation_year
_citation_journal_volume
_citation_page_first
_citation_page_last
_citation_journal_id_ASTM
primary 'Journal of the American Chemical Society' 2004 126 12 13 JACSAT
_publ_author_name
;
Coker, N.L.;Krause Bauer, J.A.;Elder, R.C.
;
_cell_length_a                     13.1181(10)
_cell_length_b                     6.0494(5)
_cell_length_c                     17.7732(14)
_cell_angle_alpha                  90.00
_cell_angle_beta                   110.3870(10)
_cell_angle_gamma                  90.00
_cell_volume                       1322.07
_cell_formula_units_Z              8
_symmetry_space_group_name_H-M     'C 1 2/c 1'
_symmetry_Int_Tables_number        15
_refine_ls_R_factor_all            .0376
loop_
_symmetry_equiv_pos_site_id
_symmetry_equiv_pos_as_xyz
  1	'x, -y, z+.5'
  2	'-x, -y, -z'
  3	'-x, y, -z+.5'
  4	'x, y, z'
  5	'x+.5, -y+.5, z+.5'
  6	'-x+.5, -y+.5, -z'
  7	'-x+.5, y+.5, -z+.5'
  8	'x+.5, y+.5, z'
loop_
_atom_type_symbol
_atom_type_oxidation_number
Au1+	1
C4+	4
K1+	1
N3-	-3
S2-	-2
loop_
_atom_site_label
_atom_site_type_symbol
_atom_site_symmetry_multiplicity
_atom_site_Wyckoff_symbol
_atom_site_fract_x
_atom_site_fract_y
_atom_site_fract_z
_atom_site_occupancy
_atom_site_attached_hydrogens
_atom_site_U_iso_or_equiv
K1 K1+ 8 f 0.66867(14) -0.5216(3) 0.55217(10) 1. 0 0.0305(4) 
Au1 Au1+ 4 e 1.0000 -0.17733(5) 0.7500 1. 0 0.01737(15) 
S1 S2- 8 f 0.81401(14) -0.1951(3) 0.72052(11) 1. 0 0.0243(4) 
N1 N3- 8 f 0.7401(5) 0.0334(12) 0.5725(4) 1. 0 0.0324(15) 
C1 C4+ 8 f 0.7716(5) -0.0532(12) 0.6343(5) 1. 0 0.0234(15) 
Au2 Au1+ 4 e 1.0000 -0.67430(5) 0.7500 1 0 0.01552(14) 
S2 S2- 8 f 0.99404(16) -0.6995(3) 0.61889(11) 1 0 0.0238(4) 
N2 N3- 8 f 0.9859(5) -0.2590(10) 0.5642(4) 1 0 0.0281(14) 
C2 C4+ 8 f 0.9885(5) -0.4347(10) 0.5881(4) 1 0 0.0185(14) 

loop_
_atom_site_aniso_label
_atom_site_aniso_type_symbol
_atom_site_aniso_U_11
_atom_site_aniso_U_22
_atom_site_aniso_U_33
_atom_site_aniso_U_12
_atom_site_aniso_U_13
_atom_site_aniso_U_23
K1 K1+ 0.0370(9) 0.0219(8) 0.0324(9) -0.0044(7) 0.0119(7) 0.0013(7)
Au1 Au1+ 0.0232(2) 0.0116(2) 0.0161(2) 0.000 0.00546(17) 0.000
S1 S2- 0.0254(9) 0.0196(9) 0.0290(10) 0.0013(7) 0.0109(8) 0.0050(7)
N1 N3- 0.016(3) 0.045(4) 0.030(4) -0.007(3) 0.000(3) 0.010(3)
C1 C4+ 0.012(3) 0.029(4) 0.031(4) -0.002(3) 0.009(3) -0.004(3)
Au2 Au1+ 0.0213(2) 0.0113(2) 0.0145(2) 0.000 0.00698(16) 0.000
S2 S2- 0.0425(11) 0.0136(8) 0.0184(9) -0.0036(7) 0.0144(8) -0.0015(6)
N2 N3- 0.043(4) 0.023(3) 0.024(3) 0.001(3) 0.018(3) 0.001(3)
C2 C4+ 0.021(3) 0.017(4) 0.017(3) -0.004(2) 0.006(3) 0.000(2)
#End of data_159001-ICSD


