data_415714-ICSD
#?2014 by Fachinformationszentrum Karlsruhe, and the U.S. Secretary of 
#Commerce on behalf of the United States.  All rights reserved.
_database_code_ICSD                415714
_audit_creation_date               2006/10/01
_audit_update_record               2010/08/01
_chemical_name_systematic
;
Barium Dicalcium Dodecanitridohexaphosphate(V)
;
_chemical_formula_structural       'Ba Ca2 (P6 N12)'
_chemical_formula_sum              'Ba1 Ca2 N12 P6'
_publ_section_title
;
Hochdrucksynthese von Ba Sr2 P6 N12 und Ba Ca2 P6 N12 und 
Strukturvergleich der Reihe Ba P2 N4, Ba Ca2 P6 N12 und Ba Sr2 P6 N12
;
loop_
_citation_id
_citation_journal_abbrev
_citation_year
_citation_journal_volume
_citation_journal_issue
_citation_page_first
_citation_page_last
_citation_journal_id_ASTM
primary 'Zeitschrift fuer Anorganische und Allgemeine Chemie (1950) (DE)'
 2006 632 2 231 237 ZAACAB
_publ_author_name                  'Karau, F.;Schnick, W.'
_cell_length_a                     9.9581(5)
_cell_length_b                     9.9581
_cell_length_c                     9.9581
_cell_angle_alpha                  90.
_cell_angle_beta                   90.
_cell_angle_gamma                  90.
_cell_volume                       987.48
_cell_formula_units_Z              4
_symmetry_space_group_name_H-M     'P a -3'
_symmetry_Int_Tables_number        205
_refine_ls_R_factor_all            .0804
loop_
_symmetry_equiv_pos_site_id
_symmetry_equiv_pos_as_xyz
  1	'-z+.5, x+.5, y'
  2	'z+.5, x, -y+.5'
  3	'z, -x+.5, y+.5'
  4	'-z, -x, -y'
  5	'y, -z+.5, x+.5'
  6	'-y+.5, z+.5, x'
  7	'y+.5, z, -x+.5'
  8	'-y, -z, -x'
  9	'x+.5, y, -z+.5'
 10	'x, -y+.5, z+.5'
 11	'-x+.5, y+.5, z'
 12	'-x, -y, -z'
 13	'z+.5, -x+.5, -y'
 14	'-z+.5, -x, y+.5'
 15	'-z, x+.5, -y+.5'
 16	'z, x, y'
 17	'-y, z+.5, -x+.5'
 18	'y+.5, -z+.5, -x'
 19	'-y+.5, -z, x+.5'
 20	'y, z, x'
 21	'-x+.5, -y, z+.5'
 22	'-x, y+.5, -z+.5'
 23	'x+.5, -y+.5, -z'
 24	'x, y, z'
loop_
_atom_type_symbol
_atom_type_oxidation_number
Ba2+	2
Ca2+	2
N3-	-3
P5+	5
loop_
_atom_site_label
_atom_site_type_symbol
_atom_site_symmetry_multiplicity
_atom_site_Wyckoff_symbol
_atom_site_fract_x
_atom_site_fract_y
_atom_site_fract_z
_atom_site_occupancy
_atom_site_attached_hydrogens
_atom_site_U_iso_or_equiv
Ba1 Ba2+ 4 a 0.0 0.0 0.0 1.0 0 0.02365 
Ca1 Ca2+ 8 c 0.37618(28) 0.37618(28) 0.37618(28) 1.0 0 0.0092(9) 
P1 P5+ 24 d 0.1901(4) 0.3470(4) 0.1172(4) 1.0 0 0.0234(13) 
N1 N3- 24 d 0.3315(9) 0.2686(10) 0.1164(9) 1.0 0 0.0062(30) 
N2 N3- 24 d 0.2124(9) 0.5039(12) 0.0943(9) 1.0 0 0.0156(32) 

loop_
_atom_site_aniso_label
_atom_site_aniso_type_symbol
_atom_site_aniso_U_11
_atom_site_aniso_U_22
_atom_site_aniso_U_33
_atom_site_aniso_U_12
_atom_site_aniso_U_13
_atom_site_aniso_U_23
Ba1 Ba2+ 0.0237(5) 0.0237(5) 0.0237(5) -0.0013(9) -0.0013(9) -0.0013(9)
#End of data_415714-ICSD


