data_416590-ICSD
#?2014 by Fachinformationszentrum Karlsruhe, and the U.S. Secretary of 
#Commerce on behalf of the United States.  All rights reserved.
_database_code_ICSD                416590
_audit_creation_date               2007/08/01
_chemical_name_systematic          'Lithium Niobiouranate'
_chemical_formula_structural       'Li (Nb U O6)'
_chemical_formula_sum              'Li1 Nb1 O6 U1'
_publ_section_title
;
The A(1-x) U Nb O(6-x/2) compounds (x = 0, A = Li, Na, Cs and x = 
0.5, A = Rb, Cs): from layered to tunneled structure
;
loop_
_citation_id
_citation_journal_abbrev
_citation_year
_citation_journal_volume
_citation_journal_issue
_citation_page_first
_citation_page_last
_citation_journal_id_ASTM
primary 'Journal of Solid State Chemistry' 2006 179 10 3238 3251 JSSCBI
_publ_author_name
;
Surble, S.;Obbade, S.;Saad, S.;Yagoubi, S.;Dion, C.;Abraham, F.
;
_cell_length_a                     10.3091(11)
_cell_length_b                     6.4412(10)
_cell_length_c                     7.5602(10)
_cell_angle_alpha                  90.00
_cell_angle_beta                   100.652(5)
_cell_angle_gamma                  90.00
_cell_volume                       493.37
_cell_formula_units_Z              4
_symmetry_space_group_name_H-M     'P 1 21/c 1'
_symmetry_Int_Tables_number        14
_refine_ls_R_factor_all            .0532
loop_
_symmetry_equiv_pos_site_id
_symmetry_equiv_pos_as_xyz
  1	'x, -y+.5, z+.5'
  2	'-x, -y, -z'
  3	'-x, y+.5, -z+.5'
  4	'x, y, z'
loop_
_atom_type_symbol
_atom_type_oxidation_number
Li1+	1
Nb5+	5
O2-	-2
U6+	6
loop_
_atom_site_label
_atom_site_type_symbol
_atom_site_symmetry_multiplicity
_atom_site_Wyckoff_symbol
_atom_site_fract_x
_atom_site_fract_y
_atom_site_fract_z
_atom_site_occupancy
_atom_site_attached_hydrogens
_atom_site_U_iso_or_equiv
U1 U6+ 4 e 0.68978(4) 0.19987(7) 0.92032(5) 1 0 0.0094(2) 
Nb1 Nb5+ 4 e 0.72686(12) 0.75018(19) 0.68036(15) 1 0 0.0101(2) 
Li1 Li1+ 4 e 0.008(5) 0.987(8) 0.832(7) 1 0 0.075(13) 
O1 O2- 4 e 0.8706(11) 0.1804(14) 0.9711(16) 1 0 0.016(2) 
O2 O2- 4 e 0.5113(12) 0.2145(14) 0.8696(15) 1 0 0.016(2) 
O3 O2- 4 e 0.6908(9) 0.8267(17) 0.9214(12) 1 0 0.014(2) 
O4 O2- 4 e 0.6947(9) 0.0454(14) 0.6335(13) 1 0 0.0144(13) 
O5 O2- 4 e 0.7028(9) 0.4491(14) 0.7129(12) 1 0 0.0137(17) 
O6 O2- 4 e 0.9028(11) 0.7505(18) 0.7250(16) 1 0 0.016(2) 

loop_
_atom_site_aniso_label
_atom_site_aniso_type_symbol
_atom_site_aniso_U_11
_atom_site_aniso_U_22
_atom_site_aniso_U_33
_atom_site_aniso_U_12
_atom_site_aniso_U_13
_atom_site_aniso_U_23
U1 U6+ 0.0176(3) 0.0092(3) 0.0026(3) -0.00014(14) 0.0052(2) 0.00024(14)
Nb1 Nb5+ 0.0172(6) 0.0120(6) 0.0025(4) -0.0004(4) 0.0058(4) -0.0007(4)
O1 O2- 0.022(5) 0.009(4) 0.020(5) 0.001(3) 0.015(4) 0.007(4)
O2 O2- 0.026(6) 0.012(5) 0.010(6) -0.001(4) 0.007(5) 0.007(4)
O3 O2- 0.026(6) 0.011(5) 0.009(6) 0.002(3) 0.014(4) 0.002(3)
O4 O2- 0.023(4) 0.010(4) 0.013(6) 0.013(4) 0.011(3) 0.005(4)
O5 O2- 0.024(5) 0.011(4) 0.009(6) 0.006(4) 0.012(3) 0.006(4)
O6 O2- 0.020(5) 0.014(4) 0.015(5) -0.002(4) 0.008(4) 0.001(4)
#End of data_416590-ICSD


