data_201005-ICSD
#?2014 by Fachinformationszentrum Karlsruhe, and the U.S. Secretary of 
#Commerce on behalf of the United States.  All rights reserved.
_database_code_ICSD                201005
_audit_creation_date               1981/12/31
_audit_update_record               2009/08/01
_chemical_name_systematic          'Trisilver Sulfide Iodide - Gamma'
_chemical_formula_structural       'Ag3 S I'
_chemical_formula_sum              'Ag3 I1 S1'
_publ_section_title
;
Structure investigations, atomic potentials, and phase transitions of 
the fast ionic conductor Ag3 S I
;
loop_
_citation_id
_citation_journal_abbrev
_citation_year
_citation_journal_volume
_citation_page_first
_citation_page_last
_citation_journal_id_ASTM
primary 'Solid State Ionics' 1981 5 493 496 SSIOD3
2 'Journal of the Physical Society of Japan' 1979 47 252 259 JUPSAU
_publ_author_name
;
Perenthaler, E.;Schulz, H.;Beyeler, H.U.
;
_cell_length_a                     4.869(1)
_cell_length_b                     4.869(1)
_cell_length_c                     4.869(1)
_cell_angle_alpha                  90.
_cell_angle_beta                   90.
_cell_angle_gamma                  90.
_cell_volume                       115.43
_cell_formula_units_Z              1
_symmetry_space_group_name_H-M     'R 3 R'
_symmetry_Int_Tables_number        146
loop_
_symmetry_equiv_pos_site_id
_symmetry_equiv_pos_as_xyz
  1	'z, x, y'
  2	'y, z, x'
  3	'x, y, z'
loop_
_atom_type_symbol
_atom_type_oxidation_number
Ag1+	1
I1-	-1
S2-	-2
loop_
_atom_site_label
_atom_site_type_symbol
_atom_site_symmetry_multiplicity
_atom_site_Wyckoff_symbol
_atom_site_fract_x
_atom_site_fract_y
_atom_site_fract_z
_atom_site_occupancy
_atom_site_attached_hydrogens
_atom_site_B_iso_or_equiv
S1 S2- 1 a 0.536(1) 0.536(1) 0.536(1) 1. 0 1.3(2) 
I1 I1- 1 a 0 0 0 1. 0 1.3(2) 
Ag1 Ag1+ 3 b 0.515(1) 0.399(1) 0.016(1) 1. 0 4.2(1) 

#End of data_201005-ICSD


