data_97713-ICSD
#?2014 by Fachinformationszentrum Karlsruhe, and the U.S. Secretary of 
#Commerce on behalf of the United States.  All rights reserved.
_database_code_ICSD                97713
_audit_creation_date               2004/10/01
_chemical_name_systematic
;
Distrontium Hexaaluminate - Eu(II)-doped
;
_chemical_formula_structural       'Sr2 (Al6 O11)'
_chemical_formula_sum              'Al6 O11 Sr2'
_publ_section_title
;
Crystal structure and luminescence properties of Sr2 Al6 O11:Eu(2+)
;
loop_
_citation_id
_citation_journal_abbrev
_citation_year
_citation_journal_volume
_citation_page_first
_citation_page_last
_citation_journal_id_ASTM
primary
;
Funtai Oyobi Funmatsu Yakin (= Journal of the Japan Society of Powder 
Metallurgy)
;
 2002 49 1128 1133 FOFUA2
_publ_author_name
;
Takeda, T.;Takahashi, K.;Uheda, K.;Takizawa, H.;Endo, T.
;
_cell_length_a                     21.9145(8)
_cell_length_b                     4.8843(2)
_cell_length_c                     8.4039(3)
_cell_angle_alpha                  90
_cell_angle_beta                   90
_cell_angle_gamma                  90
_cell_volume                       899.53
_cell_formula_units_Z              4
_symmetry_space_group_name_H-M     'P n n m'
_symmetry_Int_Tables_number        58
_refine_ls_R_factor_all            .0226
loop_
_symmetry_equiv_pos_site_id
_symmetry_equiv_pos_as_xyz
  1	'x+.5, -y+.5, z+.5'
  2	'-x+.5, y+.5, z+.5'
  3	'x, y, -z'
  4	'-x, -y, -z'
  5	'-x+.5, y+.5, -z+.5'
  6	'x+.5, -y+.5, -z+.5'
  7	'-x, -y, z'
  8	'x, y, z'
loop_
_atom_type_symbol
_atom_type_oxidation_number
Al3+	3
O2-	-2
Sr2+	2
loop_
_atom_site_label
_atom_site_type_symbol
_atom_site_symmetry_multiplicity
_atom_site_Wyckoff_symbol
_atom_site_fract_x
_atom_site_fract_y
_atom_site_fract_z
_atom_site_occupancy
_atom_site_attached_hydrogens
_atom_site_B_iso_or_equiv
Sr1 Sr2+ 4 g 0.36076(9) 0.12077(5) 0 1. 0 1.72(5) 
Sr2 Sr2+ 4 g 0.15547(9) 0.5346(4) 0 1. 0 1.72(5) 
Al1 Al3+ 2 b 0 0 0.5 1. 0 1.36(6) 
Al2 Al3+ 2 c 0 0.5 0 1. 0 1.36(6) 
Al3 Al3+ 4 f 0 0.5 0.6692(7) 1. 0 1.36(6) 
Al4 Al3+ 8 h 0.2149(2) 0.1200(11) 0.2991(6) 1. 0 1.36(6) 
Al5 Al3+ 8 h 0.0751(2) 0.0138(11) 0.1812(6) 1. 0 1.36(6) 
O1 O2- 4 g 0.0605(5) 0.822(2) 0 1. 0 1.56(9) 
O2 O2- 4 g 0.2967(4) 0.568(3) 0 1. 0 1.56(9) 
O3 O2- 8 h 0.4530(3) 0.322(2) 0.8421(11) 1. 0 1.56(9) 
O4 O2- 8 h 0.3454(3) 0.495(2) 0.3270(8) 1. 0 1.56(9) 
O5 O2- 4 g 0.4545(5) 0.816(2) 0 1. 0 1.56(9) 
O6 O2- 8 h 0.9505(3) 0.662(2) 0.8442(9) 1. 0 1.56(9) 
O7 O2- 8 h 0.2802(3) 0.951(2) 0.2400(11) 1. 0 1.56(9) 

#End of data_97713-ICSD


