data_69592-ICSD
#?2014 by Fachinformationszentrum Karlsruhe, and the U.S. Secretary of 
#Commerce on behalf of the United States.  All rights reserved.
_database_code_ICSD                69592
_audit_creation_date               1992/08/20
_audit_update_record               2012/02/01
_chemical_name_systematic
;
Tetrapotassium Thorium Tetrakis(molybdate)
;
_chemical_formula_structural       'K4 Th (Mo O4)4'
_chemical_formula_sum              'K4 Mo4 O16 Th1'
_publ_section_title
;
Structure cristalline de K4Th(MoO4)4
;
loop_
_citation_id
_citation_journal_abbrev
_citation_year
_citation_journal_volume
_citation_page_first
_citation_page_last
_citation_journal_id_ASTM
primary 'Acta Crystallographica, Section C: Crystal Structure Communications'
 1991 47 1797 1799 ACSCEE
_publ_author_name
;
Huyghe, M.;Lee, M.-R.;Quarton, M.;Robert, F.
;
_cell_length_a                     11.586(3)
_cell_length_b                     11.586(3)
_cell_length_c                     13.069(2)
_cell_angle_alpha                  90.
_cell_angle_beta                   90.
_cell_angle_gamma                  90.
_cell_volume                       1754.32
_cell_formula_units_Z              4
_symmetry_space_group_name_H-M     'I 41/a Z'
_symmetry_Int_Tables_number        88
_refine_ls_R_factor_all            .022
loop_
_symmetry_equiv_pos_site_id
_symmetry_equiv_pos_as_xyz
  1	'-y+.75, x+.75, -z+.75'
  2	'y+.25, -x+.75, -z+.75'
  3	'x, y+.5, -z'
  4	'-x, -y, -z'
  5	'y+.25, -x+.25, z+.25'
  6	'-y+.75, x+.25, z+.25'
  7	'-x, -y+.5, z'
  8	'x, y, z'
  9	'-y+.25, x+.25, -z+.25'
 10	'y+.75, -x+.25, -z+.25'
 11	'x+.5, y, -z+.5'
 12	'-x+.5, -y+.5, -z+.5'
 13	'y+.75, -x+.75, z+.75'
 14	'-y+.25, x+.75, z+.75'
 15	'-x+.5, -y, z+.5'
 16	'x+.5, y+.5, z+.5'
loop_
_atom_type_symbol
_atom_type_oxidation_number
K1+	1
Mo6+	6
O2-	-2
Th4+	4
loop_
_atom_site_label
_atom_site_type_symbol
_atom_site_symmetry_multiplicity
_atom_site_Wyckoff_symbol
_atom_site_fract_x
_atom_site_fract_y
_atom_site_fract_z
_atom_site_occupancy
_atom_site_attached_hydrogens
Th1 Th4+ 4 b 0.5 0.75 0.125 1. 0 
K1 K1+ 16 f 0.73901(9) 0.15367(9) 0.10684(8) 1. 0 
Mo1 Mo6+ 16 f 0.59065(3) 0.42804(3) 0.11596(2) 1. 0 
O1 O2- 16 f 0.5916(3) 0.5725(3) 0.0649(2) 1. 0 
O2 O2- 16 f 0.4656(3) 0.4032(3) 0.1845(3) 1. 0 
O3 O2- 16 f 0.6061(3) 0.3205(2) 0.0185(2) 1. 0 
O4 O2- 16 f 0.7072(3) 0.4057(3) 0.1977(3) 1. 0 

loop_
_atom_site_aniso_label
_atom_site_aniso_type_symbol
_atom_site_aniso_U_11
_atom_site_aniso_U_22
_atom_site_aniso_U_33
_atom_site_aniso_U_12
_atom_site_aniso_U_13
_atom_site_aniso_U_23
Th1 Th4+ 0.00764(8) 0.00764(8) 0.0077(1) 0 0 0
K1 K1+ 0.0226(4) 0.0239(4) 0.0195(4) 0.0078(3) -.0035(3) -.0065(3)
Mo1 Mo6+ 0.0117(1) 0.0103(1) 0.0112(1) 0.00076(8) 0.00095(9) 0.0010(1)
O1 O2- 0.023(1) 0.012(1) 0.019(1) 0.003(1) 0.000(1) 0.000(1)
O2 O2- 0.016(1) 0.013(1) 0.016(1) 0.0002(9) 0.003(1) 0.0030(9)
O3 O2- 0.021(1) 0.027(2) 0.019(1) 0.000(11) 0.007(1) -.003(1)
O4 O2- 0.020(1) 0.027(1) 0.024(1) -.003(11) -.007(1) 0.006(1)
#End of data_69592-ICSD


