data_80076-ICSD
#?2014 by Fachinformationszentrum Karlsruhe, and the U.S. Secretary of 
#Commerce on behalf of the United States.  All rights reserved.
_database_code_ICSD                80076
_audit_creation_date               1996/10/14
_chemical_name_systematic          'Zinc Telluride - I'
_chemical_formula_structural       'Zn Te'
_chemical_formula_sum              'Te1 Zn1'
_publ_section_title
;
Structure of high pressure phase I in Zn Te
;
loop_
_citation_id
_citation_journal_abbrev
_citation_year
_citation_journal_volume
_citation_page_first
_citation_page_last
_citation_journal_id_ASTM
primary 'AIP Conference Proceedings' 1994 309 553 556 APCPCS
_publ_author_name                  'Kusaba, K.;Weidner, D.J.'
_cell_length_a                     4.045(1)
_cell_length_b                     4.045(1)
_cell_length_c                     9.342(4)
_cell_angle_alpha                  90.
_cell_angle_beta                   90.
_cell_angle_gamma                  120.
_cell_volume                       132.38
_cell_formula_units_Z              3
_symmetry_space_group_name_H-M     'P 31'
_symmetry_Int_Tables_number        144
_refine_ls_R_factor_all            .4
loop_
_symmetry_equiv_pos_site_id
_symmetry_equiv_pos_as_xyz
  1	'-x+y, -x, z+.6667'
  2	'-y, x-y, z+.3333'
  3	'x, y, z'
loop_
_atom_type_symbol
_atom_type_oxidation_number
Te2-	-2
Zn2+	2
loop_
_atom_site_label
_atom_site_type_symbol
_atom_site_symmetry_multiplicity
_atom_site_Wyckoff_symbol
_atom_site_fract_x
_atom_site_fract_y
_atom_site_fract_z
_atom_site_occupancy
_atom_site_attached_hydrogens
_atom_site_B_iso_or_equiv
Zn1 Zn2+ 3 a 0.35 0.2 0 1. 0 0.8 
Te1 Te2- 3 a 0.49 0.49 0.47 1. 0 0.8 

#End of data_80076-ICSD


