data_261598-ICSD
#?2014 by Fachinformationszentrum Karlsruhe, and the U.S. Secretary of 
#Commerce on behalf of the United States.  All rights reserved.
_database_code_ICSD                261598
_audit_creation_date               2011/08/01
_chemical_name_systematic
;
Potassium Tricopper Difluorodioxophosphate(V) 
Bis(fluorotrioxophosphate) Difluoride
;
_chemical_formula_structural       'K Cu3 (P O2 F2) (P O3 F)2 F2'
_chemical_formula_sum              'Cu3 F6 K1 O8 P3'
_publ_section_title
;
Fluoride-rich, hydrofluorothermal routes to functional transition 
metal (Mn, Fe, Co, Cu) fluorophosphates
;
loop_
_citation_id
_citation_journal_abbrev
_citation_year
_citation_journal_volume
_citation_journal_issue
_citation_page_first
_citation_page_last
_citation_journal_id_ASTM
primary 'Journal of the American Chemical Society' 2011 133 21 8252 8263 JACSAT
_publ_author_name
;
Armstrong, J.A.;Williams, E.R.;Weller, M.T.
;
_cell_length_a                     18.9720(7)
_cell_length_b                     7.4973(4)
_cell_length_c                     7.7663(3)
_cell_angle_alpha                  90.00
_cell_angle_beta                   103.629(2)
_cell_angle_gamma                  90.00
_cell_volume                       1073.56
_cell_formula_units_Z              4
_symmetry_space_group_name_H-M     'C 1 2/c 1'
_symmetry_Int_Tables_number        15
_refine_ls_R_factor_all            .0469
loop_
_symmetry_equiv_pos_site_id
_symmetry_equiv_pos_as_xyz
  1	'x, -y, z+.5'
  2	'-x, -y, -z'
  3	'-x, y, -z+.5'
  4	'x, y, z'
  5	'x+.5, -y+.5, z+.5'
  6	'-x+.5, -y+.5, -z'
  7	'-x+.5, y+.5, -z+.5'
  8	'x+.5, y+.5, z'
loop_
_atom_type_symbol
_atom_type_oxidation_number
Cu2+	2
F1-	-1
K1+	1
O2-	-2
P5+	5
loop_
_atom_site_label
_atom_site_type_symbol
_atom_site_symmetry_multiplicity
_atom_site_Wyckoff_symbol
_atom_site_fract_x
_atom_site_fract_y
_atom_site_fract_z
_atom_site_occupancy
_atom_site_attached_hydrogens
_atom_site_U_iso_or_equiv
F1 F1- 8 f 0.3822(2) 0.0310(5) 0.8663(5) 1 0 0.0135(8) 
F2 F1- 8 f 0.16563(19) 0.1675(5) 0.5672(5) 1 0 0.0106(8) 
O1 O2- 8 f 0.0596(2) -0.0221(6) 0.7052(6) 1 0 0.0102(9) 
O2 O2- 8 f 0.2630(2) 0.0551(6) 0.9338(6) 1 0 0.0077(9) 
F3 F1- 8 f -0.0321(2) -0.2648(6) 0.5961(6) 1 0 0.0240(10) 
O3 O2- 8 f 0.3676(2) 0.2590(6) 1.0723(6) 1 0 0.0079(9) 
O4 O2- 8 f 0.3066(2) 0.2853(6) 0.7465(6) 1 0 0.0087(9) 
Cu1 Cu2+ 8 f 0.15990(4) 0.03077(10) 0.81087(10) 1 0 0.0077(2) 
Cu2 Cu2+ 4 d 0.2500 -0.2500 1.0000 1 0 0.0078(3) 
P1 P5+ 4 e 0.0000 -0.1304(3) 0.7500 1 0 0.0087(5) 
P2 P5+ 8 f 0.32591(8) 0.1662(2) 0.9094(2) 1 0 0.0066(3) 
K1 K1+ 4 e 0.5000 0.1499(3) 0.2500 1 0 0.0147(4) 

loop_
_atom_site_aniso_label
_atom_site_aniso_type_symbol
_atom_site_aniso_U_11
_atom_site_aniso_U_22
_atom_site_aniso_U_33
_atom_site_aniso_U_12
_atom_site_aniso_U_13
_atom_site_aniso_U_23
F1 F1- 0.0122(18) 0.0131(19) 0.016(2) 0.0049(15) 0.0052(16) -0.0033(16)
F2 F1- 0.0105(17) 0.0123(18) 0.0080(17) -0.0021(15) 0.0004(15) 0.0020(15)
O1 O2- 0.005(2) 0.013(2) 0.012(2) -0.0007(18) 0.0004(17) 0.0027(18)
O2 O2- 0.007(2) 0.006(2) 0.009(2) 0.0012(16) 0.0006(17) 0.0027(17)
F3 F1- 0.030(2) 0.019(2) 0.024(2) 0.0019(19) 0.008(2) -0.0036(19)
O3 O2- 0.009(2) 0.010(2) 0.005(2) 0.0017(17) 0.0014(17) 0.0021(17)
O4 O2- 0.010(2) 0.008(2) 0.008(2) 0.0000(17) 0.0004(18) 0.0043(18)
Cu1 Cu2+ 0.0065(4) 0.0077(4) 0.0088(4) -0.0006(3) 0.0017(3) -0.0012(3)
Cu2 Cu2+ 0.0086(5) 0.0081(5) 0.0065(5) 0.0015(4) 0.0014(4) 0.0001(4)
P1 P5+ 0.0091(10) 0.0072(11) 0.0105(11) 0.000 0.0039(9) 0.000
P2 P5+ 0.0063(7) 0.0072(7) 0.0069(7) 0.0004(6) 0.0026(6) 0.0005(6)
K1 K1+ 0.0095(9) 0.0188(11) 0.0147(10) 0.000 0.0007(8) 0.000
#End of data_261598-ICSD


