data_417432-ICSD
#?2014 by Fachinformationszentrum Karlsruhe, and the U.S. Secretary of 
#Commerce on behalf of the United States.  All rights reserved.
_database_code_ICSD                417432
_audit_creation_date               2008/02/01
_audit_update_record               2013/02/01
_chemical_name_systematic
;
Zinc Dihydroxodioxophosphate(V) Dihydrate
;
_chemical_formula_structural       'Zn (P O2 (O H)2)2 (H2 O)2'
_chemical_formula_sum              'H8 O10 P2 Zn1'
_publ_section_title
;
Crystal chemistry of M [P O2 (O H)2]2 * 2 H2O compounds (M = Mg, Mn, 
Fe, Co, Ni, Zn, Cd): Structural investigation of the Ni, Zn, Cd salts
;
loop_
_citation_id
_citation_journal_abbrev
_citation_year
_citation_journal_volume
_citation_journal_issue
_citation_page_first
_citation_page_last
_citation_journal_id_ASTM
primary 'Journal of Solid State Chemistry' 2007 180 3 956 967 JSSCBI
_publ_author_name                  'Koleva, V.;Effenberger, H.'
_cell_length_a                     7.221(2)
_cell_length_b                     9.899(3)
_cell_length_c                     5.296(2)
_cell_angle_alpha                  90.00
_cell_angle_beta                   94.31(1)
_cell_angle_gamma                  90.00
_cell_volume                       377.49
_cell_formula_units_Z              2
_symmetry_space_group_name_H-M     'P 1 21/n 1'
_symmetry_Int_Tables_number        14
_refine_ls_R_factor_all            .019
loop_
_symmetry_equiv_pos_site_id
_symmetry_equiv_pos_as_xyz
  1	'-x+.5, y+.5, -z+.5'
  2	'-x, -y, -z'
  3	'x+.5, -y+.5, z+.5'
  4	'x, y, z'
loop_
_atom_type_symbol
_atom_type_oxidation_number
H1+	1
O2-	-2
P5+	5
Zn2+	2
loop_
_atom_site_label
_atom_site_type_symbol
_atom_site_symmetry_multiplicity
_atom_site_Wyckoff_symbol
_atom_site_fract_x
_atom_site_fract_y
_atom_site_fract_z
_atom_site_occupancy
_atom_site_attached_hydrogens
_atom_site_U_iso_or_equiv
Zn1 Zn2+ 2 a 0.5000 0.5000 0.5000 1 0 0.00588(6) 
P1 P5+ 4 e 0.83761(4) 0.28518(3) 0.74229(5) 1 0 0.00566(6) 
O1 O2- 4 e 0.64394(11) 0.33250(8) 0.65779(16) 1 0 0.00850(14) 
O2 O2- 4 e 0.86250(11) 0.13358(8) 0.73355(15) 1 0 0.00835(14) 
O3 O2- 4 e 0.97106(12) 0.35655(9) 0.56449(17) 1 0 0.01133(16) 
O4 O2- 4 e 0.88671(12) 0.33720(9) 0.02021(16) 1 0 0.01008(15) 
O5 O2- 4 e 0.29711(11) 0.46369(9) 0.75868(15) 1 0 0.00824(14) 
H1 H1+ 4 e 0.340(3) 0.426(2) -0.097(4) 1 0 0.001(5) 
H2 H1+ 4 e 0.259(3) 0.537(2) 0.801(4) 1 0 0.001(5) 
H3 H1+ 4 e 0.060(3) 0.373(2) 0.621(4) 1 0 0.005(6) 
H4 H1+ 4 e 0.970(3) 0.290(3) 0.109(5) 1 0 0.016(6) 

loop_
_atom_site_aniso_label
_atom_site_aniso_type_symbol
_atom_site_aniso_U_11
_atom_site_aniso_U_22
_atom_site_aniso_U_33
_atom_site_aniso_U_12
_atom_site_aniso_U_13
_atom_site_aniso_U_23
Zn1 Zn2+ 0.00602(8) 0.00532(9) 0.00624(8) -0.00020(5) 0.00005(5) 0.00011(5)
P1 P5+ 0.00563(11) 0.00536(12) 0.00581(11) 0.00031(8) -0.00086(8) 
-0.00020(9)
O1 O2- 0.0066(3) 0.0078(4) 0.0107(3) 0.0005(3) -0.0019(3) 0.0009(3)
O2 O2- 0.0109(3) 0.0057(3) 0.0081(3) 0.0015(3) -0.0016(3) -0.0008(3)
O3 O2- 0.0092(3) 0.0144(4) 0.0104(3) -0.0040(3) 0.0006(3) 0.0019(3)
O4 O2- 0.0118(4) 0.0101(4) 0.0078(3) 0.0041(3) -0.0031(3) -0.0025(3)
O5 O2- 0.0088(3) 0.0079(3) 0.0081(3) 0.0008(3) 0.0011(3) 0.0002(3)
#End of data_417432-ICSD


