data_246523-ICSD
#?2014 by Fachinformationszentrum Karlsruhe, and the U.S. Secretary of 
#Commerce on behalf of the United States.  All rights reserved.
_database_code_ICSD                246523
_audit_creation_date               2009/08/01
_chemical_name_systematic
;
Sodium Chromium(III) Bis(chromate(VI))
;
_chemical_formula_structural       'Na Cr (Cr O4)2'
_chemical_formula_sum              'Cr3 Na1 O8'
_publ_section_title
;
Structural stability, electronic structure, and magnetic properties 
of mixed-valence A Cr3 O8 phases (A = Na, K, Rb)
;
loop_
_citation_id
_citation_journal_abbrev
_citation_year
_citation_journal_volume
_citation_journal_issue
_citation_page_first
_citation_page_last
_citation_journal_id_ASTM
primary 'Physical Review, Serie 3. B - Condensed Matter (18,1978-)'
 2005 72- 014411-1 014411-9 PRBMDO
2 'Journal of Physics and Chemistry of Solids' 1996 57 12 1929 1935 JPCSAW
_publ_author_name
;
Vidya, R.;Ravindran, P.;Vajeeston, P.;Fjellvag, H.;Kjekshus, A.
;
_cell_length_a                     8.6223
_cell_length_b                     5.5249
_cell_length_c                     6.9214
_cell_angle_alpha                  90
_cell_angle_beta                   90.347
_cell_angle_gamma                  90
_cell_volume                       329.71
_cell_formula_units_Z              2
_symmetry_space_group_name_H-M     'C 1 2/m 1'
_symmetry_Int_Tables_number        12
loop_
_symmetry_equiv_pos_site_id
_symmetry_equiv_pos_as_xyz
  1	'-x, y, -z'
  2	'-x, -y, -z'
  3	'x, -y, z'
  4	'x, y, z'
  5	'-x+.5, y+.5, -z'
  6	'-x+.5, -y+.5, -z'
  7	'x+.5, -y+.5, z'
  8	'x+.5, y+.5, z'
loop_
_atom_type_symbol
_atom_type_oxidation_number
Cr3+	3
Cr6+	6
Na1+	1
O2-	-2
loop_
_atom_site_label
_atom_site_type_symbol
_atom_site_symmetry_multiplicity
_atom_site_Wyckoff_symbol
_atom_site_fract_x
_atom_site_fract_y
_atom_site_fract_z
_atom_site_occupancy
_atom_site_attached_hydrogens
Na1 Na1+ 2 a 0 0 0 1. 0 
Cr1 Cr3+ 2 c 0 0 0.5 1. 0 
Cr2 Cr6+ 4 i 0.6386 0 0.2731 1. 0 
O1 O2- 4 i 0.227 0 0.5562 1. 0 
O2 O2- 4 i 0.7158 0 0.0628 1. 0 
O3 O2- 8 j 0.0256 0.2451 0.2999 1. 0 

#End of data_246523-ICSD


