data_6175-ICSD
#?2014 by Fachinformationszentrum Karlsruhe, and the U.S. Secretary of 
#Commerce on behalf of the United States.  All rights reserved.
_database_code_ICSD                6175
_audit_creation_date               1980/01/01
_audit_update_record               2012/08/01
_chemical_name_systematic
;
Neodymium Trialuminium Tetrakis(borate)
;
_chemical_formula_structural       'Nd Al3 (B O3)4'
_chemical_formula_sum              'Al3 B4 Nd1 O12'
_publ_section_title
;
Crystal structure and fluorescence lifetime of Nd Al3 (B O3)4, a 
promising laser material
;
loop_
_citation_id
_citation_journal_abbrev
_citation_year
_citation_journal_volume
_citation_page_first
_citation_page_last
_citation_journal_id_ASTM
primary 'Materials Research Bulletin' 1974 9 1661 1666 MRBUAC
2 'Inorganic Chemistry' 1962 1 960 961 INOCAJ
3 'Phase Transition' 1992 38 127 220 PHTRDP
_publ_author_name                  'Hong, H.Y.-P.;Dwight, K.'
_cell_length_a                     9.3416(6)
_cell_length_b                     9.3416(6)
_cell_length_c                     7.3055(8)
_cell_angle_alpha                  90.
_cell_angle_beta                   90.
_cell_angle_gamma                  120.
_cell_volume                       552.11
_cell_formula_units_Z              3
_symmetry_space_group_name_H-M     'R 3 2 H'
_symmetry_Int_Tables_number        155
_refine_ls_R_factor_all            .033
loop_
_symmetry_equiv_pos_site_id
_symmetry_equiv_pos_as_xyz
  1	'-x, -x+y, -z'
  2	'x-y, -y, -z'
  3	'y, x, -z'
  4	'-x+y, -x, z'
  5	'-y, x-y, z'
  6	'x, y, z'
  7	'-x+.6666, -x+y+.3333, -z+.3333'
  8	'-x+.3333, -x+y+.6666, -z+.6666'
  9	'x-y+.6666, -y+.3333, -z+.3333'
 10	'x-y+.3333, -y+.6666, -z+.6666'
 11	'y+.6666, x+.3333, -z+.3333'
 12	'y+.3333, x+.6666, -z+.6666'
 13	'-x+y+.6666, -x+.3333, z+.3333'
 14	'-x+y+.3333, -x+.6666, z+.6666'
 15	'-y+.6666, x-y+.3333, z+.3333'
 16	'-y+.3333, x-y+.6666, z+.6666'
 17	'x+.6666, y+.3333, z+.3333'
 18	'x+.3333, y+.6666, z+.6666'
loop_
_atom_type_symbol
_atom_type_oxidation_number
Al3+	3
B3+	3
Nd3+	3
O2-	-2
loop_
_atom_site_label
_atom_site_type_symbol
_atom_site_symmetry_multiplicity
_atom_site_Wyckoff_symbol
_atom_site_fract_x
_atom_site_fract_y
_atom_site_fract_z
_atom_site_occupancy
_atom_site_attached_hydrogens
Nd1 Nd3+ 3 a 0 0 0 1. 0 
Al1 Al3+ 9 d 0.5574(4) 0 0 1. 0 
B1 B3+ 3 b 0 0 0.5 1. 0 
B2 B3+ 9 e 0.436(3) 0 0.5 1. 0 
O1 O2- 9 e 0.851(1) 0 0.5 1. 0 
O2 O2- 9 e 0.589(2) 0 0.5 1. 0 
O3 O2- 18 f 0.4469(9) 0.1481(8) 0.5252(9) 1. 0 

#End of data_6175-ICSD


