data_250369-ICSD
#?2014 by Fachinformationszentrum Karlsruhe, and the U.S. Secretary of 
#Commerce on behalf of the United States.  All rights reserved.
_database_code_ICSD                250369
_audit_creation_date               2007/04/01
_chemical_name_systematic
;
Aluminium Selenate(VI) Nitrate(V) Heptahydrate
;
_chemical_formula_structural       'Al (Se O4) (N O3) (H2 O)7'
_chemical_formula_sum              'H14 Al1 N1 O14 Se1'
_publ_section_title
;
Crystal chemistry of selenates with mineral-like structures. II. 
Crystal structure of (Al (H2 O)6) (Se O4) (N O3) (H2 O) and its 
affinity to structure of alunogen
;
loop_
_citation_id
_citation_journal_abbrev
_citation_year
_citation_journal_volume
_citation_journal_issue
_citation_page_first
_citation_page_last
_citation_journal_id_ASTM
primary 'Zapiski Vserossijskogo Mineralogicheskogo Obshchestva'
 2006 2006 3 96 101 ZVMOEK
_publ_author_name                  'Krivovichev, S.V.'
_cell_length_a                     6.159(3)
_cell_length_b                     7.774(4)
_cell_length_c                     12.326(5)
_cell_angle_alpha                  90.43(4)
_cell_angle_beta                   102.32(4)
_cell_angle_gamma                  96.63(4)
_cell_volume                       572.41
_cell_formula_units_Z              2
_symmetry_space_group_name_H-M     'P -1'
_symmetry_Int_Tables_number        2
_refine_ls_R_factor_all            .041
loop_
_symmetry_equiv_pos_site_id
_symmetry_equiv_pos_as_xyz
  1	'-x, -y, -z'
  2	'x, y, z'
loop_
_atom_type_symbol
_atom_type_oxidation_number
Al3+	3
H1+	1
N5+	5
O2-	-2
Se6+	6
loop_
_atom_site_label
_atom_site_type_symbol
_atom_site_symmetry_multiplicity
_atom_site_Wyckoff_symbol
_atom_site_fract_x
_atom_site_fract_y
_atom_site_fract_z
_atom_site_occupancy
_atom_site_attached_hydrogens
_atom_site_U_iso_or_equiv
Al1 Al3+ 2 i 0.58710(19) 0.25189(6) 0.2166(1) 1 0 0.0202(3) 
Se1 Se6+ 2 i 0.03814(6) 0.75405(5) 0.14502(3) 1 0 0.0211(2) 
N1 N5+ 2 i 0.3082(7) 0.2483(5) 0.5399(3) 1 0 0.0311(9) 
O1 O2- 2 i 0.7422(6) 0.3738(4) 0.3456(3) 1 0 0.0302(7) 
O2 O2- 2 i 0.4921(5) 0.4628(4) 0.1575(3) 1 0 0.0252(6) 
O3 O2- 2 i 0.6840(6) 0.0429(4) 0.2712(3) 1 0 0.0317(7) 
O4 O2- 2 i 0.3282(5) 0.2095(4) 0.2749(3) 1 0 0.0281(7) 
O5 O2- 2 i 0.4335(5) 0.1317(4) 0.0843(3) 1 0 0.0251(6) 
O6 O2- 2 i 0.8403(5) 0.2927(4) 0.1519(3) 1 0 0.0256(6) 
O7 O2- 2 i 0.0516(6) 0.9139(4) 0.2337(3) 1 0 0.0325(7) 
O8 O2- 2 i -0.2206(5) 0.7000(5) 0.0817(3) 1 0 0.0367(8) 
O9 O2- 2 i 0.1293(5) 0.5844(4) 0.2098(3) 1 0 0.0298(7) 
O10 O2- 2 i 0.1949(6) 0.8156(5) 0.0568(3) 1 0 0.0370(8) 
O11 O2- 2 i 0.3025(9) 0.0899(5) 0.5226(4) 1 0 0.0535(11) 
O12 O2- 2 i 0.3417(8) 0.3050(5) 0.6368(3) 1 0 0.0484(10) 
O13 O2- 2 i 0.2824(7) 0.3480(5) 0.4611(3) 1 0 0.0408(9) 
O14 O2- 2 i 0.8200(8) 0.2707(6) 0.5475(3) 1 0 0.0523(11) 
H1 H1+ 2 i 0.379(12) 0.191(9) 0.0199(4) 1 0 0.061(6) 
H2 H1+ 2 i 0.579(11) 0.550(7) 0.127(6) 1 0 0.061(6) 
H3 H1+ 2 i 0.359(11) 0.016(4) 0.076(6) 1 0 0.061(6) 
H4 H1+ 2 i 0.298(12) 0.235(10) 0.345(3) 1 0 0.061(6) 
H5 H1+ 2 i 0.817(12) 0.273(10) 0.0730(19) 1 0 0.061(6) 
H6 H1+ 2 i 0.775(12) 0.318(9) 0.415(4) 1 0 0.061(6) 
H7 H1+ 2 i 0.703(12) 0.002(10) 0.344(3) 1 0 0.061(6) 
H8 H1+ 2 i 0.223(9) 0.111(6) 0.249(6) 1 0 0.061(6) 
H9 H1+ 2 i 0.804(9) -0.013(9) 0.256(6) 1 0 0.061(6) 
H10 H1+ 2 i 0.803(12) 0.155(4) 0.570(6) 1 0 0.061(6) 
H11 H1+ 2 i 0.728(12) 0.494(3) 0.350(6) 1 0 0.061(6) 
H12 H1+ 2 i 0.945(10) 0.391(6) 0.182(6) 1 0 0.061(6) 
H13 H1+ 2 i 0.805(12) 0.345(8) 0.607(4) 1 0 0.061(6) 
H14 H1+ 2 i 0.377(9) 0.513(9) 0.182(6) 1 0 0.061(6) 

loop_
_atom_site_aniso_label
_atom_site_aniso_type_symbol
_atom_site_aniso_U_11
_atom_site_aniso_U_22
_atom_site_aniso_U_33
_atom_site_aniso_U_12
_atom_site_aniso_U_13
_atom_site_aniso_U_23
Al1 Al3+ 0.0205(6) 0.0190(6) 0.0221(6) 0.0023(4) 0.0069(4) 0.0032(5)
Se1 Se6+ 0.0206(2) 0.0189(3) 0.0239(3) -0.0007(2) 0.0069(2) 0.0019(2)
N1 N5+ 0.039(2) 0.0250(19) 0.033(2) 0.0079(16) 0.0128(17) 0.0054(18)
O1 O2- 0.0354(16) 0.0278(16) 0.0249(16) 0.0015(13) 0.0022(12) -0.0002(14)
O2 O2- 0.0250(14) 0.0192(14) 0.0319(17) 0.0023(11) 0.0074(12) 0.0044(13)
O3 O2- 0.0355(17) 0.0278(17) 0.0371(18) 0.0120(13) 0.0152(14) 0.0113(15)
O4 O2- 0.0247(15) 0.0321(17) 0.0297(16) -0.0019(12) 0.0132(12) -0.0004(4)
O5 O2- 0.0286(15) 0.0211(15) 0.0237(14) -0.0014(12) 0.0037(12) 0.0005(13)
O6 O2- 0.0236(14) 0.0263(15) 0.0285(16) -0.0008(11) 0.0110(12) -0.0005(14)
O7 O2- 0.0329(16) 0.0287(16) 0.0391(19) 0.0015(13) 0.0163(14) -0.0060(15)
O8 O2- 0.0272(16) 0.0326(17) 0.045(2) -0.0050(13) 0.0007(14) 0.0132(17)
O9 O2- 0.0240(15) 0.0232(15) 0.0416(19) 0.0035(12) 0.0051(13) 0.0056(14)
O10 O2- 0.0394(19) 0.0367(18) 0.0354(18) -0.0134(15) 0.0190(15) -0.0036(17)
O11 O2- 0.087(3) 0.0242(18) 0.054(3) 0.0099(19) 0.024(2) -0.0022(19)
O12 O2- 0.075(3) 0.036(2) 0.0321(19) 0.0064(19) 0.0078(18) -0.0001(18)
O13 O2- 0.060(2) 0.036(2) 0.0328(18) 0.0141(17) 0.0191(17) 0.0057(17)
O14 O2- 0.080(3) 0.043(2) 0.033(2) 0.014(2) 0.006(2) 0.0058(19)
#End of data_250369-ICSD


