data_91842-ICSD
#?2014 by Fachinformationszentrum Karlsruhe, and the U.S. Secretary of 
#Commerce on behalf of the United States.  All rights reserved.
_database_code_ICSD                91842
_audit_creation_date               2002/10/01
_chemical_name_systematic          'Potassium Aluminium Oxide'
_chemical_formula_structural       'K Al O2'
_chemical_formula_sum              'Al1 K1 O2'
_publ_section_title
;
The structure of potassium aluminium oxide K Al O2
;
loop_
_citation_id
_citation_journal_abbrev
_citation_year
_citation_journal_volume
_citation_page_first
_citation_page_last
_citation_journal_id_ASTM
primary 'Materials Science Forum' 2000 321 954 959 MSFOEP
_publ_author_name                  'Sokolowski, J.;Kotarba, A.'
_cell_length_a                     5.4482(8)
_cell_length_b                     10.916(3)
_cell_length_c                     15.445(2)
_cell_angle_alpha                  90.
_cell_angle_beta                   90.
_cell_angle_gamma                  90.
_cell_volume                       918.55
_cell_formula_units_Z              16
_symmetry_space_group_name_H-M     'P b c a'
_symmetry_Int_Tables_number        61
_refine_ls_R_factor_all            .082
loop_
_symmetry_equiv_pos_site_id
_symmetry_equiv_pos_as_xyz
  1	'x+.5, y, -z+.5'
  2	'x, -y+.5, z+.5'
  3	'-x+.5, y+.5, z'
  4	'-x, -y, -z'
  5	'-x+.5, -y, z+.5'
  6	'-x, y+.5, -z+.5'
  7	'x+.5, -y+.5, -z'
  8	'x, y, z'
loop_
_atom_type_symbol
_atom_type_oxidation_number
Al3+	3
K1+	1
O2-	-2
loop_
_atom_site_label
_atom_site_type_symbol
_atom_site_symmetry_multiplicity
_atom_site_Wyckoff_symbol
_atom_site_fract_x
_atom_site_fract_y
_atom_site_fract_z
_atom_site_occupancy
_atom_site_attached_hydrogens
_atom_site_B_iso_or_equiv
K1 K1+ 8 c 0.745(5) 0.06(2) 0.065(2) 1. 0 0.7(5) 
K2 K1+ 8 c 0.794(3) 0.268(3) 0.195(2) 1. 0 1.9(6) 
Al1 Al3+ 8 c 0.253(7) 0.011(3) 0.181(3) 1. 0 1.4(7) 
Al2 Al3+ 8 c 0.277(4) 0.252(4) 0.063(2) 1. 0 0.8(6) 
O1 O2- 8 c 0.558(7) 0.303(5) 0.028(3) 1. 0 0.10(12) 
O2 O2- 8 c 0.162(9) 0.414(6) 0.098(3) 1. 0 1.(2) 
O3 O2- 8 c 0.28(1) 0.152(6) 0.142(3) 1. 0 0.40(13) 
O4 O2- 8 c 0.08(2) 0.499(5) 0.293(4) 1. 0 2.(2) 

#End of data_91842-ICSD


