data_188081-ICSD
#?2014 by Fachinformationszentrum Karlsruhe, and the U.S. Secretary of 
#Commerce on behalf of the United States.  All rights reserved.
_database_code_ICSD                188081
_audit_creation_date               2014/02/01
_chemical_name_systematic          'Tricalcium Diphosphate'
_chemical_formula_structural       'Ca3 (P O4)2'
_chemical_formula_sum              'Ca3 O8 P2'
_chemical_name_mineral             Tuite
_publ_section_title
;
A comparison of the Ca3 (P O4)2 and Ca Si O3 systems, with a new 
structure refinement of tuite synthesized at 15 GPa and 1300 ?C
;
loop_
_citation_id
_citation_journal_abbrev
_citation_year
_citation_journal_volume
_citation_journal_issue
_citation_page_first
_citation_page_last
_citation_journal_id_ASTM
primary 'American Mineralogist' 2013 98 8-9 1585 1592 AMMIAY
_publ_author_name
;
Thompson, R.M.;Xie Xiande;Zhai Shuangmeng;Downs, R.T.;Yang Hexiong
;
_cell_length_a                     5.2522(9)
_cell_length_b                     5.2522(9)
_cell_length_c                     18.690(3)
_cell_angle_alpha                  90.
_cell_angle_beta                   90.
_cell_angle_gamma                  120.
_cell_volume                       446.5
_cell_formula_units_Z              3
_symmetry_space_group_name_H-M     'R -3 m H'
_symmetry_Int_Tables_number        166
_refine_ls_R_factor_all            .018
loop_
_symmetry_equiv_pos_site_id
_symmetry_equiv_pos_as_xyz
  1	'x-y, -y, -z'
  2	'-x, -x+y, -z'
  3	'y, x, -z'
  4	'x-y, x, -z'
  5	'y, -x+y, -z'
  6	'-x, -y, -z'
  7	'-x+y, y, z'
  8	'x, x-y, z'
  9	'-y, -x, z'
 10	'-x+y, -x, z'
 11	'-y, x-y, z'
 12	'x, y, z'
 13	'x-y+.6666, -y+.3333, -z+.3333'
 14	'x-y+.3333, -y+.6666, -z+.6666'
 15	'-x+.6666, -x+y+.3333, -z+.3333'
 16	'-x+.3333, -x+y+.6666, -z+.6666'
 17	'y+.6666, x+.3333, -z+.3333'
 18	'y+.3333, x+.6666, -z+.6666'
 19	'x-y+.6666, x+.3333, -z+.3333'
 20	'x-y+.3333, x+.6666, -z+.6666'
 21	'y+.6666, -x+y+.3333, -z+.3333'
 22	'y+.3333, -x+y+.6666, -z+.6666'
 23	'-x+.6666, -y+.3333, -z+.3333'
 24	'-x+.3333, -y+.6666, -z+.6666'
 25	'-x+y+.6666, y+.3333, z+.3333'
 26	'-x+y+.3333, y+.6666, z+.6666'
 27	'x+.6666, x-y+.3333, z+.3333'
 28	'x+.3333, x-y+.6666, z+.6666'
 29	'-y+.6666, -x+.3333, z+.3333'
 30	'-y+.3333, -x+.6666, z+.6666'
 31	'-x+y+.6666, -x+.3333, z+.3333'
 32	'-x+y+.3333, -x+.6666, z+.6666'
 33	'-y+.6666, x-y+.3333, z+.3333'
 34	'-y+.3333, x-y+.6666, z+.6666'
 35	'x+.6666, y+.3333, z+.3333'
 36	'x+.3333, y+.6666, z+.6666'
loop_
_atom_type_symbol
_atom_type_oxidation_number
Ca2+	2
O2-	-2
P5+	5
loop_
_atom_site_label
_atom_site_type_symbol
_atom_site_symmetry_multiplicity
_atom_site_Wyckoff_symbol
_atom_site_fract_x
_atom_site_fract_y
_atom_site_fract_z
_atom_site_occupancy
_atom_site_attached_hydrogens
_atom_site_U_iso_or_equiv
Ca1 Ca2+ 3 a 0.0000 0.0000 0.0000 1 0 0.01285(19) 
Ca2 Ca2+ 6 c 0.0000 0.0000 0.20359(2) 1 0 0.01001(17) 
P1 P5+ 6 c 0.0000 0.0000 0.40508(3) 1 0 0.00603(17) 
O1 O2- 6 c 0.0000 0.0000 0.32372(8) 1 0 0.0151(4) 
O2 O2- 18 h 0.17371(10) 0.34742(19) 0.09950(4) 1 0 0.0114(2) 

loop_
_atom_site_aniso_label
_atom_site_aniso_type_symbol
_atom_site_aniso_U_11
_atom_site_aniso_U_22
_atom_site_aniso_U_33
_atom_site_aniso_U_12
_atom_site_aniso_U_13
_atom_site_aniso_U_23
Ca1 Ca2+ 0.0164(3) 0.0164(3) 0.0059(3) 0.00818(13) 0.000 0.000
Ca2 Ca2+ 0.0116(2) 0.0116(2) 0.0068(2) 0.00580(10) 0.000 0.000
P1 P5+ 0.0064(2) 0.0064(2) 0.0052(3) 0.00322(11) 0.000 0.000
O1 O2- 0.0193(6) 0.0193(6) 0.0066(7) 0.0097(3) 0.000 0.000
O2 O2- 0.0140(4) 0.0073(4) 0.0106(4) 0.0036(2) 0.00023(14) 0.0005(3)
#End of data_188081-ICSD


