data_202984-ICSD
#?2014 by Fachinformationszentrum Karlsruhe, and the U.S. Secretary of 
#Commerce on behalf of the United States.  All rights reserved.
_database_code_ICSD                202984
_audit_creation_date               1990/06/08
_chemical_name_systematic          'Dipotassium Heptaoxodiuranate'
_chemical_formula_structural       'K2 (U2 O7)'
_chemical_formula_sum              'K2 O7 U2'
_publ_section_title
;
Synthese et Structure de K U2 O7 Monoclinique
;
loop_
_citation_id
_citation_journal_abbrev
_citation_year
_citation_journal_volume
_citation_page_first
_citation_page_last
_citation_journal_id_ASTM
primary 'Journal of the Less-Common Metals' 1989 154 361 365 JCOMAH
_publ_author_name                  'Saine, M.C.'
_cell_length_a                     6.931(3)
_cell_length_b                     7.690(3)
_cell_length_c                     6.984(3)
_cell_angle_alpha                  90.
_cell_angle_beta                   109.69(5)
_cell_angle_gamma                  90.
_cell_volume                       350.48
_cell_formula_units_Z              2
_symmetry_space_group_name_H-M     'P 1 21 1'
_symmetry_Int_Tables_number        4
_refine_ls_R_factor_all            .066
loop_
_symmetry_equiv_pos_site_id
_symmetry_equiv_pos_as_xyz
  1	'-x, y+.5, -z'
  2	'x, y, z'
loop_
_atom_type_symbol
_atom_type_oxidation_number
K1+	1
O2-	-2
U6+	6
loop_
_atom_site_label
_atom_site_type_symbol
_atom_site_symmetry_multiplicity
_atom_site_Wyckoff_symbol
_atom_site_fract_x
_atom_site_fract_y
_atom_site_fract_z
_atom_site_occupancy
_atom_site_attached_hydrogens
_atom_site_B_iso_or_equiv
U1 U6+ 2 a 0.0257(2) 0 0.0070(4) 1. 0 0.62(4) 
U2 U6+ 2 a 0.4723(2) 0.2486(2) 0.0002(11) 1. 0 0.93(2) 
K1 K1+ 2 a 0.5175(13) -.0068(8) 0.5037(19) 1. 0 1.22(2) 
K2 K1+ 2 a -.0238(13) 0.2389(8) 0.4899(19) 1. 0 1.25(1) 
O1 O2- 2 a 0.1281(40) 0.2598(39) -.0216(65) 1. 0 1.31(10) 
O2 O2- 2 a 0.3495(31) -.0150(25) 0.0239(56) 1. 0 1.27(10) 
O3 O2- 2 a 0.0717(40) 0.4908(40) 0.2742(65) 1. 0 1.66(22) 
O4 O2- 2 a 0.6203(38) 0.7380(23) 0.2896(59) 1. 0 1.25(14) 
O5 O2- 2 a 0.5667(47) 0.268(6) 0.2906(70) 1. 0 1.82(11) 
O6 O2- 2 a 0.1211(39) -.0089(25) 0.2998(66) 1. 0 1.22(20) 
O7 O2- 2 a 0.7172(51) 0.0829(36) -.0052(71) 1. 0 3.80(25) 

#End of data_202984-ICSD


