data_81504-ICSD
#?2014 by Fachinformationszentrum Karlsruhe, and the U.S. Secretary of 
#Commerce on behalf of the United States.  All rights reserved.
_database_code_ICSD                81504
_audit_creation_date               1997/05/13
_chemical_name_systematic          'Sodium Sulfate(VI) - Ii'
_chemical_formula_structural       'Na2 (S O4)'
_chemical_formula_sum              'Na2 O4 S1'
_publ_section_title
;
Structures and phase transitions of Na2 S O4
;
loop_
_citation_id
_citation_journal_abbrev
_citation_year
_citation_journal_volume
_citation_page_first
_citation_page_last
_citation_journal_id_ASTM
primary 'Journal of Applied Crystallography' 1996 29 42 47 JACGAR
_publ_author_name
;
Rasmussen, S.E.;Jorgensen, J.E.;Lundtoft, B.
;
_cell_length_a                     5.30991(22)
_cell_length_b                     9.46928(38)
_cell_length_c                     7.1436(29)
_cell_angle_alpha                  90.
_cell_angle_beta                   90.
_cell_angle_gamma                  90.
_cell_volume                       359.19
_cell_formula_units_Z              4
_symmetry_space_group_name_H-M     'P b n m'
_symmetry_Int_Tables_number        62
_refine_ls_R_factor_all            .103
loop_
_symmetry_equiv_pos_site_id
_symmetry_equiv_pos_as_xyz
  1	'-x+.5, y+.5, z'
  2	'x, y, -z+.5'
  3	'x+.5, -y+.5, z+.5'
  4	'-x, -y, -z'
  5	'x+.5, -y+.5, -z'
  6	'-x, -y, z+.5'
  7	'-x+.5, y+.5, -z+.5'
  8	'x, y, z'
loop_
_atom_type_symbol
_atom_type_oxidation_number
Na1+	1
O2-	-2
S6+	6
loop_
_atom_site_label
_atom_site_type_symbol
_atom_site_symmetry_multiplicity
_atom_site_Wyckoff_symbol
_atom_site_fract_x
_atom_site_fract_y
_atom_site_fract_z
_atom_site_occupancy
_atom_site_attached_hydrogens
_atom_site_B_iso_or_equiv
Na1 Na1+ 4 b 0 0.5 0 1. 0 1.21(17) 
Na2 Na1+ 4 c -.0230(17) 0.1536(8) 0.25 1. 0 3.53(23) 
S1 S6+ 4 c 0.0158(13) 0.8267(5) 0.25 1. 0 1.80(19) 
O1 O2- 4 c 0.0379(24) 0.6792(12) 0.25 1. 0 3.32(35) 
O2 O2- 4 c 0.7595(21) 0.8589(2) 0.25 1. 0 1.63(32) 
O3 O2- 8 d 0.1471(12) 0.877(1) 0.0926(9) 1. 0 2.12(27) 

#End of data_81504-ICSD


