data_171710-ICSD
#?2014 by Fachinformationszentrum Karlsruhe, and the U.S. Secretary of 
#Commerce on behalf of the United States.  All rights reserved.
_database_code_ICSD                171710
_audit_creation_date               2006/10/01
_chemical_name_systematic
;
Potassium Gadolinium Tetrakisphosphate(V)
;
_chemical_formula_structural       'K Gd (P O3)4'
_chemical_formula_sum              'Gd1 K1 O12 P4'
_publ_section_title
;
Crystal structure and optical characterization of pure and Nd-
substituted type III K Gd (P O3)4
;
loop_
_citation_id
_citation_journal_abbrev
_citation_year
_citation_journal_volume
_citation_journal_issue
_citation_page_first
_citation_page_last
_citation_journal_id_ASTM
primary 'Chemistry of Materials' 2006 18 1 221 228 CMATEX
_publ_author_name
;
Parreu, I.;Carvajal, J.J.;Solans, X.;Diaz, F.;Aguilo, M.
;
_cell_length_a                     7.255(4)
_cell_length_b                     8.356(5)
_cell_length_c                     7.934(5)
_cell_angle_alpha                  90
_cell_angle_beta                   91.68(5)
_cell_angle_gamma                  90
_cell_volume                       480.77
_cell_formula_units_Z              2
_symmetry_space_group_name_H-M     'P 1 21 1'
_symmetry_Int_Tables_number        4
_refine_ls_R_factor_all            .0675
loop_
_symmetry_equiv_pos_site_id
_symmetry_equiv_pos_as_xyz
  1	'-x, y+.5, -z'
  2	'x, y, z'
loop_
_atom_type_symbol
_atom_type_oxidation_number
Gd3+	3
K1+	1
O2-	-2
P5+	5
loop_
_atom_site_label
_atom_site_type_symbol
_atom_site_symmetry_multiplicity
_atom_site_Wyckoff_symbol
_atom_site_fract_x
_atom_site_fract_y
_atom_site_fract_z
_atom_site_occupancy
_atom_site_attached_hydrogens
_atom_site_U_iso_or_equiv
Gd1 Gd3+ 2 a 0.2376(1) 0.2500(2) 0.2426(1) 1. 0 0.016(1) 
K1 K1+ 2 a 0.7360(5) 0.0531(6) 0.2724(4) 1. 0 0.031(1) 
P1 P5+ 2 a 0.1010(5) 0.8295(6) 0.1005(4) 1. 0 0.027(1) 
P2 P5+ 2 a 0.4396(6) 0.6181(6) 0.0976(5) 1. 0 0.025(1) 
P3 P5+ 2 a 0.6179(5) 0.4973(6) 0.3980(4) 1. 0 0.027(1) 
P4 P5+ 2 a -0.0053(5) 0.1062(5) 0.6177(5) 1. 0 0.022(1) 
O1 O2- 2 a 0.0949(16) 0.9888(16) 0.1698(14) 1. 0 0.038(2) 
O2 O2- 2 a 0.6923(16) 0.2811(16) 0.8881(13) 1. 0 0.040(3) 
O3 O2- 2 a 0.0078(16) 0.2033(13) 0.7842(12) 1. 0 0.028(2) 
O4 O2- 2 a 0.8300(20) -.0100(20) 0.6154(17) 1. 0 0.036(3) 
O5 O2- 2 a 0.6810(20) 0.9870(20) 0.9231(17) 1. 0 0.034(3) 
O6 O2- 2 a 0.4320(20) 0.1770(2) 0.0337(18) 1. 0 0.040(3) 
O7 O2- 2 a 0.0537(18) 0.1895(18) 0.4675(16) 1. 0 0.026(2) 
O8 O2- 2 a 0.1779(16) -.0139(15) 0.6581(14) 1. 0 0.036(2) 
O9 O2- 2 a 0.4476(19) 0.1250(19) 0.7221(15) 1. 0 0.042(3) 
O10 O2- 2 a 0.5344(15) 0.3315(14) 0.5339(16) 1. 0 0.029(2) 
O11 O2- 2 a 0.9620(15) 0.3054(15) 0.0769(13) 1. 0 0.031(2) 
O12 O2- 2 a 0.3935(16) 0.0495(15) 0.4235(14) 1. 0 0.036(2) 

#End of data_171710-ICSD


