data_20480-ICSD
#?2014 by Fachinformationszentrum Karlsruhe, and the U.S. Secretary of 
#Commerce on behalf of the United States.  All rights reserved.
_database_code_ICSD                20480
_audit_creation_date               1980/01/01
_audit_update_record               2013/08/01
_chemical_name_systematic
;
Disodium Dimanganese Catena-silicate
;
_chemical_formula_structural       'Na2 Mn2 Si2 O7'
_chemical_formula_sum              'Mn2 Na2 O7 Si2'
_publ_section_title
;
The crystal structure of the synthetic silicate Na2 Mn2 Si2 O7
;
loop_
_citation_id
_citation_journal_abbrev
_citation_year
_citation_journal_volume
_citation_page_first
_citation_page_last
_citation_journal_id_ASTM
primary 'Doklady Akademii Nauk SSSR' 1967 173 1401 1403 DANKAS
_publ_author_name
;
Astakhova, L.P.;Pobedimskaya, E.A.;Simonov, V.I.
;
_cell_length_a                     8.4
_cell_length_b                     13.5
_cell_length_c                     5.69
_cell_angle_alpha                  90.
_cell_angle_beta                   90.
_cell_angle_gamma                  90.
_cell_volume                       645.25
_cell_formula_units_Z              4
_symmetry_space_group_name_H-M     'P 1 21/n 1'
_symmetry_Int_Tables_number        14
_refine_ls_R_factor_all            .174
loop_
_symmetry_equiv_pos_site_id
_symmetry_equiv_pos_as_xyz
  1	'-x+.5, y+.5, -z+.5'
  2	'-x, -y, -z'
  3	'x+.5, -y+.5, z+.5'
  4	'x, y, z'
loop_
_atom_type_symbol
_atom_type_oxidation_number
Mn2+	2
Na1+	1
O2-	-2
Si4+	4
loop_
_atom_site_label
_atom_site_type_symbol
_atom_site_symmetry_multiplicity
_atom_site_Wyckoff_symbol
_atom_site_fract_x
_atom_site_fract_y
_atom_site_fract_z
_atom_site_occupancy
_atom_site_attached_hydrogens
Mn1 Mn2+ 4 e 0.711 0.008 0.138 1. 0 
Mn2 Mn2+ 4 e 0.119 0.082 0.339 1. 0 
Si1 Si4+ 4 e 0.97 0.117 0.822 1. 0 
Si2 Si4+ 4 e 0.449 0.165 0.177 1. 0 
Na1 Na1+ 4 e 0.316 0.244 0.716 1. 0 
Na2 Na1+ 4 e 0.624 0.161 0.67 1. 0 
O1 O2- 4 e 0.958 0.209 0.624 1. 0 
O2 O2- 4 e 0.079 0.03 0.696 1. 0 
O3 O2- 4 e 0.612 0.127 0.278 1. 0 
O4 O2- 4 e 0.045 0.162 0.056 1. 0 
O5 O2- 4 e 0.319 0.15 0.384 1. 0 
O6 O2- 4 e 0.816 0.051 0.823 1. 0 
O7 O2- 4 e 0.419 0.11 0.936 1. 0 

#End of data_20480-ICSD


