data_188088-ICSD
#?2014 by Fachinformationszentrum Karlsruhe, and the U.S. Secretary of 
#Commerce on behalf of the United States.  All rights reserved.
_database_code_ICSD                188088
_audit_creation_date               2014/02/01
_chemical_name_systematic          'Sodium Vanadyl(IV) Phosphate'
_chemical_formula_structural       'Na (V O) (P O4)'
_chemical_formula_sum              'Na1 O5 P1 V1'
_publ_section_title
;
Exploration of Na V O P O4 as a cathode for a Na-ion battery
;
loop_
_citation_id
_citation_journal_abbrev
_citation_year
_citation_journal_volume
_citation_journal_issue
_citation_page_first
_citation_page_last
_citation_journal_id_ASTM
primary 'ChemComm - Chemical Communications' 2013 49 46 5280 5282 CHCOFS
_publ_author_name
;
Song Jie;Xu Maowen;Wang Long;Goodenough, J.B.
;
_cell_length_a                     6.518(5)
_cell_length_b                     8.446(4)
_cell_length_c                     7.115(1)
_cell_angle_alpha                  90.
_cell_angle_beta                   115.25(0)
_cell_angle_gamma                  90.
_cell_volume                       354.26
_cell_formula_units_Z              4
_symmetry_space_group_name_H-M     'P 1 21/c 1'
_symmetry_Int_Tables_number        14
_refine_ls_R_factor_all            .049
loop_
_symmetry_equiv_pos_site_id
_symmetry_equiv_pos_as_xyz
  1	'x, -y+.5, z+.5'
  2	'-x, -y, -z'
  3	'-x, y+.5, -z+.5'
  4	'x, y, z'
loop_
_atom_type_symbol
_atom_type_oxidation_number
Na1+	1
O2-	-2
P5+	5
V4+	4
loop_
_atom_site_label
_atom_site_type_symbol
_atom_site_symmetry_multiplicity
_atom_site_Wyckoff_symbol
_atom_site_fract_x
_atom_site_fract_y
_atom_site_fract_z
_atom_site_occupancy
_atom_site_attached_hydrogens
_atom_site_U_iso_or_equiv
Na1 Na1+ 4 e 0.2521 0.5894 0.2812 1. 0 0.0208 
V1 V4+ 4 e 0.2468 0.2608 0.0269 1. 0 0.0045 
P1 P5+ 4 e 0.7481 0.4334 0.2493 1. 0 0.0028 
O1 O2- 4 e 0.251 0.3241 0.2525 1. 0 0.00658 
O2 O2- 4 e 0.0683 0.8175 0.0985 1. 0 0.00658 
O3 O2- 4 e 0.1431 0.0357 0.3669 1. 0 0.00658 
O4 O2- 4 e 0.565 0.3311 0.0909 1. 0 0.00658 
O5 O2- 4 e 0.352 0.0391 0.1258 1. 0 0.00658 

#End of data_188088-ICSD


