data_74043-ICSD
#?2014 by Fachinformationszentrum Karlsruhe, and the U.S. Secretary of 
#Commerce on behalf of the United States.  All rights reserved.
_database_code_ICSD                74043
_audit_creation_date               1995/01/10
_chemical_name_systematic
;
Potassium Molybdenum Niobium Oxide (2/4/3/20)
;
_chemical_formula_structural       'K2 Mo7 O20'
_chemical_formula_sum              'K2 Mo7 O20'
_publ_section_title
;
Reduced molybdenum-niobium oxides. I. Synthesis, structure and 
physical properties of K2Mo4Nb3O20
;
loop_
_citation_id
_citation_journal_abbrev
_citation_year
_citation_journal_volume
_citation_page_first
_citation_page_last
_citation_journal_id_ASTM
primary 'Inorganic Chemistry' 1993 32 4306 4310 INOCAJ
_publ_author_name                  'Chen, S.C.;Wang, B.;Greenblatt, M.'
_cell_length_a                     4.0176(7)
_cell_length_b                     17.891(4)
_cell_length_c                     21.825(3)
_cell_angle_alpha                  90.
_cell_angle_beta                   90.
_cell_angle_gamma                  90.
_cell_volume                       1568.76
_cell_formula_units_Z              4
_symmetry_space_group_name_H-M     'P b c m'
_symmetry_Int_Tables_number        57
_refine_ls_R_factor_all            .035
loop_
_symmetry_equiv_pos_site_id
_symmetry_equiv_pos_as_xyz
  1	'x, -y+.5, z+.5'
  2	'-x, y+.5, z'
  3	'x, y, -z+.5'
  4	'-x, -y, -z'
  5	'-x, y+.5, -z+.5'
  6	'x, -y+.5, -z'
  7	'-x, -y, z+.5'
  8	'x, y, z'
loop_
_atom_type_symbol
_atom_type_oxidation_number
K1+	1
Mo5.43+	5.43
O2-	-2
loop_
_atom_site_label
_atom_site_type_symbol
_atom_site_symmetry_multiplicity
_atom_site_Wyckoff_symbol
_atom_site_fract_x
_atom_site_fract_y
_atom_site_fract_z
_atom_site_occupancy
_atom_site_attached_hydrogens
_atom_site_B_iso_or_equiv
Mo1 Mo5.43+ 8 e 0.0721(5) 0.29378(7) 0.66328(6) 1. 0 0.42(2) 
Mo2 Mo5.43+ 8 e 0.0711(5) 0.41077(7) 0.39339(6) 1. 0 0.47(2) 
Mo3 Mo5.43+ 4 c 0.0673(7) 0.75 0.5 1. 0 0.63(4) 
Mo4 Mo5.43+ 4 d 0.0786(7) 0.6475(1) 0.75 1. 0 0.48(3) 
Mo5 Mo5.43+ 4 d 0.0821(8) 0.5332(1) 0.25 1. 0 0.67(4) 
K1 K1+ 8 e 0.501(1) 0.5911(3) 0.0527(3) 1. 0 2.9(1) 
O1 O2- 8 e 0.502(3) 0.2948(6) 0.6626(5) 1. 0 1.1(2) 
O2 O2- 8 e 0.005(3) 0.0032(6) 0.5737(5) 1. 0 1.0(3) 
O3 O2- 8 e 0.505(3) 0.0934(7) 0.6096(6) 1. 0 1.5(2) 
O4 O2- 8 e 0.998(3) 0.3016(6) 0.5796(5) 1. 0 0.7(2) 
O5 O2- 8 e 0.997(3) 0.4450(6) 0.1930(5) 1. 0 0.8(2) 
O6 O2- 8 e 0.997(3) 0.1513(6) 0.5390(5) 1. 0 0.6(3) 
O7 O2- 4 c 0.496(4) 0.25 0.5 1. 0 0.6(3) 
O8 O2- 8 e 0.997(3) 0.3931(5) 0.6869(5) 1. 0 0.5(2) 
O9 O2- 4 d 0.984(4) 0.2629(8) 0.75 1. 0 0.4(3) 
O10 O2- 4 d 0.506(4) 0.9668(8) 0.75 1. 0 0.5(3) 
O11 O2- 8 e 0.985(3) 0.1837(5) 0.6610(4) 1. 0 0.3(2) 
O12 O2- 4 d 0.483(4) 0.1464(7) 0.75 1. 0 0.1(3) 

#End of data_74043-ICSD


