data_168082-ICSD
#?2014 by Fachinformationszentrum Karlsruhe, and the U.S. Secretary of 
#Commerce on behalf of the United States.  All rights reserved.
_database_code_ICSD                168082
_audit_creation_date               2011/02/01
_chemical_name_systematic          'Lead Dicalcium Trizinc Trisilicate'
_chemical_formula_structural       'Pb Ca2 Zn3 (Si O4)3'
_chemical_formula_sum              'Ca2 O12 Pb1 Si3 Zn3'
_chemical_name_mineral             Esperite
_publ_section_title
;
The crystal structure of esperite, with a revised chemical formula, 
Pb Ca2 (Zn Si O4)3, isostructural with beryllonite
;
loop_
_citation_id
_citation_journal_abbrev
_citation_year
_citation_journal_volume
_citation_page_first
_citation_page_last
_citation_journal_id_ASTM
primary 'American Mineralogist' 2010 95 699 705 AMMIAY
_publ_author_name
;
Tait, K.T.;Yang He Xiong;Downs, R.T.;Li Chen;Pinch, W.W.
;
_cell_length_a                     8.7889(2)
_cell_length_b                     8.2685(2)
_cell_length_c                     15.2535(3)
_cell_angle_alpha                  90.
_cell_angle_beta                   90.050(1)
_cell_angle_gamma                  90.
_cell_volume                       1108.49
_cell_formula_units_Z              4
_symmetry_space_group_name_H-M     'P 1 21/n 1'
_symmetry_Int_Tables_number        14
_refine_ls_R_factor_all            .0222
loop_
_symmetry_equiv_pos_site_id
_symmetry_equiv_pos_as_xyz
  1	'-x+.5, y+.5, -z+.5'
  2	'-x, -y, -z'
  3	'x+.5, -y+.5, z+.5'
  4	'x, y, z'
loop_
_atom_type_symbol
_atom_type_oxidation_number
Ca2+	2
O2-	-2
Pb2+	2
Si4+	4
Zn2+	2
loop_
_atom_site_label
_atom_site_type_symbol
_atom_site_symmetry_multiplicity
_atom_site_Wyckoff_symbol
_atom_site_fract_x
_atom_site_fract_y
_atom_site_fract_z
_atom_site_occupancy
_atom_site_attached_hydrogens
_atom_site_U_iso_or_equiv
Pb1 Pb2+ 4 e 0.24576(1) 0.05520(1) 0.25083(1) 1. 0 0.00928(2) 
Ca1 Ca2+ 4 e 0.73827(4) 0.46078(5) 0.07414(3) 1. 0 0.00779(6) 
Ca2 Ca2+ 4 e 0.76071(4) 0.03835(5) 0.08855(3) 1. 0 0.00768(6) 
Zn1 Zn2+ 4 e 0.57626(3) 0.33526(3) 0.24338(2) 1. 0 0.00795(4) 
Zn2 Zn2+ 4 e 0.07422(3) 0.33879(3) 0.09038(2) 1. 0 0.00789(4) 
Zn3 Zn2+ 4 e 0.09274(3) 0.33936(3) 0.41626(2) 1. 0 0.00797(4) 
Si1 Si4+ 4 e 0.91112(6) 0.22833(7) 0.26527(4) 1. 0 0.00588(9) 
Si2 Si4+ 4 e 0.43933(6) 0.22969(7) 0.41207(4) 1. 0 0.00581(9) 
Si3 Si4+ 4 e 0.39507(6) 0.22585(7) 0.07455(4) 1. 0 0.00596(9) 
O1 O2- 4 e 0.4095(2) 0.2295(2) 0.1819(1) 1. 0 0.0094(2) 
O2 O2- 4 e 0.4339(2) 0.7366(2) 0.2947(1) 1. 0 0.0093(2) 
O3 O2- 4 e 0.2698(2) 0.2303(2) 0.3661(1) 1. 0 0.0095(2) 
O4 O2- 4 e 0.7684(2) 0.2503(2) 0.1979(1) 1. 0 0.0087(2) 
O5 O2- 4 e 0.9125(2) 0.2422(2) 0.0170(1) 1. 0 0.0082(2) 
O6 O2- 4 e 0.5655(2) 0.2541(2) 0.0346(1) 1. 0 0.0086(2) 
O7 O2- 4 e 0.5464(2) 0.3672(2) 0.3678(1) 1. 0 0.0097(2) 
O8 O2- 4 e 0.2762(2) 0.3633(2) 0.0417(1) 1. 0 0.0099(2) 
O9 O2- 4 e 0.9147(2) 0.3644(2) 0.3420(1) 1. 0 0.0097(2) 
O10 O2- 4 e 0.5889(2) 0.5519(2) 0.1881(1) 1. 0 0.0115(2) 
O11 O2- 4 e -0.0172(2) 0.5545(2) 0.1060(1) 1. 0 0.0102(2) 
O12 O2- 4 e 0.1723(2) 0.5508(2) 0.4532(1) 1. 0 0.0103(2) 

loop_
_atom_site_aniso_label
_atom_site_aniso_type_symbol
_atom_site_aniso_U_11
_atom_site_aniso_U_22
_atom_site_aniso_U_33
_atom_site_aniso_U_12
_atom_site_aniso_U_13
_atom_site_aniso_U_23
Pb1 Pb2+ 0.01076(3) 0.00671(3) 0.01038(3) 0.00027(2) 0.00008(2) -0.00001(2)
Ca1 Ca2+ 0.0082(2) 0.0068(2) 0.0084(2) -0.0006(1) 0.0008(1) 0.0004(1)
Ca2 Ca2+ 0.0095(2) 0.0060(2) 0.0076(2) -0.0006(1) -0.0010(1) 0.0004(1)
Zn1 Zn2+ 0.00805(9) 0.00877(9) 0.00704(9) -0.00053(7) 0.00070(7) 
-0.00056(7)
Zn2 Zn2+ 0.00759(9) 0.00824(9) 0.00786(9) -0.00036(7) 0.00004(7) 0.00054(7)
Zn3 Zn2+ 0.00828(9) 0.00850(9) 0.00713(9) 0.00048(7) -0.00057(7) 
-0.00032(7)
Si1 Si4+ 0.0062(2) 0.0058(2) 0.0057(2) 0.0005(2) -0.0001(2) -0.0003(2)
Si2 Si4+ 0.0062(2) 0.0059(2) 0.0053(2) -0.0003(2) 0.0005(2) 0.0000(2)
Si3 Si4+ 0.0060(2) 0.0058(2) 0.0062(2) -0.0005(2) 0.0002(2) 0.0001(2)
O1 O2- 0.0095(6) 0.0121(6) 0.0066(6) -0.0038(5) 0.0005(5) -0.0003(5)
O2 O2- 0.0075(6) 0.0121(6) 0.0083(6) -0.0016(5) 0.0007(5) -0.0038(5)
O3 O2- 0.0079(6) 0.0117(6) 0.0089(6) 0.0023(5) -0.0019(5) -0.0038(5)
O4 O2- 0.0080(6) 0.0109(6) 0.0071(6) 0.0019(5) -0.0012(4) -0.0016(5)
O5 O2- 0.0097(6) 0.0096(6) 0.0052(5) -0.0020(5) 0.0004(4) -0.0002(4)
O6 O2- 0.0067(6) 0.0104(6) 0.0088(6) -0.0015(5) 0.0012(4) -0.0018(5)
O7 O2- 0.0130(6) 0.0088(6) 0.0073(6) -0.0034(5) 0.0019(5) 0.0002(4)
O8 O2- 0.0091(6) 0.0087(6) 0.0118(6) 0.0021(5) 0.0013(5) 0.0041(5)
O9 O2- 0.0107(6) 0.0085(6) 0.0098(6) 0.0015(5) -0.0029(5) -0.0036(5)
O10 O2- 0.0173(7) 0.0063(6) 0.0108(6) -0.0007(5) 0.0033(5) -0.0009(5)
O11 O2- 0.0096(6) 0.0055(6) 0.0156(7) -0.0006(4) 0.0012(5) 0.0004(5)
O12 O2- 0.0123(6) 0.0067(6) 0.0120(6) 0.0011(5) -0.0034(5) 0.0005(5)
#End of data_168082-ICSD


