data_50008-ICSD
#?2014 by Fachinformationszentrum Karlsruhe, and the U.S. Secretary of 
#Commerce on behalf of the United States.  All rights reserved.
_database_code_ICSD                50008
_audit_creation_date               1998/06/26
_chemical_name_systematic          'Potassium Trivanadate'
_chemical_formula_structural       'K (V3 O8)'
_chemical_formula_sum              'K1 O8 V3'
_publ_section_title
;
Hydrothermal synthesis and structure refinements of alkali-metal 
trivanadates A V3 O8 (A = K, Rb, Cs)
;
loop_
_citation_id
_citation_journal_abbrev
_citation_year
_citation_journal_volume
_citation_journal_issue
_citation_page_first
_citation_page_last
_citation_journal_id_ASTM
primary 'Materials Research Bulletin' 1997 32 9 1201 1209 MRBUAC
_publ_author_name                  'Oka, Y.;Yao, T.;Yamamoto, N.'
_cell_length_a                     4.976(2)
_cell_length_b                     8.383(2)
_cell_length_c                     7.641(2)
_cell_angle_alpha                  90.
_cell_angle_beta                   96.94(3)
_cell_angle_gamma                  90.
_cell_volume                       316.4
_cell_formula_units_Z              2
_symmetry_space_group_name_H-M     'P 1 21/m 1'
_symmetry_Int_Tables_number        11
_refine_ls_R_factor_all            .027
loop_
_symmetry_equiv_pos_site_id
_symmetry_equiv_pos_as_xyz
  1	'x, -y+.5, z'
  2	'-x, -y, -z'
  3	'-x, y+.5, -z'
  4	'x, y, z'
loop_
_atom_type_symbol
_atom_type_oxidation_number
K1+	1
O2-	-2
V5+	5
loop_
_atom_site_label
_atom_site_type_symbol
_atom_site_symmetry_multiplicity
_atom_site_Wyckoff_symbol
_atom_site_fract_x
_atom_site_fract_y
_atom_site_fract_z
_atom_site_occupancy
_atom_site_attached_hydrogens
_atom_site_B_iso_or_equiv
K1 K1+ 2 e 0.9535(2) 0.25 0.0644(1) 1. 0 2.25(4) 
V1 V5+ 2 e 0.9184(1) 0.25 0.57859(8) 1. 0 0.60(2) 
V2 V5+ 4 f 0.44064(8) 0.05392(5) 0.69116(6) 1. 0 0.60(1) 
O1 O2- 2 e 0.1187(6) 0.25 0.4295(4) 1. 0 1.1(1) 
O2 O2- 2 e 0.5973(5) 0.25 0.7653(3) 1. 0 0.65(8) 
O3 O2- 4 f 0.6863(3) 0.0861(2) 0.5064(2) 1. 0 0.80(6) 
O4 O2- 4 f 0.4298(4) 0.0692(2) 0.1626(3) 1. 0 1.20(7) 
O5 O2- 4 f 0.1189(3) 0.0981(2) 0.7430(2) 1. 0 0.76(6) 

#End of data_50008-ICSD


