data_409825-ICSD
#?2014 by Fachinformationszentrum Karlsruhe, and the U.S. Secretary of 
#Commerce on behalf of the United States.  All rights reserved.
_database_code_ICSD                409825
_audit_creation_date               2006/10/01
_audit_update_record               2010/02/01
_chemical_name_systematic
;
Potassium Ytterbium Tetrathiosilicate
;
_chemical_formula_structural       'K Yb (Si S4)'
_chemical_formula_sum              'K1 S4 Si1 Yb1'
_publ_section_title
;
Crystal structure of potassium ytterbium(III) tetrathiosilicate, K Yb 
Si S4
;
loop_
_citation_id
_citation_journal_abbrev
_citation_year
_citation_journal_volume
_citation_page_first
_citation_page_last
_citation_journal_id_ASTM
primary 'Zeitschrift fuer Kristallographie - New Crystal Structures'
 2005 220 293 293 ZKNSFT
_publ_author_name
;
Gray, A.K.;Knaust, J.M.;Chan, B.-C.;Polyakova, L.A.;Dorhout, P.K.
;
_cell_length_a                     6.316(5)
_cell_length_b                     6.557(5)
_cell_length_c                     8.571(7)
_cell_angle_alpha                  90.00
_cell_angle_beta                   108.088(12)
_cell_angle_gamma                  90.00
_cell_volume                       337.42
_cell_formula_units_Z              2
_symmetry_space_group_name_H-M     'P 1 21 1'
_symmetry_Int_Tables_number        4
_refine_ls_R_factor_all            .0273
loop_
_symmetry_equiv_pos_site_id
_symmetry_equiv_pos_as_xyz
  1	'-x, y+.5, -z'
  2	'x, y, z'
loop_
_atom_type_symbol
_atom_type_oxidation_number
K1+	1
S2-	-2
Si4+	4
Yb3+	3
loop_
_atom_site_label
_atom_site_type_symbol
_atom_site_symmetry_multiplicity
_atom_site_Wyckoff_symbol
_atom_site_fract_x
_atom_site_fract_y
_atom_site_fract_z
_atom_site_occupancy
_atom_site_attached_hydrogens
_atom_site_U_iso_or_equiv
K1 K1+ 2 a 0.2699(5) 0.1877(10) 0.0642(3) 1 0 0.0304(9) 
Yb1 Yb3+ 2 a 0.23071(6) 0.16631(9) 0.54946(5) 1 0 0.01314(16) 
Si1 Si4+ 2 a 0.2179(5) -0.2966(6) 0.3260(4) 1 0 0.0129(9) 
S1 S2- 2 a 0.0175(6) 0.4392(5) 0.2998(5) 1 0 0.0153(11) 
S2 S2- 2 a -0.0249(6) -0.0616(5) 0.2815(5) 1 0 0.0133(10) 
S3 S2- 2 a 0.5833(4) 0.2025(7) 0.8298(3) 1 0 0.0181(10) 
S4 S2- 2 a 0.4254(5) -0.2408(4) 0.5690(4) 1 0 0.0149(7) 

loop_
_atom_site_aniso_label
_atom_site_aniso_type_symbol
_atom_site_aniso_U_11
_atom_site_aniso_U_22
_atom_site_aniso_U_33
_atom_site_aniso_U_12
_atom_site_aniso_U_13
_atom_site_aniso_U_23
K1 K1+ 0.0381(14) 0.035(3) 0.0186(13) 0.004(2) 0.0099(11) 0.004(2)
Yb1 Yb3+ 0.0117(2) 0.0142(2) 0.0141(3) -0.0003(3) 0.00477(17) 0.0002(4)
Si1 Si4+ 0.0122(14) 0.013(3) 0.0136(14) -0.0011(15) 0.0046(12) 0.0004(14)
S1 S2- 0.0148(17) 0.0126(19) 0.017(2) -0.0014(15) 0.0028(16) 0.0002(15)
S2 S2- 0.0155(16) 0.0086(18) 0.016(2) 0.0007(14) 0.0048(15) 0.0004(15)
S3 S2- 0.0126(13) 0.030(3) 0.0124(13) 0.0003(13) 0.0046(11) -0.0015(14)
S4 S2- 0.0148(15) 0.0165(14) 0.0141(15) 0.0005(12) 0.0056(13) -0.0022(13)
#End of data_409825-ICSD


