data_406792-ICSD
#?2014 by Fachinformationszentrum Karlsruhe, and the U.S. Secretary of 
#Commerce on behalf of the United States.  All rights reserved.
_database_code_ICSD                406792
_audit_creation_date               1997/11/10
_audit_update_record               2000/07/15
_chemical_name_systematic
;
Barium Dysprosium Platinum Zinc Oxide (13/8/4/4/37)
;
_chemical_formula_structural       'Ba13 (Dy8 Pt4 Zn4 O37)'
_chemical_formula_sum              'Ba13 Dy8 O37 Pt4 Zn4'
_publ_section_title
;
Zur Kristallchemie von Oxozinkat-Platinaten und Oxozinkaten der 
Zusammensetzung Ba13 Dy8 Zn4 Pt4 O37
;
loop_
_citation_id
_citation_journal_abbrev
_citation_year
_citation_journal_volume
_citation_page_first
_citation_page_last
_citation_journal_id_ASTM
primary 'Zeitschrift fuer Naturforschung, B: Chemical Sciences'
 1997 52 553 556 ZNBSEN
_publ_author_name                  'Mueller Buschbaum, H.;Sfreddo, O.'
_cell_length_a                     18.659(7)
_cell_length_b                     18.659(7)
_cell_length_c                     5.734(2)
_cell_angle_alpha                  90.
_cell_angle_beta                   90.
_cell_angle_gamma                  90.
_cell_volume                       1996.34
_cell_formula_units_Z              2
_symmetry_space_group_name_H-M     'I 4/m'
_symmetry_Int_Tables_number        87
_refine_ls_R_factor_all            .0831
loop_
_symmetry_equiv_pos_site_id
_symmetry_equiv_pos_as_xyz
  1	'-y, x, -z'
  2	'y, -x, -z'
  3	'x, y, -z'
  4	'-x, -y, -z'
  5	'y, -x, z'
  6	'-y, x, z'
  7	'-x, -y, z'
  8	'x, y, z'
  9	'-y+.5, x+.5, -z+.5'
 10	'y+.5, -x+.5, -z+.5'
 11	'x+.5, y+.5, -z+.5'
 12	'-x+.5, -y+.5, -z+.5'
 13	'y+.5, -x+.5, z+.5'
 14	'-y+.5, x+.5, z+.5'
 15	'-x+.5, -y+.5, z+.5'
 16	'x+.5, y+.5, z+.5'
loop_
_atom_type_symbol
_atom_type_oxidation_number
Ba2+	2
Dy3+	3
O2-	-2
Pt4+	4
Zn2+	2
loop_
_atom_site_label
_atom_site_type_symbol
_atom_site_symmetry_multiplicity
_atom_site_Wyckoff_symbol
_atom_site_fract_x
_atom_site_fract_y
_atom_site_fract_z
_atom_site_occupancy
_atom_site_attached_hydrogens
_atom_site_U_iso_or_equiv
Pt1 Pt4+ 8 h 0.46270(2) 0.20049(2) 0 1. 0 0.00653(6) 
Ba1 Ba2+ 2 a 0.5 0.5 0.5 1. 0 0.0106(2) 
Ba2 Ba2+ 8 h 0.42643(3) 0.29729(3) 0.5 1. 0 0.01031(10) 
Ba3 Ba2+ 8 h 0.39196(3) 0.01615(3) 0 1. 0 0.01114(11) 
Ba4 Ba2+ 8 h 0.36301(3) 0.43649(3) 0 1. 0 0.01087(10) 
Dy1 Dy3+ 8 h 0.31608(2) 0.12124(2) 0.5 1. 0 0.00831(7) 
Dy2 Dy3+ 8 h 0.30712(2) 0.23804(2) 0 1. 0 0.00761(7) 
Zn1 Zn2+ 8 h 0.21792(6) 0.09970(6) 0 1. 0 0.0090(2) 
O1 O2- 2 b 0.5 0.5 0 1. 0 0.020(3) 
O2 O2- 8 h 0.4185(4) 0.3012(4) 0 1. 0 0.0093(12) 
O3 O2- 8 h 0.1214(4) 0.0603(4) 0 1. 0 0.0151(14) 
O4 O2- 8 h 0.5151(4) 0.1026(4) 0 1. 0 0.0104(13) 
O5 O2- 16 i 0.5343(2) 0.2307(2) 0.2424(10) 1. 0 0.0094(8) 
O6 O2- 16 i 0.2307(2) 0.1767(2) 0.7522(10) 1. 0 0.0116(9) 
O7 O2- 16 i 0.3901(2) 0.1725(3) 0.7556(9) 1. 0 0.0123(9) 

#End of data_406792-ICSD


