data_202958-ICSD
#?2014 by Fachinformationszentrum Karlsruhe, and the U.S. Secretary of 
#Commerce on behalf of the United States.  All rights reserved.
_database_code_ICSD                202958
_audit_creation_date               1990/06/08
_audit_update_record               2013/02/01
_chemical_name_systematic
;
Lanthanum Copper Lithium Oxide (2/.5/.5/4)
;
_chemical_formula_structural       'La2 Cu0.5 Li0.5 O4'
_chemical_formula_sum              'Cu0.5 La2 Li0.5 O4'
_publ_section_title
;
Preparation and Crystal Structures of La2 Cu1-x Lix O4 Solid 
Solutions and Evidence for a New Oxide with a defect K2 Ni F4 
Structure: La4 Li2 O7
;
loop_
_citation_id
_citation_journal_abbrev
_citation_year
_citation_journal_volume
_citation_page_first
_citation_page_last
_citation_journal_id_ASTM
primary 'Journal of Solid State Chemistry' 1989 80 112 119 JSSCBI
_publ_author_name                  'Attfield, J.P.;Ferey, G.'
_cell_length_a                     5.2517(9)
_cell_length_b                     5.251(1)
_cell_length_c                     13.1539(3)
_cell_angle_alpha                  90.
_cell_angle_beta                   90.
_cell_angle_gamma                  90.
_cell_volume                       362.74
_cell_formula_units_Z              4
_symmetry_space_group_name_H-M     'A m m m'
_symmetry_Int_Tables_number        65
_refine_ls_R_factor_all            .083
loop_
_symmetry_equiv_pos_site_id
_symmetry_equiv_pos_as_xyz
  1	'x, -y, z'
  2	'x, y, -z'
  3	'-x, y, z'
  4	'-x, -y, -z'
  5	'-x, y, -z'
  6	'-x, -y, z'
  7	'x, -y, -z'
  8	'x, y, z'
  9	'x, -y+.5, z+.5'
 10	'x, y+.5, -z+.5'
 11	'-x, y+.5, z+.5'
 12	'-x, -y+.5, -z+.5'
 13	'-x, y+.5, -z+.5'
 14	'-x, -y+.5, z+.5'
 15	'x, -y+.5, -z+.5'
 16	'x, y+.5, z+.5'
loop_
_atom_type_symbol
_atom_type_oxidation_number
Cu3+	3
La3+	3
Li1+	1
O2-	-2
loop_
_atom_site_label
_atom_site_type_symbol
_atom_site_symmetry_multiplicity
_atom_site_Wyckoff_symbol
_atom_site_fract_x
_atom_site_fract_y
_atom_site_fract_z
_atom_site_occupancy
_atom_site_attached_hydrogens
_atom_site_B_iso_or_equiv
La1 La3+ 4 i 0 0 0.3622(1) 1. 0 0.10(4) 
La2 La3+ 4 j 0.5 0.5 0.3622(1) 1. 0 0.10(4) 
Cu1 Cu3+ 2 a 0 0 0 1. 0 0.3(1) 
Li1 Li1+ 2 c 0.5 0.5 0 1. 0 0.3(1) 
O1 O2- 8 o 0.248(2) 0.233(4) 0 1. 0 0.1(1) 
O2 O2- 4 i 0 0 0.1808(1) 1. 0 0.32(6) 
O3 O2- 4 j 0.5 0.5 0.1808(1) 1. 0 0.32(6) 

#End of data_202958-ICSD


