data_423447-ICSD
#?2014 by Fachinformationszentrum Karlsruhe, and the U.S. Secretary of 
#Commerce on behalf of the United States.  All rights reserved.
_database_code_ICSD                423447
_audit_creation_date               2012/08/01
_chemical_name_systematic
;
Silver Cesium Digallium Tetraselenide
;
_chemical_formula_structural       'Ag Cs Ga2 Se4'
_chemical_formula_sum              'Ag1 Cs1 Ga2 Se4'
_publ_section_title
;
Synthesis, structure, and electronic structure of Cs Ag Ga2 Se4
;
loop_
_citation_id
_citation_journal_abbrev
_citation_year
_citation_journal_volume
_citation_journal_issue
_citation_page_first
_citation_page_last
_citation_journal_id_ASTM
primary 'Journal of Solid State Chemistry' 2012 186 2 54 57 JSSCBI
_publ_author_name
;
Mei Dajiang;Yin Wenlong;Feng Kai;Bai Lei;Lin Zheshuai;Yao Jiyong;Wu 
Yicheng
;
_cell_length_a                     11.225(2)
_cell_length_b                     7.9443(16)
_cell_length_c                     21.303(4)
_cell_angle_alpha                  90.00
_cell_angle_beta                   103.10(3)
_cell_angle_gamma                  90.00
_cell_volume                       1850.25
_cell_formula_units_Z              8
_symmetry_space_group_name_H-M     'P 1 21/c 1'
_symmetry_Int_Tables_number        14
_refine_ls_R_factor_all            .0479
loop_
_symmetry_equiv_pos_site_id
_symmetry_equiv_pos_as_xyz
  1	'x, -y+.5, z+.5'
  2	'-x, -y, -z'
  3	'-x, y+.5, -z+.5'
  4	'x, y, z'
loop_
_atom_type_symbol
_atom_type_oxidation_number
Ag1+	1
Cs1+	1
Ga3+	3
Se2-	-2
loop_
_atom_site_label
_atom_site_type_symbol
_atom_site_symmetry_multiplicity
_atom_site_Wyckoff_symbol
_atom_site_fract_x
_atom_site_fract_y
_atom_site_fract_z
_atom_site_occupancy
_atom_site_attached_hydrogens
_atom_site_U_iso_or_equiv
Cs1 Cs1+ 4 e 0.65395(12) 0.24488(15) 0.32683(6) 1 0 0.0144(3) 
Cs2 Cs1+ 4 e 0.59528(13) 0.25152(16) 0.08012(6) 1 0 0.0210(4) 
Ag1 Ag1+ 4 e 0.01031(15) 0.51080(18) 0.17555(7) 1 0 0.0178(4) 
Ag2 Ag1+ 4 e 0.10848(17) 0.8038(2) 0.01101(8) 1 0 0.0296(5) 
Ga1 Ga3+ 4 e 0.0010(2) 0.5073(2) 0.32897(9) 1 0 0.0088(5) 
Ga2 Ga3+ 4 e 0.2337(2) 0.2440(2) 0.45235(9) 1 0 0.0082(5) 
Ga3 Ga3+ 4 e 0.23427(19) 0.2567(2) 0.10104(9) 1 0 0.0078(5) 
Ga4 Ga3+ 4 e 0.2643(2) 0.2541(2) 0.28202(9) 1 0 0.0086(5) 
Se1 Se2- 4 e 0.38482(19) 0.2780(2) 0.20009(9) 1 0 0.0137(5) 
Se2 Se2- 4 e 0.18032(19) 0.5325(2) 0.28501(9) 1 0 0.0122(5) 
Se3 Se2- 4 e 0.16986(19) 0.5176(2) 0.76226(9) 1 0 0.0122(5) 
Se4 Se2- 4 e 0.01857(18) 0.2677(2) 0.40023(9) 1 0 0.0096(5) 
Se5 Se2- 4 e 0.2848(2) 0.0296(2) 0.03286(9) 1 0 0.0129(5) 
Se6 Se2- 4 e 0.25309(19) 0.4870(2) 0.02829(9) 1 0 0.0119(5) 
Se7 Se2- 4 e 0.38694(19) 0.2205(2) 0.39125(9) 1 0 0.0140(5) 
Se8 Se2- 4 e 0.02093(18) 0.2473(2) 0.10545(9) 1 0 0.0102(5) 

loop_
_atom_site_aniso_label
_atom_site_aniso_type_symbol
_atom_site_aniso_U_11
_atom_site_aniso_U_22
_atom_site_aniso_U_33
_atom_site_aniso_U_12
_atom_site_aniso_U_13
_atom_site_aniso_U_23
Cs1 Cs1+ 0.0114(7) 0.0204(7) 0.0115(7) -0.0006(6) 0.0028(6) 0.0005(5)
Cs2 Cs1+ 0.0214(8) 0.0204(7) 0.0223(7) 0.0000(6) 0.0073(6) 0.0001(6)
Ag1 Ag1+ 0.0247(11) 0.0169(9) 0.0129(8) 0.0049(7) 0.0063(8) 0.0019(7)
Ag2 Ag1+ 0.0228(11) 0.0534(12) 0.0122(9) -0.0163(9) 0.0031(8) -0.0027(8)
Ga1 Ga3+ 0.0081(13) 0.0103(11) 0.0077(10) 0.0027(9) 0.0010(10) 0.0006(9)
Ga2 Ga3+ 0.0086(12) 0.0100(11) 0.0058(10) 0.0010(9) 0.0011(9) 0.0013(9)
Ga3 Ga3+ 0.0067(12) 0.0105(11) 0.0058(10) 0.0001(9) 0.0003(9) 0.0010(9)
Ga4 Ga3+ 0.0092(12) 0.0093(11) 0.0068(11) 0.0018(10) 0.0008(9) -0.0001(9)
Se1 Se2- 0.0131(12) 0.0214(12) 0.0074(10) 0.0016(9) 0.0041(9) 0.0002(9)
Se2 Se2- 0.0141(13) 0.0087(10) 0.0156(10) 0.0027(9) 0.0071(10) 0.0021(9)
Se3 Se2- 0.0125(12) 0.0105(10) 0.0133(10) 0.0008(9) 0.0021(9) 0.0010(8)
Se4 Se2- 0.0098(12) 0.0102(10) 0.0083(10) -0.0007(9) 0.0008(9) 0.0017(8)
Se5 Se2- 0.0210(13) 0.0103(10) 0.0080(10) 0.0028(9) 0.0044(9) 0.0007(8)
Se6 Se2- 0.0207(13) 0.0077(10) 0.0070(10) -0.0040(9) 0.0028(9) -0.0010(8)
Se7 Se2- 0.0129(13) 0.0214(12) 0.0075(10) -0.0002(9) 0.0020(9) -0.0001(9)
Se8 Se2- 0.0132(12) 0.0080(10) 0.0092(10) -0.0014(9) 0.0019(9) 0.0007(8)
#End of data_423447-ICSD


