data_166891-ICSD
#?2014 by Fachinformationszentrum Karlsruhe, and the U.S. Secretary of 
#Commerce on behalf of the United States.  All rights reserved.
_database_code_ICSD                166891
_audit_creation_date               2010/08/01
_chemical_name_systematic          'Silver Iron(III) Divanadate'
_chemical_formula_structural       'Ag Fe (V2 O7)'
_chemical_formula_sum              'Ag1 Fe1 O7 V2'
_publ_section_title
;
Ag3 Fe (V O4)2 and Ag Fe V2 O7: synthesis, structure and 
electrochemical characteristics of two new silver iron(III) vanadates
;
loop_
_citation_id
_citation_journal_abbrev
_citation_year
_citation_journal_volume
_citation_journal_issue
_citation_page_first
_citation_page_last
_citation_journal_id_ASTM
primary 'Chemistry of Materials' 2010 22 3 1149 1154 CMATEX
_publ_author_name
;
echt, G.A.;Vaughey, J.T.;Hwu Shioujyh
;
_cell_length_a                     5.6027(11)
_cell_length_b                     7.4851(15)
_cell_length_c                     7.6437(15)
_cell_angle_alpha                  65.07(3)
_cell_angle_beta                   89.48(3)
_cell_angle_gamma                  78.98(3)
_cell_volume                       284.4
_cell_formula_units_Z              2
_symmetry_space_group_name_H-M     'P -1'
_symmetry_Int_Tables_number        2
_refine_ls_R_factor_all            .0885
loop_
_symmetry_equiv_pos_site_id
_symmetry_equiv_pos_as_xyz
  1	'-x, -y, -z'
  2	'x, y, z'
loop_
_atom_type_symbol
_atom_type_oxidation_number
Ag1+	1
Fe3+	3
O2-	-2
V5+	5
loop_
_atom_site_label
_atom_site_type_symbol
_atom_site_symmetry_multiplicity
_atom_site_Wyckoff_symbol
_atom_site_fract_x
_atom_site_fract_y
_atom_site_fract_z
_atom_site_occupancy
_atom_site_attached_hydrogens
_atom_site_U_iso_or_equiv
Ag1 Ag1+ 2 i 0.1769(3) 0.3353(3) 0.9654(3) 1 0 0.0235(9) 
V1 V5+ 2 i 0.3075(6) 0.7732(5) 0.2137(5) 1 0 0.0086(10) 
V2 V5+ 2 i 0.2950(6) 0.7843(5) 0.7449(5) 1 0 0.0078(10) 
Fe1 Fe3+ 2 i -0.1729(5) 0.6791(4) 0.5241(4) 1 0 0.0075(9) 
O1 O2- 2 i 0.099(3) 0.631(2) 0.362(2) 1 0 0.010(3) 
O2 O2- 2 i 0.073(3) 0.656(2) 0.724(2) 1 0 0.013(3) 
O3 O2- 2 i 0.223(3) 1.028(2) 0.593(2) 1 0 0.017(3) 
O4 O2- 2 i 0.326(3) 0.743(3) 0.990(2) 1 0 0.017(3) 
O5 O2- 2 i 0.564(3) 0.677(2) 0.700(2) 1 0 0.015(3) 
O6 O2- 2 i 0.590(3) 0.697(3) 0.326(2) 1 0 0.017(3) 
O7 O2- 2 i 0.212(3) 1.008(3) 0.165(2) 1 0 0.021(4) 

loop_
_atom_site_aniso_label
_atom_site_aniso_type_symbol
_atom_site_aniso_U_11
_atom_site_aniso_U_22
_atom_site_aniso_U_33
_atom_site_aniso_U_12
_atom_site_aniso_U_13
_atom_site_aniso_U_23
Ag1 Ag1+ 0.0218(13) 0.0169(12) 0.0215(12) -0.0009(8) 0.0052(8) 0.0002(8)
V1 V5+ 0.0069(18) 0.0085(18) 0.0090(18) -0.0034(13) 0.0020(13) -0.0017(14)
V2 V5+ 0.0076(18) 0.0067(18) 0.0091(18) -0.0017(13) 0.0020(13) -0.0032(14)
Fe1 Fe3+ 0.0067(16) 0.0065(16) 0.0098(16) -0.0007(11) 0.0014(11) 
-0.0042(12)
O1 O2- 0.015(7) 0.006(7) 0.011(7) 0.000(6) 0.003(6) -0.006(6)
O2 O2- 0.018(8) 0.007(7) 0.011(7) -0.002(6) -0.001(6) -0.002(6)
O3 O2- 0.017(8) 0.009(8) 0.019(8) -0.003(6) 0.005(7) -0.002(6)
O4 O2- 0.013(8) 0.031(9) 0.009(7) -0.005(7) 0.001(6) -0.009(7)
O5 O2- 0.019(8) 0.013(8) 0.016(8) -0.001(6) 0.003(6) -0.010(6)
O6 O2- 0.010(8) 0.031(9) 0.013(8) -0.002(6) -0.003(6) -0.014(7)
O7 O2- 0.025(9) 0.019(9) 0.024(9) -0.004(7) 0.004(7) -0.015(7)
#End of data_166891-ICSD


