data_9286-ICSD
#?2014 by Fachinformationszentrum Karlsruhe, and the U.S. Secretary of 
#Commerce on behalf of the United States.  All rights reserved.
_database_code_ICSD                9286
_audit_creation_date               1980/01/01
_audit_update_record               1988/05/03
_chemical_name_systematic          'Zinc Nitrate Dihydrate'
_chemical_formula_structural       'Zn (N O3)2 (H2 O)2'
_chemical_formula_sum              'H4 N2 O8 Zn1'
_publ_section_title
;
Die Kristallstruktur von Zn (N O3)2 (H2 O)2
;
loop_
_citation_id
_citation_journal_abbrev
_citation_year
_citation_journal_volume
_citation_page_first
_citation_page_last
_citation_journal_id_ASTM
primary
;
Zeitschrift fuer Kristallographie, Kristallgeometrie, Kristallphysik, 
Kristallchemie (-144,1977)
;
 1969 129 305 317 ZEKGAX
_publ_author_name
;
Ribar, B.;Nowacki, W.;Sljukic, M.;Scavnicar, S.;Gabela, F.
;
_cell_length_a                     5.754(6)
_cell_length_b                     5.978(5)
_cell_length_c                     8.557(5)
_cell_angle_alpha                  90.
_cell_angle_beta                   91.03(33)
_cell_angle_gamma                  90.
_cell_volume                       294.29
_cell_formula_units_Z              2
_symmetry_space_group_name_H-M     'P 1 21/c 1'
_symmetry_Int_Tables_number        14
_refine_ls_R_factor_all            .093
loop_
_symmetry_equiv_pos_site_id
_symmetry_equiv_pos_as_xyz
  1	'x, -y+.5, z+.5'
  2	'-x, -y, -z'
  3	'-x, y+.5, -z+.5'
  4	'x, y, z'
loop_
_atom_type_symbol
_atom_type_oxidation_number
H1+	1
N5+	5
O2-	-2
Zn2+	2
loop_
_atom_site_label
_atom_site_type_symbol
_atom_site_symmetry_multiplicity
_atom_site_Wyckoff_symbol
_atom_site_fract_x
_atom_site_fract_y
_atom_site_fract_z
_atom_site_occupancy
_atom_site_attached_hydrogens
_atom_site_B_iso_or_equiv
Zn1 Zn2+ 2 d 0.5 0 0.5 1. 0 0 
N1 N5+ 4 e 0.2557(55) 0.3413(61) 0.3032(54) 1. 0 0 
O1 O2- 4 e 0.0721(53) 0.4165(58) 0.2470(49) 1. 0 0 
O2 O2- 4 e 0.4414(51) 0.3668(57) 0.2386(49) 1. 0 0 
O3 O2- 4 e 0.2432(44) 0.2250(45) 0.4213(45) 1. 0 0 
O4 O2- 4 e 0.7457(48) 0.2428(44) 0.4884(47) 1. 0 0 
H1 H1+ 4 e 0.675(50) 0.295(50) 0.395(50) 1. 0 2.5 
H2 H1+ 4 e 0.90(5) 0.24(5) 0.51(5) 1. 0 2.5 

#End of data_9286-ICSD


