data_48212-ICSD
#?2014 by Fachinformationszentrum Karlsruhe, and the U.S. Secretary of 
#Commerce on behalf of the United States.  All rights reserved.
_database_code_ICSD                48212
_audit_creation_date               1986/12/03
_audit_update_record               2008/02/01
_chemical_name_systematic          'Sodium Rubidium Trimolybdate'
_chemical_formula_structural       'Na Rb (Mo3 O10)'
_chemical_formula_sum              'Mo3 Na1 O10 Rb1'
_publ_section_title
;
Die kristallinen Phasen der Alkalitrimolybdate
;
loop_
_citation_id
_citation_journal_abbrev
_citation_year
_citation_journal_volume
_citation_page_first
_citation_page_last
_citation_journal_id_ASTM
primary
;
Zeitschrift fuer Naturforschung, Teil B. Anorganische Chemie, 
Organische Chemie (33,1978-41,1986)
;
 1985 40 1139 1148 ZNBAD2
_publ_author_name
;
Foerster, A.;Kreusler, H.U.;Fuchs, J.
;
_cell_length_a                     7.589(3)
_cell_length_b                     7.579(5)
_cell_length_c                     15.489(3)
_cell_angle_alpha                  90.
_cell_angle_beta                   90.
_cell_angle_gamma                  90.
_cell_volume                       890.88
_cell_formula_units_Z              4
_symmetry_space_group_name_H-M     'P n m a'
_symmetry_Int_Tables_number        62
_refine_ls_R_factor_all            .063
loop_
_symmetry_equiv_pos_site_id
_symmetry_equiv_pos_as_xyz
  1	'x+.5, y, -z+.5'
  2	'x, -y+.5, z'
  3	'-x+.5, y+.5, z+.5'
  4	'-x, -y, -z'
  5	'-x+.5, -y, z+.5'
  6	'-x, y+.5, -z'
  7	'x+.5, -y+.5, -z+.5'
  8	'x, y, z'
loop_
_atom_type_symbol
_atom_type_oxidation_number
Mo6+	6
Na1+	1
O2-	-2
Rb1+	1
loop_
_atom_site_label
_atom_site_type_symbol
_atom_site_symmetry_multiplicity
_atom_site_Wyckoff_symbol
_atom_site_fract_x
_atom_site_fract_y
_atom_site_fract_z
_atom_site_occupancy
_atom_site_attached_hydrogens
_atom_site_U_iso_or_equiv
Na1 Na1+ 4 c 0.940(2) 0.25 0.775(1) 1. 0 0.018(8) 
Rb1 Rb1+ 4 c 0.3547(7) 0.25 0.3531(3) 1. 0 0.026(2) 
Mo1 Mo6+ 4 c 0.2600(5) 0.25 -.0562(2) 1. 0 0.010(1) 
Mo2 Mo6+ 8 d 0.3910(3) 0.4996(3) 0.1020(1) 1. 0 0.010(1) 
O1 O2- 4 c 0.558(4) 0.25 -.090(2) 1. 0 0.019(6) 
O2 O2- 4 c 0.387(3) 0.25 0.071(2) 1. 0 0.007(5) 
O3 O2- 8 d 0.345(3) 0.012(3) -.036(1) 1. 0 0.017(4) 
O4 O2- 8 d 0.174(3) 0.525(3) 0.130(1) 1. 0 0.025(5) 
O5 O2- 8 d 0.493(3) 0.466(3) 0.198(1) 1. 0 0.022(5) 
O6 O2- 4 c 0.059(4) 0.25 -.009(2) 1. 0 0.023(7) 
O7 O2- 4 c 0.216(4) 0.25 -.170(2) 1. 0 0.019(6) 

#End of data_48212-ICSD


