data_8097-ICSD
#?2014 by Fachinformationszentrum Karlsruhe, and the U.S. Secretary of 
#Commerce on behalf of the United States.  All rights reserved.
_database_code_ICSD                8097
_audit_creation_date               1980/01/01
_chemical_name_systematic          'Calcium Catena-tetraoxotellurate'
_chemical_formula_structural       'Ca Te O4'
_chemical_formula_sum              'Ca1 O4 Te1'
_publ_section_title
;
Structures of calcium tellurate, Ca Te O4 and strontium tellurate, Sr 
Te O4
;
loop_
_citation_id
_citation_journal_abbrev
_citation_year
_citation_journal_volume
_citation_page_first
_citation_page_last
_citation_journal_id_ASTM
primary 'Acta Crystallographica B (24,1968-38,1982)' 1979 35 728 729 ACBCAR
_publ_author_name                  'Hottentot, D.;Loopstra, B.O.'
_cell_length_a                     5.231(1)
_cell_length_b                     12.676(2)
_cell_length_c                     4.977(1)
_cell_angle_alpha                  90.
_cell_angle_beta                   90.
_cell_angle_gamma                  90.
_cell_volume                       330.02
_cell_formula_units_Z              4
_symmetry_space_group_name_H-M     'P b c n'
_symmetry_Int_Tables_number        60
_refine_ls_R_factor_all            .074
loop_
_symmetry_equiv_pos_site_id
_symmetry_equiv_pos_as_xyz
  1	'x, -y, z+.5'
  2	'-x+.5, y+.5, z'
  3	'x+.5, y+.5, -z+.5'
  4	'-x, -y, -z'
  5	'-x, y, -z+.5'
  6	'x+.5, -y+.5, -z'
  7	'-x+.5, -y+.5, z+.5'
  8	'x, y, z'
loop_
_atom_type_symbol
_atom_type_oxidation_number
Ca2+	2
O2-	-2
Te6+	6
loop_
_atom_site_label
_atom_site_type_symbol
_atom_site_symmetry_multiplicity
_atom_site_Wyckoff_symbol
_atom_site_fract_x
_atom_site_fract_y
_atom_site_fract_z
_atom_site_occupancy
_atom_site_attached_hydrogens
_atom_site_B_iso_or_equiv
Ca1 Ca2+ 4 c 0 0.6682(8) 0.75 1. 0 0.3 
Te1 Te6+ 4 c 0.5 0.4280(3) 0.75 1. 0 0.8 
O1 O2- 8 d 0.299(6) 0.544(3) 0.570(7) 1. 0 0.1 
O2 O2- 8 d 0.276(6) 0.322(3) 0.619(5) 1. 0 0.1 

#End of data_8097-ICSD


