data_80816-ICSD
#?2014 by Fachinformationszentrum Karlsruhe, and the U.S. Secretary of 
#Commerce on behalf of the United States.  All rights reserved.
_database_code_ICSD                80816
_audit_creation_date               1997/05/13
_chemical_name_systematic          'Potassium Lead Vanadate'
_chemical_formula_structural       'K Pb (V O4)'
_chemical_formula_sum              'K1 O4 Pb1 V1'
_publ_section_title                'Alkali metal lead double vanadates'
loop_
_citation_id
_citation_journal_abbrev
_citation_year
_citation_journal_volume
_citation_journal_issue
_citation_page_first
_citation_page_last
_citation_journal_id_ASTM
primary 'Zhurnal Neorganicheskoi Khimii' 1989 34- 3004 3007 ZNOKAQ
2 'Russian Journal of Inorganic Chemistry' 1989 34 12 1716 1718 RJICAQ
_publ_author_name
;
Sirotinkin, S.P.;Oboznenko, Yu.V.;Nevskii, N.N.
;
_cell_length_a                     7.663(3)
_cell_length_b                     5.795(1)
_cell_length_c                     10.110(3)
_cell_angle_alpha                  90.
_cell_angle_beta                   90.
_cell_angle_gamma                  90.
_cell_volume                       448.96
_cell_formula_units_Z              4
_symmetry_space_group_name_H-M     'P n m a'
_symmetry_Int_Tables_number        62
_refine_ls_R_factor_all            .066
loop_
_symmetry_equiv_pos_site_id
_symmetry_equiv_pos_as_xyz
  1	'x+.5, y, -z+.5'
  2	'x, -y+.5, z'
  3	'-x+.5, y+.5, z+.5'
  4	'-x, -y, -z'
  5	'-x+.5, -y, z+.5'
  6	'-x, y+.5, -z'
  7	'x+.5, -y+.5, -z+.5'
  8	'x, y, z'
loop_
_atom_type_symbol
_atom_type_oxidation_number
K1+	1
O2-	-2
Pb2+	2
V5+	5
loop_
_atom_site_label
_atom_site_type_symbol
_atom_site_symmetry_multiplicity
_atom_site_Wyckoff_symbol
_atom_site_fract_x
_atom_site_fract_y
_atom_site_fract_z
_atom_site_occupancy
_atom_site_attached_hydrogens
_atom_site_B_iso_or_equiv
Pb1 Pb2+ 4 c 0.0134(1) 0.25 0.7134(2) 1. 0 1.57(1) 
K1 K1+ 4 c 0.3196(8) 0.75 0.5887(7) 1. 0 1.58(9) 
V1 V5+ 4 c 0.2427(6) 0.25 0.4204(3) 1. 0 1.18(6) 
O1 O2- 4 c 0.972(3) 0.75 0.607(3) 1. 0 6.(1) 
O2 O2- 4 c 0.285(3) 0.25 0.588(2) 1. 0 2.0(4) 
O3 O2- 8 d 0.333(3) 0.498(4) 0.351(2) 1. 0 3.0(3) 

#End of data_80816-ICSD


