data_1236-ICSD
#?2014 by Fachinformationszentrum Karlsruhe, and the U.S. Secretary of 
#Commerce on behalf of the United States.  All rights reserved.
_database_code_ICSD                1236
_audit_creation_date               1980/01/01
_audit_update_record               2007/08/01
_chemical_name_systematic          'Aluminium Holmium Oxide'
_chemical_formula_structural       'Al Ho O3'
_chemical_formula_sum              'Al1 Ho1 O3'
_publ_section_title
;
Etude par diffraction neutronique a 0.04 K de la perovskite 
d'aluminium et d'holmium
;
loop_
_citation_id
_citation_journal_abbrev
_citation_year
_citation_journal_volume
_citation_page_first
_citation_page_last
_citation_journal_id_ASTM
primary 'Acta Crystallographica A (24,1968-38,1982)' 1977 33 975 978 ACACBN
2 'Powder Diffraction' 1988 3 246 254 PODIE2
_publ_author_name                  'Hammann, J.;Ocio, M.'
_cell_length_a                     5.182
_cell_length_b                     5.324
_cell_length_c                     7.37
_cell_angle_alpha                  90.
_cell_angle_beta                   90.
_cell_angle_gamma                  90.
_cell_volume                       203.33
_cell_formula_units_Z              4
_symmetry_space_group_name_H-M     'P b n m'
_symmetry_Int_Tables_number        62
_refine_ls_R_factor_all            .047
loop_
_symmetry_equiv_pos_site_id
_symmetry_equiv_pos_as_xyz
  1	'-x+.5, y+.5, z'
  2	'x, y, -z+.5'
  3	'x+.5, -y+.5, z+.5'
  4	'-x, -y, -z'
  5	'x+.5, -y+.5, -z'
  6	'-x, -y, z+.5'
  7	'-x+.5, y+.5, -z+.5'
  8	'x, y, z'
loop_
_atom_type_symbol
_atom_type_oxidation_number
Al3+	3
Ho3+	3
O2-	-2
loop_
_atom_site_label
_atom_site_type_symbol
_atom_site_symmetry_multiplicity
_atom_site_Wyckoff_symbol
_atom_site_fract_x
_atom_site_fract_y
_atom_site_fract_z
_atom_site_occupancy
_atom_site_attached_hydrogens
Ho1 Ho3+ 4 c -.0007(7) 0.059(4) 0.25 1. 0 
Al1 Al3+ 4 b 0.5 0 0 1. 0 
O1 O2- 4 c 0.094(9) 0.493(6) 0.25 1. 0 
O2 O2- 8 d -.297(5) 0.290(5) 0.038(4) 1. 0 

#End of data_1236-ICSD


