data_10306-ICSD
#?2014 by Fachinformationszentrum Karlsruhe, and the U.S. Secretary of 
#Commerce on behalf of the United States.  All rights reserved.
_database_code_ICSD                10306
_audit_creation_date               1980/01/01
_audit_update_record               2012/02/01
_chemical_name_systematic          'Potassium Hydrogenbis(iodate(V))'
_chemical_formula_structural       'K ((I O3) H (I O3))'
_chemical_formula_sum              'H1 I2 K1 O6'
_publ_section_title
;
The crystal structure of potassium hydrogeniodate(V), K I O3 H I O3
;
loop_
_citation_id
_citation_journal_abbrev
_citation_year
_citation_journal_volume
_citation_page_first
_citation_page_last
_citation_journal_id_ASTM
primary 'Canadian Journal of Chemistry' 1972 50 1134 1143 CJCHAG
2 'Phase Transition' 1992 38 127 220 PHTRDP
_publ_author_name                  'Kemper, G.;Vos, A.;Rietveld, H.M.'
_cell_length_a                     7.025(2)
_cell_length_b                     8.206(2)
_cell_length_c                     21.839(5)
_cell_angle_alpha                  90.
_cell_angle_beta                   97.98(2)
_cell_angle_gamma                  90.
_cell_volume                       1246.77
_cell_formula_units_Z              8
_symmetry_space_group_name_H-M     'P 1 21/c 1'
_symmetry_Int_Tables_number        14
_refine_ls_R_factor_all            .048
loop_
_symmetry_equiv_pos_site_id
_symmetry_equiv_pos_as_xyz
  1	'x, -y+.5, z+.5'
  2	'-x, -y, -z'
  3	'-x, y+.5, -z+.5'
  4	'x, y, z'
loop_
_atom_type_symbol
_atom_type_oxidation_number
H1+	1
I5+	5
K1+	1
O2-	-2
loop_
_atom_site_label
_atom_site_type_symbol
_atom_site_symmetry_multiplicity
_atom_site_Wyckoff_symbol
_atom_site_fract_x
_atom_site_fract_y
_atom_site_fract_z
_atom_site_occupancy
_atom_site_attached_hydrogens
I1 I5+ 4 e 0.16889(3) 0.10453(3) 0.65738(1) 1. 0 
I2 I5+ 4 e 0.23147(3) 0.38738(3) 0.49976(1) 1. 0 
I3 I5+ 4 e 0.66774(3) 0.36784(3) 0.65626(1) 1. 0 
I4 I5+ 4 e 0.65247(3) 0.86048(3) 0.63591(1) 1. 0 
K1 K1+ 4 e 0.24947(13) 0.87591(13) 0.50359(5) 1. 0 
K2 K1+ 4 e 0.14460(14) 0.61345(12) 0.67125(5) 1. 0 
O1 O2- 4 e 0.0535(5) 0.2717(4) 0.6927(2) 1. 0 
O2 O2- 4 e 0.0155(5) 0.9355(4) 0.6699(2) 1. 0 
O3 O2- 4 e 0.0975(5) 0.1415(5) 0.5763(2) 1. 0 
O4 O2- 4 e -.0037(5) 0.3582(5) 0.4567(2) 1. 0 
O5 O2- 4 e 0.3206(5) 0.5460(4) 0.4534(2) 1. 0 
O6 O2- 4 e 0.3525(5) 0.2076(4) 0.4744(2) 1. 0 
O7 O2- 4 e 0.4144(4) 0.3927(4) 0.6357(2) 1. 0 
O8 O2- 4 e 0.6466(5) 0.2739(5) 0.7345(2) 1. 0 
O9 O2- 4 e 0.7436(5) 0.5655(4) 0.6852(2) 1. 0 
O10 O2- 4 e 0.4024(5) 0.8100(5) 0.6270(2) 1. 0 
O11 O2- 4 e 0.6652(5) 0.9005(4) 0.7239(2) 1. 0 
O12 O2- 4 e 0.6237(5) 0.0681(4) 0.6097(2) 1. 0 
H1 H1+ 4 e 0.552(4) 0.320(4) 0.754(1) 1. 0 
H2 H1+ 4 e 0.773(4) 0.842(4) 0.747(1) 1. 0 

loop_
_atom_site_aniso_label
_atom_site_aniso_type_symbol
_atom_site_aniso_U_11
_atom_site_aniso_U_22
_atom_site_aniso_U_33
_atom_site_aniso_U_12
_atom_site_aniso_U_13
_atom_site_aniso_U_23
I1 I5+ 0.01194(8) 0.01535(9) 0.01627(10) -0.00057 0.00114 -0.00107
I2 I5+ 0.01541(9) 0.01397(9) 0.01070(8) 0.00045 0.00189 0.00026
I3 I5+ 0.01307(8) 0.01111(8) 0.01592(9) -0.000045 0.00144 -0.00034
I4 I5+ 0.01247(8) 0.01153(8) 0.01523(9) 0.00007 0.00315 0.00162
K1 K1+ 0.01886(38) 0.02223(41) 0.01729(37) -0.00096 0.0022 0.00218
K2 K1+ 0.01891(38) 0.01708(37) 0.02728(46) -0.00166 0.00166 0.00026
O1 O2- 0.02135(148) 0.01992(145) 0.02562(167) 0.0009 0.00409 -0.00637
O2 O2- 0.01467(131) 0.02130(151) 0.03589(205) -0.00325 0.00278 0.00518
O3 O2- 0.02284(150) 0.03400(191) 0.01514(134) -0.00289 -0.00078 -0.00037
O4 O2- 0.01657(132) 0.03380(189) 0.01947(147) -0.00104 -0.00346 -0.00071
O5 O2- 0.02873(167) 0.02062(147) 0.01987(152) -0.00501 0.00433 0.00791
O6 O2- 0.02381(150) 0.01794(137) 0.01934(144) 0.00502 0.00454 -0.00129
O7 O2- 0.01089(111) 0.02555(153) 0.02347(151) 0.00196 -0.00185 -0.000025
O8 O2- 0.02598(167) 0.03129(183) 0.01893(152) 0.01033 0.006 0.00725
O9 O2- 0.02810(168) 0.01545(135) 0.02787(180) -0.00328 -0.00325 -0.00602
O10 O2- 0.01212(124) 0.03601(192) 0.02379(165) -0.00361 0.00282 0.00169
O11 O2- 0.02066(137) 0.02295(146) 0.01409(123) -0.00008 0.00308 0.00043
O12 O2- 0.03208(172) 0.01428(126) 0.01980(148) 0.0043 0.0048 0.00422
#End of data_10306-ICSD


