data_40169-ICSD
#?2014 by Fachinformationszentrum Karlsruhe, and the U.S. Secretary of 
#Commerce on behalf of the United States.  All rights reserved.
_database_code_ICSD                40169
_audit_creation_date               1999/11/30
_chemical_name_systematic          'Cesium Tetraamido-aluminate'
_chemical_formula_structural       'Cs (Al (N H2)4)'
_chemical_formula_sum              'H8 Al1 Cs1 N4'
_publ_section_title
;
Darstellung und Kristallstruktur von Tetraamidoaluminaten des 
Rubidiums und Caesiums, Rb (Al (N H2)4) und Cs (Al (N H2)4)
;
loop_
_citation_id
_citation_journal_abbrev
_citation_year
_citation_journal_volume
_citation_page_first
_citation_page_last
_citation_journal_id_ASTM
primary 'Journal of the Less-Common Metals' 1990 159 315 325 JCOMAH
_publ_author_name                  'Jacobs, H.;Jaenichen, K.'
_cell_length_a                     7.563(3)
_cell_length_b                     7.563(3)
_cell_length_c                     5.354(1)
_cell_angle_alpha                  90.
_cell_angle_beta                   90.
_cell_angle_gamma                  90.
_cell_volume                       306.24
_cell_formula_units_Z              2
_symmetry_space_group_name_H-M     'P 4/n Z'
_symmetry_Int_Tables_number        85
_refine_ls_R_factor_all            .046
loop_
_symmetry_equiv_pos_site_id
_symmetry_equiv_pos_as_xyz
  1	'-y, x+.5, -z'
  2	'y+.5, -x, -z'
  3	'x+.5, y+.5, -z'
  4	'-x, -y, -z'
  5	'y, -x+.5, z'
  6	'-y+.5, x, z'
  7	'-x+.5, -y+.5, z'
  8	'x, y, z'
loop_
_atom_type_symbol
_atom_type_oxidation_number
Al3+	3
Cs1+	1
H1+	1
N3-	-3
loop_
_atom_site_label
_atom_site_type_symbol
_atom_site_symmetry_multiplicity
_atom_site_Wyckoff_symbol
_atom_site_fract_x
_atom_site_fract_y
_atom_site_fract_z
_atom_site_occupancy
_atom_site_attached_hydrogens
_atom_site_B_iso_or_equiv
Cs1 Cs1+ 2 c 0.25 0.25 0.7230(3) 1. 0 0 
Al1 Al3+ 2 a 0.25 0.75 0 1. 0 0 
N1 N3- 8 g 0.665(1) 0.418(1) 0.782(2) 1. 0 0 
H1 H1+ 8 g 0.69(1) 0.43(1) 0.57(2) 1. 0 3.(2) 
H2 H1+ 8 g 0.63(2) 0.50(2) 0.87(2) 1. 0 7.(4) 

loop_
_atom_site_aniso_label
_atom_site_aniso_type_symbol
_atom_site_aniso_U_11
_atom_site_aniso_U_22
_atom_site_aniso_U_33
_atom_site_aniso_U_12
_atom_site_aniso_U_13
_atom_site_aniso_U_23
Cs1 Cs1+ 0.0271(5) 0.0271(5) 0.0662(8) 0 0 0
Al1 Al3+ 0.018(2) 0.018(2) 0.034(3) 0 0 0
N1 N3- 0.041(4) 0.030(3) 0.047(5) 0.009(3) -.005(4) 0.005(4)
#End of data_40169-ICSD


