data_84004-ICSD
#?2014 by Fachinformationszentrum Karlsruhe, and the U.S. Secretary of 
#Commerce on behalf of the United States.  All rights reserved.
_database_code_ICSD                84004
_audit_creation_date               1999/01/19
_chemical_name_systematic          'Sodium Catena-diselenoaurate'
_chemical_formula_structural       'Na (Au Se2)'
_chemical_formula_sum              'Au1 Na1 Se2'
_publ_section_title
;
On the dissolution of gold in K2 Qx and Na2 Qx fluxes (Q = S, Se). 
Formation of K Au S5, K Au Se5, Cs Au Se3, K Au Se2 and Na Au Se2: 
low-dimensional Au(+) and Au(3+) compounds with poly- and mono-
chalcogenide ligands
;
loop_
_citation_id
_citation_journal_abbrev
_citation_year
_citation_journal_volume
_citation_page_first
_citation_page_last
_citation_journal_id_ASTM
primary 'Journal of Alloys and Compounds' 1997 257 137 145 JALCEU
_publ_author_name                  'Park, Y.;Kanatzidis, M.G.'
_cell_length_a                     6.991(8)
_cell_length_b                     8.374(9)
_cell_length_c                     6.724(8)
_cell_angle_alpha                  90.
_cell_angle_beta                   105.23(9)
_cell_angle_gamma                  90.
_cell_volume                       379.82
_cell_formula_units_Z              4
_symmetry_space_group_name_H-M     'P 1 21/c 1'
_symmetry_Int_Tables_number        14
_refine_ls_R_factor_all            .068
loop_
_symmetry_equiv_pos_site_id
_symmetry_equiv_pos_as_xyz
  1	'x, -y+.5, z+.5'
  2	'-x, -y, -z'
  3	'-x, y+.5, -z+.5'
  4	'x, y, z'
loop_
_atom_type_symbol
_atom_type_oxidation_number
Au3+	3
Na1+	1
Se2-	-2
loop_
_atom_site_label
_atom_site_type_symbol
_atom_site_symmetry_multiplicity
_atom_site_Wyckoff_symbol
_atom_site_fract_x
_atom_site_fract_y
_atom_site_fract_z
_atom_site_occupancy
_atom_site_attached_hydrogens
_atom_site_B_iso_or_equiv
Au1 Au3+ 4 e 0.2176(2) 0.6311(1) 0.0087(2) 1. 0 0.40(2) 
Se1 Se2- 4 e -.0205(5) 0.5764(4) 0.2122(5) 1. 0 0.86(6) 
Se2 Se2- 4 e 0.4157(5) 0.8314(4) 0.2506(5) 1. 0 0.72(6) 
Na1 Na1+ 4 e 0.275(2) 0.366(2) 0.488(2) 1. 0 1.9(3) 

#End of data_84004-ICSD


