data_280650-ICSD
#?2014 by Fachinformationszentrum Karlsruhe, and the U.S. Secretary of 
#Commerce on behalf of the United States.  All rights reserved.
_database_code_ICSD                280650
_audit_creation_date               2002/04/01
_chemical_name_systematic
;
Potassium Phyllo-tetrathioeuropogermanate
;
_chemical_formula_structural       'K (Eu Ge S4)'
_chemical_formula_sum              'Eu1 Ge1 K1 S4'
_publ_section_title
;
Synthesis and characterization of four new europium group XIV 
chalcogenides: K2 Eu T Se5 and K Eu T S4 (T = Si, Ge)
;
loop_
_citation_id
_citation_journal_abbrev
_citation_year
_citation_journal_volume
_citation_page_first
_citation_page_last
_citation_journal_id_ASTM
primary 'Inorganic Chemistry' 2001 40 2409 2414 INOCAJ
_publ_author_name                  'Evenson, C.R.IV.;Dorhout, P.K.'
_cell_length_a                     6.510(2)
_cell_length_b                     6.649(2)
_cell_length_c                     8.603(3)
_cell_angle_alpha                  90.
_cell_angle_beta                   107.80(2)
_cell_angle_gamma                  90.
_cell_volume                       354.55
_cell_formula_units_Z              2
_symmetry_space_group_name_H-M     'P 1 21 1'
_symmetry_Int_Tables_number        4
_refine_ls_R_factor_all            .0356
loop_
_symmetry_equiv_pos_site_id
_symmetry_equiv_pos_as_xyz
  1	'-x, y+.5, -z'
  2	'x, y, z'
loop_
_atom_type_symbol
_atom_type_oxidation_number
Eu3+	3
Ge4+	4
K1+	1
S2-	-2
loop_
_atom_site_label
_atom_site_type_symbol
_atom_site_symmetry_multiplicity
_atom_site_Wyckoff_symbol
_atom_site_fract_x
_atom_site_fract_y
_atom_site_fract_z
_atom_site_occupancy
_atom_site_attached_hydrogens
Eu1 Eu3+ 2 a 0.26980(5) 0.96425(6) 0.94753(4) 1. 0 
Ge1 Ge4+ 2 a 0.72077(13) 0.99863(14) 0.82084(10) 1. 0 
K1 K1+ 2 a 0.2329(3) 0.9821(5) 0.4361(2) 1. 0 
S1 S2- 2 a 0.4741(4) 1.2375(4) 0.7753(3) 1. 0 
S2 S2- 2 a 0.4843(3) 1.2280(4) 1.2084(3) 1. 0 
S3 S2- 2 a -.0792(3) 1.0008(4) 0.6589(3) 1. 0 
S4 S2- 2 a 0.0729(3) 0.5567(4) 0.9270(3) 1. 0 

loop_
_atom_site_aniso_label
_atom_site_aniso_type_symbol
_atom_site_aniso_U_11
_atom_site_aniso_U_22
_atom_site_aniso_U_33
_atom_site_aniso_U_12
_atom_site_aniso_U_13
_atom_site_aniso_U_23
Eu1 Eu3+ 0.0056(2) 0.0046(2) 0.0069(2) 0.0000(2) 0.00267(12) 0.0002(2)
Ge1 Ge4+ 0.0049(4) 0.0038(5) 0.0068(4) -.0001(3) 0.0026(3) 0.0001(3)
K1 K1+ 0.0173(8) 0.0191(14) 0.0100(8) -.0023(10) 0.0049(6) -.0022(10)
S1 S2- 0.0070(9) 0.0038(11) 0.0095(12) 0.0014(9) 0.0020(7) 0.0000(8)
S2 S2- 0.0075(9) 0.0042(10) 0.0076(12) 0.0005(9) 0.0026(7) -.0001(8)
S3 S2- 0.0087(9) 0.0125(13) 0.0089(9) 0.0015(8) 0.0045(7) 0.0025(8)
S4 S2- 0.0062(9) 0.0093(11) 0.0064(10) -.0014(8) 0.0020(7) 0.0011(8)
#End of data_280650-ICSD


