data_418980-ICSD
#?2014 by Fachinformationszentrum Karlsruhe, and the U.S. Secretary of 
#Commerce on behalf of the United States.  All rights reserved.
_database_code_ICSD                418980
_audit_creation_date               2011/02/01
_audit_update_record               2012/02/01
_chemical_name_systematic
;
Lithium Holmium Tetrakis(phosphate(V))
;
_chemical_formula_structural       'Li Ho (P O3)4'
_chemical_formula_sum              'Ho1 Li1 O12 P4'
_publ_section_title
;
A series of lithium rare earth polyphosphates [Li Ln (P O3)4] (Ln = 
Tb, Ho, Yb) and their structural, optical, and electronic properties
;
loop_
_citation_id
_citation_journal_abbrev
_citation_year
_citation_journal_volume
_citation_journal_issue
_citation_page_first
_citation_page_last
_citation_journal_id_ASTM
primary 'Journal of Molecular Structure' 2008 891 1-3 25 29 JMOSB4
_publ_author_name
;
Fang Ming;Cheng Wen Dan;Xie Zhi;Zhang Hao;Zhao Dan;Zhang Wei 
Long;Yang Song Lin
;
_cell_length_a                     16.239(3)
_cell_length_b                     7.0220(11)
_cell_length_c                     9.553(2)
_cell_angle_alpha                  90.00
_cell_angle_beta                   125.989(19)
_cell_angle_gamma                  90.00
_cell_volume                       881.41
_cell_formula_units_Z              4
_symmetry_space_group_name_H-M     'C 1 2/c 1'
_symmetry_Int_Tables_number        15
_refine_ls_R_factor_all            .0222
loop_
_symmetry_equiv_pos_site_id
_symmetry_equiv_pos_as_xyz
  1	'x, -y, z+.5'
  2	'-x, -y, -z'
  3	'-x, y, -z+.5'
  4	'x, y, z'
  5	'x+.5, -y+.5, z+.5'
  6	'-x+.5, -y+.5, -z'
  7	'-x+.5, y+.5, -z+.5'
  8	'x+.5, y+.5, z'
loop_
_atom_type_symbol
_atom_type_oxidation_number
Ho3+	3
Li1+	1
O2-	-2
P5+	5
loop_
_atom_site_label
_atom_site_type_symbol
_atom_site_symmetry_multiplicity
_atom_site_Wyckoff_symbol
_atom_site_fract_x
_atom_site_fract_y
_atom_site_fract_z
_atom_site_occupancy
_atom_site_attached_hydrogens
_atom_site_U_iso_or_equiv
Ho1 Ho3+ 4 e 0.0000 0.70324(3) 0.2500 1 0 0.00459(14) 
P1 P5+ 8 f 0.14659(7) 0.35003(14) 0.19595(11) 1 0 0.0047(2) 
P2 P5+ 8 f 0.36241(7) 0.44833(13) 0.38469(11) 1 0 0.0046(2) 
O1 O2- 8 f 0.0708(2) 0.4160(4) 0.2250(3) 1 0 0.0084(5) 
O2 O2- 8 f 0.1282(2) 0.3851(4) 0.0263(4) 1 0 0.0096(5) 
O3 O2- 8 f 0.4348(2) 0.4978(4) 0.5728(4) 1 0 0.0077(5) 
O4 O2- 8 f 0.25517(19) 0.4223(4) 0.3527(3) 1 0 0.0080(5) 
O5 O2- 8 f 0.1568(2) 0.1258(4) 0.2339(3) 1 0 0.0089(5) 
O6 O2- 8 f 0.3867(2) 0.2840(4) 0.3167(4) 1 0 0.0094(6) 
Li1 Li1+ 4 e 0.0000 0.2067(13) 0.2500 1 0 0.014(2) 

#End of data_418980-ICSD


