data_91756-ICSD
#?2014 by Fachinformationszentrum Karlsruhe, and the U.S. Secretary of 
#Commerce on behalf of the United States.  All rights reserved.
_database_code_ICSD                91756
_audit_creation_date               2002/10/01
_chemical_name_systematic
;
Potassium Vanadium Heptathiodiphosphate(V)
;
_chemical_formula_structural       'K V (P2 S7)'
_chemical_formula_sum              'K1 P2 S7 V1'
_publ_section_title
;
Synthesis and crystal structure determination of three layered-
typethiophosphate compounds K M P2 S7 (M = Cr, V, In)
;
loop_
_citation_id
_citation_journal_abbrev
_citation_year
_citation_journal_volume
_citation_page_first
_citation_page_last
_citation_journal_id_ASTM
primary 'Materials Research Bulletin' 2000 35 1401 1410 MRBUAC
_publ_author_name
;
Kopnin, E.;Coste, S.;Jobic, S.;Evain, M.;Brec, R.
;
_cell_length_a                     8.5553(6)
_cell_length_b                     9.5765(5)
_cell_length_c                     6.3323(4)
_cell_angle_alpha                  90.
_cell_angle_beta                   98.630(8)
_cell_angle_gamma                  90.
_cell_volume                       512.93
_cell_formula_units_Z              2
_symmetry_space_group_name_H-M     'C 1 2 1'
_symmetry_Int_Tables_number        5
_refine_ls_R_factor_all            .031
loop_
_symmetry_equiv_pos_site_id
_symmetry_equiv_pos_as_xyz
  1	'-x, y, -z'
  2	'x, y, z'
  3	'-x+.5, y+.5, -z'
  4	'x+.5, y+.5, z'
loop_
_atom_type_symbol
_atom_type_oxidation_number
K1+	1
P5+	5
S2-	-2
V3+	3
loop_
_atom_site_label
_atom_site_type_symbol
_atom_site_symmetry_multiplicity
_atom_site_Wyckoff_symbol
_atom_site_fract_x
_atom_site_fract_y
_atom_site_fract_z
_atom_site_occupancy
_atom_site_attached_hydrogens
K1 K1+ 2 b 0 0.8930(5) 0.5 1. 0 
V1 V3+ 2 a 0.5 0 0 1. 0 
P1 P5+ 4 c 0.30092(3) 0.6474(1) 0.9164(1) 1. 0 
S1 S2- 4 c 0.15841(9) 0.5266(1) 0.7105(1) 1. 0 
S2 S2- 4 c 0.1924(1) 0.6665(1) 0.1767(1) 1. 0 
S3 S2- 4 c 0.3618(1) 0.8192(1) 0.7666(1) 1. 0 
S4 S2- 2 a 0.5 0.5140(2) 0 1. 0 

loop_
_atom_site_aniso_label
_atom_site_aniso_type_symbol
_atom_site_aniso_U_11
_atom_site_aniso_U_22
_atom_site_aniso_U_33
_atom_site_aniso_U_12
_atom_site_aniso_U_13
_atom_site_aniso_U_23
K1 K1+ 0.0401(8) 0.101(2) 0.0330(8) 0 0.0028(7) 0
V1 V3+ 0.0102(3) 0.0109(4) 0.0155(4) 0 0.0034(3) 0
P1 P5+ 0.0087(3) 0.0115(4) 0.0151(4) -.0025(4) 0.0015(3) 0.0004(3)
S1 S2- 0.0135(3) 0.0221(5) 0.0156(4) -.0068(4) 0.0024(3) -.0052(4)
S2 S2- 0.0203(4) 0.0192(5) 0.0201(4) -.0063(4) 0.0092(3) -.0071(3)
S3 S2- 0.0251(4) 0.0162(4) 0.0187(4) -.0094(4) -.0013(3) 0.0041(3)
S4 S2- 0.0116(4) 0.0138(7) 0.0327(6) 0 -.0014(4) 0
#End of data_91756-ICSD


