data_1814-ICSD
#?2014 by Fachinformationszentrum Karlsruhe, and the U.S. Secretary of 
#Commerce on behalf of the United States.  All rights reserved.
_database_code_ICSD                1814
_audit_creation_date               1980/01/01
_audit_update_record               2010/02/01
_chemical_name_systematic          'Potassium Hydrogensulfate(VI)'
_chemical_formula_structural       'K (H S O4)'
_chemical_formula_sum              'H1 K1 O4 S1'
_chemical_name_mineral             Mercallite
_publ_section_title
;
The structure of potassium hydrogensulfate
;
loop_
_citation_id
_citation_journal_abbrev
_citation_year
_citation_journal_volume
_citation_page_first
_citation_page_last
_citation_journal_id_ASTM
primary 'Acta Crystallographica B (24,1968-38,1982)' 1975 31 302 304 ACBCAR
2 'Golden Book of Phase Transitions, Wroclaw' 2002 1 1 123 GBOPT5
_publ_author_name
;
Cotton, F.A.;Frenz, B.A.;Hunter, D.L.
;
_cell_length_a                     8.421(2)
_cell_length_b                     9.800(3)
_cell_length_c                     18.9570(50)
_cell_angle_alpha                  90.
_cell_angle_beta                   90.
_cell_angle_gamma                  90.
_cell_volume                       1564.44
_cell_formula_units_Z              16
_symmetry_space_group_name_H-M     'P b c a'
_symmetry_Int_Tables_number        61
_refine_ls_R_factor_all            .04
loop_
_symmetry_equiv_pos_site_id
_symmetry_equiv_pos_as_xyz
  1	'x+.5, y, -z+.5'
  2	'x, -y+.5, z+.5'
  3	'-x+.5, y+.5, z'
  4	'-x, -y, -z'
  5	'-x+.5, -y, z+.5'
  6	'-x, y+.5, -z+.5'
  7	'x+.5, -y+.5, -z'
  8	'x, y, z'
loop_
_atom_type_symbol
_atom_type_oxidation_number
H1+	1
K1+	1
O2-	-2
S6+	6
loop_
_atom_site_label
_atom_site_type_symbol
_atom_site_symmetry_multiplicity
_atom_site_Wyckoff_symbol
_atom_site_fract_x
_atom_site_fract_y
_atom_site_fract_z
_atom_site_occupancy
_atom_site_attached_hydrogens
_atom_site_B_iso_or_equiv
K1 K1+ 8 c 0.3824(1) 0.1806(1) 0.12496(5) 1. 0 0 
K2 K1+ 8 c -.1227(1) 0.3197(1) 0.11841(5) 1. 0 0 
S1 S6+ 8 c 0.2543(1) 0.4227(1) 0.00266(5) 1. 0 0 
S2 S6+ 8 c -.0192(1) 0.0167(1) 0.20600(6) 1. 0 0 
O1 O2- 8 c 0.2901(4) 0.5793(3) 0.0016(2) 1. 0 0 
O2 O2- 8 c 0.4079(4) 0.3521(3) 0.0032(2) 1. 0 0 
O3 O2- 8 c 0.1669(4) 0.3967(3) -.0613(2) 1. 0 0 
O4 O2- 8 c 0.1657(4) 0.3987(4) 0.0665(2) 1. 0 0 
O5 O2- 8 c 0.0607(4) -.0012(4) 0.2741(2) 1. 0 0 
O6 O2- 8 c -.1625(4) 0.1128(4) 0.2223(2) 1. 0 0 
O7 O2- 8 c -.0812(5) -.1797(4) 0.1784(2) 1. 0 0 
O8 O2- 8 c 0.0767(4) 0.0946(4) 0.1579(2) 1. 0 0 
H1 H1+ 8 c 0.373(7) 0.601(6) 0.504(2) 1. 0 1.60(12) 
H2 H1+ 8 c -.272(8) 0.065(7) 0.272(3) 1. 0 4.00(18) 

#End of data_1814-ICSD


