data_150433-ICSD
#?2014 by Fachinformationszentrum Karlsruhe, and the U.S. Secretary of 
#Commerce on behalf of the United States.  All rights reserved.
_database_code_ICSD                150433
_audit_creation_date               2006/04/01
_audit_update_record               2013/02/01
_chemical_name_systematic          'Tricalcium Cobalt Diniobate'
_chemical_formula_structural       'Ca3 Co (Nb2 O9)'
_chemical_formula_sum              'Ca3 Co1 Nb2 O9'
_publ_section_title
;
A structure, conductivity and dielectric properties investigation of 
A3 Co Nb2 O9 (A = Ca(2+), Sr(2+), Ba(2+)) triple perovskites
;
loop_
_citation_id
_citation_journal_abbrev
_citation_year
_citation_journal_volume
_citation_page_first
_citation_page_last
_citation_journal_id_ASTM
primary 'Journal of Solid State Chemistry' 2004 177 4428 4442 JSSCBI
_publ_author_name
;
Ting, V.;Liu, Y.;Noren, L.;Withers, R.L.;Goossens, D.J.;James, 
M.;Ferraris, C.
;
_cell_length_a                     9.596(2)
_cell_length_b                     5.4619(5)
_cell_length_c                     16.829(2)
_cell_angle_alpha                  90.
_cell_angle_beta                   125.70(1)
_cell_angle_gamma                  90.
_cell_volume                       716.3
_cell_formula_units_Z              4
_symmetry_space_group_name_H-M     'P 1 21/c 1'
_symmetry_Int_Tables_number        14
_refine_ls_R_factor_all            .0223
loop_
_symmetry_equiv_pos_site_id
_symmetry_equiv_pos_as_xyz
  1	'x, -y+.5, z+.5'
  2	'-x, -y, -z'
  3	'-x, y+.5, -z+.5'
  4	'x, y, z'
loop_
_atom_type_symbol
_atom_type_oxidation_number
Ca2+	2
Co2+	2
Nb5+	5
O2-	-2
loop_
_atom_site_label
_atom_site_type_symbol
_atom_site_symmetry_multiplicity
_atom_site_Wyckoff_symbol
_atom_site_fract_x
_atom_site_fract_y
_atom_site_fract_z
_atom_site_occupancy
_atom_site_attached_hydrogens
_atom_site_B_iso_or_equiv
Co1 Co2+ 2 a 0 0 0 1. 0 0.44(10) 
Co2 Co2+ 2 d 0.5 0.5 0 1. 0 0.44(10) 
Nb1 Nb5+ 4 e 0.5046(9) 0.5 0.3377(9) 1. 0 0.44(10) 
Nb2 Nb5+ 4 e 0.0046(9) 0 0.3377(9) 1. 0 0.44(10) 
Ca1 Ca2+ 4 e 0.258(2) 0.480(4) 0.068(9) 1. 0 0.64(12) 
Ca2 Ca2+ 4 e 0.750(2) -0.015(4) 0.098(9) 1. 0 0.64(12) 
Ca3 Ca2+ 4 e 0.245(2) 0.005(4) 0.2300(9) 1. 0 0.64(12) 
O1 O2- 4 e 0.9571(17) 0.7051(31) 0.2506(9) 1. 0 0.53(8) 
O2 O2- 4 e 0.5408(18) 0.7939(30) 0.2783(9) 1. 0 0.53(8) 
O3 O2- 4 e 0.2500(21) 0.5930(23) 0.2564(7) 1. 0 0.53(8) 
O4 O2- 4 e 0.9521(17) 0.6934(29) 0.9125(9) 1. 0 0.53(8) 
O5 O2- 4 e 0.0387(17) 0.1956(29) 0.9065(9) 1. 0 0.53(8) 
O6 O2- 4 e 0.4450(18) 0.2800(28) 0.8802(9) 1. 0 0.53(8) 
O7 O2- 4 e 0.5512(7) 0.7997(29) 0.9453(9) 1. 0 0.53(8) 
O8 O2- 4 e 0.7425(20) 0.0930(23) 0.9072(7) 1. 0 0.53(8) 
O9 O2- 4 e 0.2425(20) 0.5930(23) 0.9272(7) 1. 0 0.53(8) 

#End of data_150433-ICSD


