data_7748-ICSD
#?2014 by Fachinformationszentrum Karlsruhe, and the U.S. Secretary of 
#Commerce on behalf of the United States.  All rights reserved.
_database_code_ICSD                7748
_audit_creation_date               2013/08/01
_audit_update_record               2014/08/01
_chemical_name_systematic
;
Calcium Hexaborate Dihydroxide Trihydrate
;
_chemical_formula_structural       'Ca (B6 O9 (O H)2) (H2 O)3'
_chemical_formula_sum              'H8 B6 Ca1 O14'
_chemical_name_mineral             Nobleite
_publ_section_title
;
Crystal structure of nobleite, Ca [B6 O9 (OH)2] * 3 H2O, from 
Jarandol (Serbia)
;
loop_
_citation_id
_citation_journal_abbrev
_citation_year
_citation_journal_volume
_citation_page_first
_citation_page_last
_citation_journal_id_ASTM
primary 'European Journal of Mineralogy' 2004 16 825 833 EJMIER
_publ_author_name
;
Karanovic, Lj.;Rosic, A.;Poleti, D.
;
_cell_length_a                     14.580(1)
_cell_length_b                     8.0240(7)
_cell_length_c                     9.8486(8)
_cell_angle_alpha                  90
_cell_angle_beta                   111.801(2)
_cell_angle_gamma                  90
_cell_volume                       1069.78
_cell_formula_units_Z              4
_symmetry_space_group_name_H-M     'P 1 21/a 1'
_symmetry_Int_Tables_number        14
_refine_ls_R_factor_all            .0324
loop_
_symmetry_equiv_pos_site_id
_symmetry_equiv_pos_as_xyz
  1	'x+.5, -y+.5, z'
  2	'-x, -y, -z'
  3	'-x+.5, y+.5, -z'
  4	'x, y, z'
loop_
_atom_type_symbol
_atom_type_oxidation_number
B3+	3
Ca2+	2
H1+	1
O2-	-2
loop_
_atom_site_label
_atom_site_type_symbol
_atom_site_symmetry_multiplicity
_atom_site_Wyckoff_symbol
_atom_site_fract_x
_atom_site_fract_y
_atom_site_fract_z
_atom_site_occupancy
_atom_site_attached_hydrogens
_atom_site_U_iso_or_equiv
Ca1 Ca2+ 4 e 0.19040 0.05330 0.21720 1. 0 0.01500 
B1 B3+ 4 e 0.18380 0.14960 0.84440 1. 0 0.01200 
B2 B3+ 4 e 0.18450 0.15100 0.58090 1. 0 0.01200 
B3 B3+ 4 e 0.03710 0.23240 0.62830 1. 0 0.01600 
B4 B3+ 4 e 0.29800 -0.05650 0.77190 1. 0 0.01200 
B5 B3+ 4 e 0.24400 -0.11590 0.51210 1. 0 0.01300 
B6 B3+ 4 e 0.24960 -0.11370 0.98250 1. 0 0.01200 
O1 O2- 4 e 0.19320 0.02910 0.95970 1. 0 0.01400 
O2 O2- 4 e 0.19930 0.03590 0.47710 1. 0 0.01500 
O3 O2- 4 e -0.05460 0.30610 0.57420 1. 0 0.02700 
O4 O2- 4 e 0.02840 0.18730 0.20820 1. 0 0.03900 
O5 O2- 4 e 0.39020 0.03390 0.80260 1. 0 0.02100 
O6 O2- 4 e 0.25340 -0.20050 0.39810 1. 0 0.01500 
O7 O2- 4 e 0.27990 -0.17370 0.65200 1. 0 0.01600 
O8 O2- 4 e 0.25300 -0.20510 0.10040 1. 0 0.01500 
O9 O2- 4 e 0.29950 -0.15740 0.89550 1. 0 0.01400 
O10 O2- 4 e 0.08060 0.19990 0.77440 1. 0 0.01700 
O11 O2- 4 e 0.08070 0.19680 0.53170 1. 0 0.01700 
O12 O2- 4 e 0.06130 -0.14460 0.10610 1. 0 0.02400 
O13 O2- 4 e 0.36610 0.09170 0.28920 1. 0 0.03200 
O14 O2- 4 e 0.21460 0.06740 0.72980 1. 0 0.01100 
H1 H1+ 4 e -0.07800 0.33700 0.63600 1. 0 0.04600 
H2 H1+ 4 e -0.02600 0.16100 0.13700 1. 0 0.12000 
H3 H1+ 4 e 0.00800 0.18000 0.29000 1. 0 0.12000 
H4 H1+ 4 e 0.43100 -0.03300 0.82100 1. 0 0.05900 
H5 H1+ 4 e 0.09000 -0.25300 0.12900 1. 0 0.07600 
H6 H1+ 4 e 0.01100 -0.14800 0.13000 1. 0 0.05900 
H7 H1+ 4 e 0.40200 0.07200 0.25900 1. 0 0.13000 
H8 H1+ 4 e 0.39000 0.12000 0.37300 1. 0 0.09000 

loop_
_atom_site_aniso_label
_atom_site_aniso_type_symbol
_atom_site_aniso_U_11
_atom_site_aniso_U_22
_atom_site_aniso_U_33
_atom_site_aniso_U_12
_atom_site_aniso_U_13
_atom_site_aniso_U_23
Ca1 Ca2+ 0.02110 0.01460 0.01200 -0.00190 0.00760 -0.00090
B1 B3+ 0.01550 0.01040 0.00990 0.00150 0.00610 0.00000
B2 B3+ 0.01820 0.00930 0.00820 0.00100 0.00580 0.00140
B3 B3+ 0.01460 0.01680 0.01650 0.00100 0.00510 0.00140
B4 B3+ 0.01660 0.00960 0.00990 0.00130 0.00610 0.00100
B5 B3+ 0.01710 0.01040 0.01060 -0.00160 0.00560 -0.00100
B6 B3+ 0.01610 0.01040 0.01010 -0.00230 0.00580 -0.00170
O1 O2- 0.02320 0.01170 0.01200 0.00320 0.01070 0.00270
O2 O2- 0.02500 0.01020 0.01010 0.00280 0.00810 0.00060
O3 O2- 0.01970 0.04300 0.01870 0.01300 0.00750 0.00590
O4 O2- 0.03190 0.04140 0.03750 -0.00280 0.00420 -0.00810
O5 O2- 0.01530 0.01840 0.03010 0.00010 0.00890 0.00250
O6 O2- 0.02380 0.01130 0.01020 0.00360 0.00810 0.00040
O7 O2- 0.02730 0.01150 0.01010 0.00500 0.00800 0.00020
O8 O2- 0.02100 0.01250 0.01250 0.00270 0.00870 0.00300
O9 O2- 0.02050 0.01330 0.01130 0.00410 0.00890 0.00320
O10 O2- 0.01480 0.02350 0.01290 0.00360 0.00590 0.00050
O11 O2- 0.01590 0.02320 0.01210 0.00470 0.00470 0.00230
O12 O2- 0.02040 0.02350 0.02880 0.00020 0.01180 0.00320
O13 O2- 0.02710 0.03620 0.03010 -0.00370 0.00840 -0.00830
O14 O2- 0.01640 0.00900 0.00860 0.00160 0.00670 0.00140
#End of data_7748-ICSD


