data_15373-ICSD
#?2014 by Fachinformationszentrum Karlsruhe, and the U.S. Secretary of 
#Commerce on behalf of the United States.  All rights reserved.
_database_code_ICSD                15373
_audit_creation_date               1981/12/31
_chemical_name_systematic
;
Potassium Phyllo-heptafluorodicuprate
;
_chemical_formula_structural       'K3 Cu2 F7'
_chemical_formula_sum              'Cu2 F7 K3'
_publ_section_title
;
Roentgenographische Einkristallstrukturbestimmungen an den Kalium 
Kupfer(II) Fluoriden K2 Cu F4 und K3 Cu2 F7
;
loop_
_citation_id
_citation_journal_abbrev
_citation_year
_citation_journal_volume
_citation_page_first
_citation_page_last
_citation_journal_id_ASTM
primary 'Zeitschrift fuer Anorganische und Allgemeine Chemie (1950) (DE)'
 1981 474 113 122 ZAACAB
_publ_author_name                  'Herdtweck, E.;Babel, D.'
_cell_length_a                     4.156(3)
_cell_length_b                     4.156
_cell_length_c                     20.52(3)
_cell_angle_alpha                  90.
_cell_angle_beta                   90.
_cell_angle_gamma                  90.
_cell_volume                       354.43
_cell_formula_units_Z              2
_symmetry_space_group_name_H-M     'I 4/m m m'
_symmetry_Int_Tables_number        139
_refine_ls_R_factor_all            .0251
loop_
_symmetry_equiv_pos_site_id
_symmetry_equiv_pos_as_xyz
  1	'y, x, -z'
  2	'-y, -x, -z'
  3	'-y, x, -z'
  4	'y, -x, -z'
  5	'-x, y, -z'
  6	'x, -y, -z'
  7	'x, y, -z'
  8	'-x, -y, -z'
  9	'-y, -x, z'
 10	'y, x, z'
 11	'y, -x, z'
 12	'-y, x, z'
 13	'x, -y, z'
 14	'-x, y, z'
 15	'-x, -y, z'
 16	'x, y, z'
 17	'y+.5, x+.5, -z+.5'
 18	'-y+.5, -x+.5, -z+.5'
 19	'-y+.5, x+.5, -z+.5'
 20	'y+.5, -x+.5, -z+.5'
 21	'-x+.5, y+.5, -z+.5'
 22	'x+.5, -y+.5, -z+.5'
 23	'x+.5, y+.5, -z+.5'
 24	'-x+.5, -y+.5, -z+.5'
 25	'-y+.5, -x+.5, z+.5'
 26	'y+.5, x+.5, z+.5'
 27	'y+.5, -x+.5, z+.5'
 28	'-y+.5, x+.5, z+.5'
 29	'x+.5, -y+.5, z+.5'
 30	'-x+.5, y+.5, z+.5'
 31	'-x+.5, -y+.5, z+.5'
 32	'x+.5, y+.5, z+.5'
loop_
_atom_type_symbol
_atom_type_oxidation_number
Cu2+	2
F1-	-1
K1+	1
loop_
_atom_site_label
_atom_site_type_symbol
_atom_site_symmetry_multiplicity
_atom_site_Wyckoff_symbol
_atom_site_fract_x
_atom_site_fract_y
_atom_site_fract_z
_atom_site_occupancy
_atom_site_attached_hydrogens
K1 K1+ 4 e 0 0 0.3171(1) 1. 0 
K2 K1+ 2 b 0 0 0.5 1. 0 
Cu1 Cu2+ 4 e 0 0 0.0959(1) 1. 0 
F1 F1- 4 e 0 0 0.1898(2) 1. 0 
F2 F1- 2 a 0 0 0 1. 0 
F3 F1- 8 g 0.5 0 0.0942(2) 1. 0 

loop_
_atom_site_aniso_label
_atom_site_aniso_type_symbol
_atom_site_aniso_B_11
_atom_site_aniso_B_22
_atom_site_aniso_B_33
_atom_site_aniso_B_12
_atom_site_aniso_B_13
_atom_site_aniso_B_23
K1 K1+ 1.56(5) 1.56 1.10(5) 0 0 0
K2 K1+ 1.42(6) 1.42 1.22(9) 0 0 0
Cu1 Cu2+ 0.60(2) 0.6 0.77(3) 0 0 0
F1 F1- 1.99(13) 1.99 0.92(17) 0 0 0
F2 F1- 2.00(18) 2. 0.66(20) 0 0 0
F3 F1- 4.01(17) 1.59(12) 1.58(12) 0 0 0
#End of data_15373-ICSD


