data_68486-ICSD
#?2014 by Fachinformationszentrum Karlsruhe, and the U.S. Secretary of 
#Commerce on behalf of the United States.  All rights reserved.
_database_code_ICSD                68486
_audit_creation_date               1991/07/10
_chemical_name_systematic          'Silver Chlorate(III)'
_chemical_formula_structural       'Ag (Cl O2)'
_chemical_formula_sum              'Ag1 Cl1 O2'
_publ_section_title
;
Structures of lead chlorite, magnesium chlorite hexahydrate and 
silver chlorite
;
loop_
_citation_id
_citation_journal_abbrev
_citation_year
_citation_journal_volume
_citation_page_first
_citation_page_last
_citation_journal_id_ASTM
primary 'Acta Crystallographica, Section C: Crystal Structure Communications'
 1990 46 1755 1759 ACSCEE
_publ_author_name
;
Okuda, M.;Ishihara, M.;Yamanaka, M.;Ohba, S.;Saito, Y.
;
_cell_length_a                     6.0754(4)
_cell_length_b                     6.6796(5)
_cell_length_c                     6.1226(4)
_cell_angle_alpha                  90.
_cell_angle_beta                   90.
_cell_angle_gamma                  90.
_cell_volume                       248.46
_cell_formula_units_Z              4
_symmetry_space_group_name_H-M     'P c c a'
_symmetry_Int_Tables_number        54
_refine_ls_R_factor_all            .029
loop_
_symmetry_equiv_pos_site_id
_symmetry_equiv_pos_as_xyz
  1	'x, -y, z+.5'
  2	'-x+.5, y, z+.5'
  3	'x+.5, y, -z'
  4	'-x, -y, -z'
  5	'-x, y, -z+.5'
  6	'x+.5, -y, -z+.5'
  7	'-x+.5, -y, z'
  8	'x, y, z'
loop_
_atom_type_symbol
_atom_type_oxidation_number
Ag1+	1
Cl3+	3
O2-	-2
loop_
_atom_site_label
_atom_site_type_symbol
_atom_site_symmetry_multiplicity
_atom_site_Wyckoff_symbol
_atom_site_fract_x
_atom_site_fract_y
_atom_site_fract_z
_atom_site_occupancy
_atom_site_attached_hydrogens
Ag1 Ag1+ 4 c 0 0.11313(4) 0.25 1. 0 
Cl1 Cl3+ 4 c 0 0.6324(1) 0.25 1. 0 
O1 O2- 8 f 0.3509(2) 0.2274(2) 0.1056(3) 1. 0 

loop_
_atom_site_aniso_label
_atom_site_aniso_type_symbol
_atom_site_aniso_U_11
_atom_site_aniso_U_22
_atom_site_aniso_U_33
_atom_site_aniso_U_12
_atom_site_aniso_U_13
_atom_site_aniso_U_23
Ag1 Ag1+ 0.0291(2) 0.0317(2) 0.0315(32) 0 0.0046(1) 0
Cl1 Cl3+ 0.0281(5) 0.0236(4) 0.0322(6) 0 0.0003(3) 0
O1 O2- 0.0272(7) 0.0529(10) 0.0270(7) -.0076(7) -.0021(6) -.0031(8)
#End of data_68486-ICSD


