data_29258-ICSD
#?2014 by Fachinformationszentrum Karlsruhe, and the U.S. Secretary of 
#Commerce on behalf of the United States.  All rights reserved.
_database_code_ICSD                29258
_audit_creation_date               1980/01/01
_chemical_name_systematic          'Potassium Dihydrogen Phosphate'
_chemical_formula_structural       'K H2 P O4'
_chemical_formula_sum              'H2 K1 O4 P1'
_publ_section_title
;
Reconstruction of Local Atomic Environments in the Disordered 
Hydrogen - Bonded Crystal Structures of Paraelectric Ammonium 
Dihydrogen Phosphate and Potassium Dihydrogen Phosphate
;
loop_
_citation_id
_citation_journal_abbrev
_citation_year
_citation_journal_volume
_citation_page_first
_citation_page_last
_citation_journal_id_ASTM
primary 'Acta Crystallographica B (24,1968-38,1982)' 1973 29 2726 2731 ACBCAR
_publ_author_name                  'Baur, W.H.'
_cell_length_a                     7.434
_cell_length_b                     7.434
_cell_length_c                     6.945
_cell_angle_alpha                  90.
_cell_angle_beta                   90.
_cell_angle_gamma                  90.
_cell_volume                       383.81
_cell_formula_units_Z              4
_symmetry_space_group_name_H-M     'P 21 21 21'
_symmetry_Int_Tables_number        19
loop_
_symmetry_equiv_pos_site_id
_symmetry_equiv_pos_as_xyz
  1	'-x, y+.5, -z+.5'
  2	'x+.5, -y+.5, -z'
  3	'-x+.5, -y, z+.5'
  4	'x, y, z'
loop_
_atom_type_symbol
_atom_type_oxidation_number
H1+	1
K1+	1
O2-	-2
P5+	5
loop_
_atom_site_label
_atom_site_type_symbol
_atom_site_symmetry_multiplicity
_atom_site_Wyckoff_symbol
_atom_site_fract_x
_atom_site_fract_y
_atom_site_fract_z
_atom_site_occupancy
_atom_site_attached_hydrogens
K1 K1+ 4 a 0 0 0.5 1. 0 
P1 P5+ 4 a 0 0 0 1. 0 
O1 O2- 4 a 0.0897 0.1515 0.1256 1. 0 
O2 O2- 4 a 0.1557 0.9181 0.8743 1. 0 
O3 O2- 4 a 0.9262 0.8568 0.1303 1. 0 
O4 O2- 4 a 0.8618 0.0831 0.8699 1. 0 
H1 H1+ 4 a 0.232 0.146 0.128 1. 0 
H2 H1+ 4 a 0.146 0.776 0.882 1. 0 

#End of data_29258-ICSD


