data_26820-ICSD
#?2014 by Fachinformationszentrum Karlsruhe, and the U.S. Secretary of 
#Commerce on behalf of the United States.  All rights reserved.
_database_code_ICSD                26820
_audit_creation_date               1980/01/01
_audit_update_record               2012/02/01
_chemical_name_systematic
;
Dicalcium Sodium Hydrogen Catena-trisilicate
;
_chemical_formula_structural       'Ca2 Na H (Si3 O9)'
_chemical_formula_sum              'H1 Ca2 Na1 O9 Si3'
_chemical_name_mineral             'Pectolite 1A'
_publ_section_title
;
Refinement of the structure of pectolite, Ca2 Na H Si3 O9
;
loop_
_citation_id
_citation_journal_abbrev
_citation_year
_citation_journal_volume
_citation_page_first
_citation_page_last
_citation_journal_id_ASTM
primary
;
Zeitschrift fuer Kristallographie, Kristallgeometrie, Kristallphysik, 
Kristallchemie (-144,1977)
;
 1967 125 298 316 ZEKGAX
_publ_author_name                  'Prewitt, C.T.'
_cell_length_a                     7.988
_cell_length_b                     7.04
_cell_length_c                     7.025
_cell_angle_alpha                  90.52
_cell_angle_beta                   95.18
_cell_angle_gamma                  102.47
_cell_volume                       383.99
_cell_formula_units_Z              2
_symmetry_space_group_name_H-M     'P -1'
_symmetry_Int_Tables_number        2
_refine_ls_R_factor_all            .039
loop_
_symmetry_equiv_pos_site_id
_symmetry_equiv_pos_as_xyz
  1	'-x, -y, -z'
  2	'x, y, z'
loop_
_atom_type_symbol
_atom_type_oxidation_number
Ca2+	2
H1+	1
Na1+	1
O2-	-2
Si4+	4
loop_
_atom_site_label
_atom_site_type_symbol
_atom_site_symmetry_multiplicity
_atom_site_Wyckoff_symbol
_atom_site_fract_x
_atom_site_fract_y
_atom_site_fract_z
_atom_site_occupancy
_atom_site_attached_hydrogens
_atom_site_B_iso_or_equiv
Ca1 Ca2+ 2 i 0.8548(1) 0.5936(1) 0.1449(1) 1. 0 0 
Ca2 Ca2+ 2 i 0.8467(1) 0.0839(1) 0.1405(1) 1. 0 0 
Na1 Na1+ 2 i 0.5524(2) 0.2596(2) 0.3433(2) 1. 0 0 
H1 H1+ 2 i 0.162 0.625 0.53 1. 0 2.5 
Si1 Si4+ 2 i 0.2185(1) 0.4015(1) 0.3374(1) 1. 0 0 
Si2 Si4+ 2 i 0.2150(1) 0.9544(1) 0.3440(1) 1. 0 0 
Si3 Si4+ 2 i 0.4505(1) 0.7353(1) 0.1447(1) 1. 0 0 
O1 O2- 2 i 0.6526 0.7871(4) 0.1280(4) 1. 0 0 
O2 O2- 2 i 0.3300(4) 0.7043(4) -.0535(4) 1. 0 0 
O3 O2- 2 i 0.1864(4) 0.4960(4) 0.5395(4) 1. 0 0 
O4 O2- 2 i 0.1783(4) 0.8465(4) 0.5411(4) 1. 0 0 
O5 O2- 2 i 0.0633(4) 0.3860(4) 0.1733(4) 1. 0 0 
O6 O2- 2 i 0.0600(4) 0.8961(4) 0.1768(4) 1. 0 0 
O7 O2- 2 i 0.3992(4) 0.5349(4) 0.2720(4) 1. 0 0 
O8 O2- 2 i 0.3955(4) 0.9092(4) 0.2746(4) 1. 0 0 
O9 O2- 2 i 0.2628(4) 0.1908(4) 0.3851(4) 1. 0 0 

#End of data_26820-ICSD


