data_157982-ICSD
#?2014 by Fachinformationszentrum Karlsruhe, and the U.S. Secretary of 
#Commerce on behalf of the United States.  All rights reserved.
_database_code_ICSD                157982
_audit_creation_date               2008/02/01
_chemical_name_systematic          'Barium Calcium Carbonate'
_chemical_formula_structural       'Ba Ca (C O3)2'
_chemical_formula_sum              'C2 Ba1 Ca1 O6'
_chemical_name_mineral             Barytocalcite
_publ_section_title
;
The crystal structure of barytocalcite Ba Ca (C O3)2
;
loop_
_citation_id
_citation_journal_abbrev
_citation_year
_citation_journal_volume
_citation_journal_issue
_citation_page_first
_citation_page_last
_citation_journal_id_ASTM
primary 'Arkiv foer Kemi, Mineralogi och Geologi' 1958 2 31 399 410 AKMGAE
_publ_author_name                  'Alm, K.F.'
_cell_length_a                     8.15
_cell_length_b                     5.22
_cell_length_c                     6.58
_cell_angle_alpha                  90
_cell_angle_beta                   106.13
_cell_angle_gamma                  90
_cell_volume                       268.91
_cell_formula_units_Z              2
_symmetry_space_group_name_H-M     'P 1 21 1'
_symmetry_Int_Tables_number        4
loop_
_symmetry_equiv_pos_site_id
_symmetry_equiv_pos_as_xyz
  1	'-x, y+.5, -z'
  2	'x, y, z'
loop_
_atom_type_symbol
_atom_type_oxidation_number
Ba2+	2
C4+	4
Ca2+	2
O2-	-2
loop_
_atom_site_label
_atom_site_type_symbol
_atom_site_symmetry_multiplicity
_atom_site_Wyckoff_symbol
_atom_site_fract_x
_atom_site_fract_y
_atom_site_fract_z
_atom_site_occupancy
_atom_site_attached_hydrogens
Ba1 Ba2+ 2 a 0.14200 0.25000 0.28300 1. 0 
Ca1 Ca2+ 2 a 0.38300 0.73400 0.80000 1. 0 
C1 C4+ 2 a 0.08300 0.20500 0.77000 1. 0 
C2 C4+ 2 a 0.35800 0.74000 0.29900 1. 0 
O1 O2- 2 a 0.01200 0.15000 0.89300 1. 0 
O2 O2- 2 a 0.10500 0.44400 0.69700 1. 0 
O3 O2- 2 a 0.13300 0.02000 0.63900 1. 0 
O4 O2- 2 a 0.28700 0.68000 0.42200 1. 0 
O5 O2- 2 a 0.37900 0.97400 0.22600 1. 0 
O6 O2- 2 a 0.40700 0.55000 0.16800 1. 0 

#End of data_157982-ICSD


