data_59962-ICSD
#?2014 by Fachinformationszentrum Karlsruhe, and the U.S. Secretary of 
#Commerce on behalf of the United States.  All rights reserved.
_database_code_ICSD                59962
_audit_creation_date               2005/10/01
_audit_update_record               2012/08/01
_chemical_name_systematic          'Lithium Vanadate'
_chemical_formula_structural       'Li3 V6 O13'
_chemical_formula_sum              'Li3 O13 V6'
_publ_section_title
;
Li(3+delta) V6 O13: a short-range-ordered lithium insertion mechanism
;
loop_
_citation_id
_citation_journal_abbrev
_citation_year
_citation_journal_volume
_citation_page_first
_citation_page_last
_citation_journal_id_ASTM
primary 'Acta Crystallographica, Section B: Structural Science'
 2004 60 382 387 ASBSDK
_publ_author_name
;
Hoewing, J.;Gustafsson, T.;Thomas, J.O.
;
_cell_length_a                     11.7920(10)
_cell_length_b                     3.9214(4)
_cell_length_c                     10.1890(10)
_cell_angle_alpha                  90
_cell_angle_beta                   100.596(2)
_cell_angle_gamma                  90
_cell_volume                       463.12
_cell_formula_units_Z              2
_symmetry_space_group_name_H-M     'C 1 2/m 1'
_symmetry_Int_Tables_number        12
_refine_ls_R_factor_all            .0567
loop_
_symmetry_equiv_pos_site_id
_symmetry_equiv_pos_as_xyz
  1	'-x, y, -z'
  2	'-x, -y, -z'
  3	'x, -y, z'
  4	'x, y, z'
  5	'-x+.5, y+.5, -z'
  6	'-x+.5, -y+.5, -z'
  7	'x+.5, -y+.5, z'
  8	'x+.5, y+.5, z'
loop_
_atom_type_symbol
_atom_type_oxidation_number
Li1+	1
O2-	-2
V3.833+	3.833
loop_
_atom_site_label
_atom_site_type_symbol
_atom_site_symmetry_multiplicity
_atom_site_Wyckoff_symbol
_atom_site_fract_x
_atom_site_fract_y
_atom_site_fract_z
_atom_site_occupancy
_atom_site_attached_hydrogens
_atom_site_U_iso_or_equiv
V1 V3.833+ 4 i 0.34311(6) 0 0.00141(6) 1 0 0.00974(16) 
V2 V3.833+ 4 i 0.40032(5) 0 0.36633(5) 1 0 0.00720(17) 
V3 V3.833+ 4 i 0.72145(5) 0 0.36421(5) 1 0 0.00678(17) 
O1 O2- 4 i 0.1729(2) 0 0.9992(2) 1 0 0.0108(7) 
O2 O2- 4 i 0.8923(2) 0 0.3918(2) 1 0 0.0076(7) 
O3 O2- 4 i 0.23911(19) 0 0.4050(2) 1 0 0.0082(7) 
O4 O2- 2 b 0.5 0 0 1 0 0.0121(11) 
O5 O2- 4 i 0.3788(2) 0 0.2006(2) 1 0 0.0104(7) 
O6 O2- 4 i 0.6856(2) 0 0.2008(2) 1 0 0.0101(7) 
O7 O2- 4 i 0.5693(2) 0 0.4150(2) 1 0 0.0082(7) 
Li1 Li1+ 4 i 0.5683(5) 0.5 0.4093(6) 1 0 0.0128(18) 
Li2 Li1+ 2 a 0.5 0.5 0 1 0 0.115(11) 

loop_
_atom_site_aniso_label
_atom_site_aniso_type_symbol
_atom_site_aniso_U_11
_atom_site_aniso_U_22
_atom_site_aniso_U_33
_atom_site_aniso_U_12
_atom_site_aniso_U_13
_atom_site_aniso_U_23
V1 V3.833+ 0.0101(3) 0.0074(3) 0.0115(2) 0 0.0015(2) 0
V2 V3.833+ 0.0069(3) 0.0059(3) 0.0089(3) 0 0.0017(2) 0
V3 V3.833+ 0.0066(3) 0.0049(3) 0.0088(3) 0 0.0012(2) 0
O1 O2- 0.0125(14) 0.0057(12) 0.0140(11) 0 0.0015(10) 0
O2 O2- 0.0067(11) 0.0041(11) 0.0118(10) 0 0.0010(9) 0
O3 O2- 0.0052(11) 0.0065(12) 0.0129(11) 0 0.0019(9) 0
O4 O2- 0.0127(19) 0.0112(19) 0.0128(16) 0 0.0033(14) 0
O5 O2- 0.0112(12) 0.0088(13) 0.0112(11) 0 0.0018(9) 0
O6 O2- 0.0111(12) 0.0074(13) 0.0117(11) 0 0.0020(9) 0
O7 O2- 0.0073(12) 0.0052(12) 0.0123(11) 0 0.0027(9) 0
Li1 Li1+ 0.010(3) 0.005(3) 0.024(3) 0 0.006(3) 0
Li2 Li1+ 0.034(9) 0.069(13) 0.26(3) 0 0.063(13) 0
#End of data_59962-ICSD


