data_85682-ICSD
#?2014 by Fachinformationszentrum Karlsruhe, and the U.S. Secretary of 
#Commerce on behalf of the United States.  All rights reserved.
_database_code_ICSD                85682
_audit_creation_date               1999/11/30
_chemical_name_systematic
;
Potassium Pentagold Octathiodiphosphate
;
_chemical_formula_structural       'K Au5 P2 S8'
_chemical_formula_sum              'Au5 K1 P2 S8'
_publ_section_title
;
K2 Au P S4, Tl2 Au P S4, K2 Au As S4 and K Au5 P2 S8: syntheses, 
structures, and properties of quaternary gold thiophosphate and 
thioarsenate compounds
;
loop_
_citation_id
_citation_journal_abbrev
_citation_year
_citation_journal_volume
_citation_page_first
_citation_page_last
_citation_journal_id_ASTM
primary 'European Journal of Inorganic Chemistry  (online)'
 1998 1998 283 289 EJICFO
_publ_author_name                  'Loeken, S.;Tremel, W.'
_cell_length_a                     10.054(2)
_cell_length_b                     13.464(3)
_cell_length_c                     11.968(2)
_cell_angle_alpha                  90.
_cell_angle_beta                   106.16(3)
_cell_angle_gamma                  90.
_cell_volume                       1556.06
_cell_formula_units_Z              4
_symmetry_space_group_name_H-M     'P 1 21/c 1'
_symmetry_Int_Tables_number        14
_refine_ls_R_factor_all            .078
loop_
_symmetry_equiv_pos_site_id
_symmetry_equiv_pos_as_xyz
  1	'x, -y+.5, z+.5'
  2	'-x, -y, -z'
  3	'-x, y+.5, -z+.5'
  4	'x, y, z'
loop_
_atom_type_symbol
_atom_type_oxidation_number
Au1+	1
K1+	1
P5+	5
S2-	-2
loop_
_atom_site_label
_atom_site_type_symbol
_atom_site_symmetry_multiplicity
_atom_site_Wyckoff_symbol
_atom_site_fract_x
_atom_site_fract_y
_atom_site_fract_z
_atom_site_occupancy
_atom_site_attached_hydrogens
_atom_site_U_iso_or_equiv
Au1 Au1+ 4 e 0.2324(2) 0.2618(1) 0.0457(2) 1. 0 0.0226(7) 
Au2 Au1+ 4 e 0.4382(2) 0.4042(1) -.0710(2) 1. 0 0.0231(8) 
Au3 Au1+ 4 e 0.2395(2) 0.2447(2) 0.8006(1) 1. 0 0.0194(7) 
Au4 Au1+ 4 e 0.0586(2) 0.0830(2) 0.6415(2) 1. 0 0.0310(8) 
Au5 Au1+ 4 e 0.1170(3) 0.0473(2) -.0505(2) 1. 0 0.0360(9) 
K1 K1+ 4 e 0.309(1) 0.748(1) 0.170(1) 1. 0 0.047(5) 
S1 S2- 4 e 0.411(1) 0.1233(9) 0.8633(10) 1. 0 0.023(5) 
S2 S2- 4 e 0.236(1) -.0171(9) 0.622(1) 1. 0 0.027(5) 
S3 S2- 4 e 0.079(2) 0.3711(9) 0.756(1) 1. 0 0.028(5) 
S4 S2- 4 e 0.454(1) 0.3266(9) 0.105(1) 1. 0 0.025(5) 
S5 S2- 4 e 0.423(2) 0.465(1) 0.746(1) 1. 0 0.041(6) 
S6 S2- 4 e 0.236(1) -.095(1) -.069(1) 1. 0 0.041(5) 
S7 S2- 4 e 0.013(2) 0.197(1) -.032(1) 1. 0 0.037(5) 
S8 S2- 4 e 0.864(1) 0.177(1) 0.636(1) 1. 0 0.038(6) 
P1 P5+ 4 e 0.408(2) 0.0577(9) 0.714(1) 1. 0 0.020(5) 
P2 P5+ 4 e 0.939(1) 0.183(1) 0.1170(9) 1. 0 0.027(5) 

#End of data_85682-ICSD


