data_28008-ICSD
#?2014 by Fachinformationszentrum Karlsruhe, and the U.S. Secretary of 
#Commerce on behalf of the United States.  All rights reserved.
_database_code_ICSD                28008
_audit_creation_date               1980/01/01
_audit_update_record               2002/04/01
_chemical_name_systematic          'Lithium Gallium Bis(tungstate)'
_chemical_formula_structural       'Li Ga (W O4)2'
_chemical_formula_sum              'Ga1 Li1 O8 W2'
_publ_section_title
;
Preparation of crystals, thermal stability, and structure of the 
double tungstates Li R(III) (W O4)2 for R= Ga, In, Sc and Fe
;
loop_
_citation_id
_citation_journal_abbrev
_citation_year
_citation_journal_volume
_citation_page_first
_citation_page_last
_citation_journal_id_ASTM
primary Kristallografiya 1971 16 520 526 KRISAJ
2 'Soviet Physics, Crystallography (= Kristallografiya)'
 1971 16 440 445 SPHCA6
_publ_author_name
;
Klevtsov, P.V.;Demenev, A.V.;Klevtsova, R.F.
;
_cell_length_a                     9.30(2)
_cell_length_b                     5.65(2)
_cell_length_c                     4.89(2)
_cell_angle_alpha                  90.
_cell_angle_beta                   90.3(2)
_cell_angle_gamma                  90.
_cell_volume                       256.94
_cell_formula_units_Z              2
_symmetry_space_group_name_H-M     'P 1 2/c 1'
_symmetry_Int_Tables_number        13
_refine_ls_R_factor_all            .102
loop_
_symmetry_equiv_pos_site_id
_symmetry_equiv_pos_as_xyz
  1	'x, -y, z+.5'
  2	'-x, -y, -z'
  3	'-x, y, -z+.5'
  4	'x, y, z'
loop_
_atom_type_symbol
_atom_type_oxidation_number
Ga3+	3
Li1+	1
O2-	-2
W6+	6
loop_
_atom_site_label
_atom_site_type_symbol
_atom_site_symmetry_multiplicity
_atom_site_Wyckoff_symbol
_atom_site_fract_x
_atom_site_fract_y
_atom_site_fract_z
_atom_site_occupancy
_atom_site_attached_hydrogens
_atom_site_B_iso_or_equiv
Li1 Li1+ 2 f 0.5 0.665 0.25 1. 0 2. 
Ga1 Ga3+ 2 e 0 0.6659(15) 0.25 1. 0 0.54 
W1 W6+ 4 g 0.25003(46) 0.18263(27) 0.25658(62) 1. 0 -.04 
O1 O2- 4 g 0.1131(46) 0.6197(82) 0.5787(93) 1. 0 0.2 
O2 O2- 4 g 0.3719(46) 0.3777(83) 0.3902(92) 1. 0 0.6 
O3 O2- 4 g 0.3526(45) 0.0946(70) 0.9408(88) 1. 0 0.4 
O4 O2- 4 g 0.1335(45) 0.1277(72) 0.5674(88) 1. 0 0.4 

#End of data_28008-ICSD


