data_262691-ICSD
#?2014 by Fachinformationszentrum Karlsruhe, and the U.S. Secretary of 
#Commerce on behalf of the United States.  All rights reserved.
_database_code_ICSD                262691
_audit_creation_date               2012/08/01
_audit_update_record               2013/02/01
_chemical_name_systematic
;
Tetrabismuth Zinc Tetraoxide Bis(phosphate)
;
_chemical_formula_structural       'Bi4 Zn O4 (P O4)2'
_chemical_formula_sum              'Bi4 O12 P2 Zn1'
_publ_section_title
;
Novel tailormade Bi4 M O4 (P O4)2 structural type (M = Mg, Zn)
;
loop_
_citation_id
_citation_journal_abbrev
_citation_year
_citation_journal_volume
_citation_journal_issue
_citation_page_first
_citation_page_last
_citation_journal_id_ASTM
primary 'Inorganic Chemistry' 2012 51 8 4438 4447 INOCAJ
_publ_author_name
;
Endara, D.;Colmont, M.;Huve, M.;Tricot, G.;Carpentier, L.;Mentre, O.
;
_cell_length_a                     33.5044(3)
_cell_length_b                     10.8211(9)
_cell_length_c                     27.6486(2)
_cell_angle_alpha                  90
_cell_angle_beta                   121.892(4)
_cell_angle_gamma                  90
_cell_volume                       8510.94
_cell_formula_units_Z              32
_symmetry_space_group_name_H-M     'C 1 2/c 1'
_symmetry_Int_Tables_number        15
_refine_ls_R_factor_all            .0438
loop_
_symmetry_equiv_pos_site_id
_symmetry_equiv_pos_as_xyz
  1	'x, -y, z+.5'
  2	'-x, -y, -z'
  3	'-x, y, -z+.5'
  4	'x, y, z'
  5	'x+.5, -y+.5, z+.5'
  6	'-x+.5, -y+.5, -z'
  7	'-x+.5, y+.5, -z+.5'
  8	'x+.5, y+.5, z'
loop_
_atom_type_symbol
_atom_type_oxidation_number
Bi3+	3
O2-	-2
P5+	5
Zn2+	2
loop_
_atom_site_label
_atom_site_type_symbol
_atom_site_symmetry_multiplicity
_atom_site_Wyckoff_symbol
_atom_site_fract_x
_atom_site_fract_y
_atom_site_fract_z
_atom_site_occupancy
_atom_site_attached_hydrogens
_atom_site_U_iso_or_equiv
Bi1 Bi3+ 8 f 0.022971(18) 0.88269(5) 0.19926(2) 1 0 0.00694(15) 
Bi2 Bi3+ 8 f 0.186247(18) 0.87685(5) 0.19676(2) 1 0 0.00653(14) 
Bi3 Bi3+ 8 f 0.062722(18) 0.62604(5) 0.30129(2) 1 0 0.00676(15) 
Bi4 Bi3+ 8 f 0.153047(18) 0.91360(5) 0.30662(2) 1 0 0.00769(15) 
Bi5 Bi3+ 8 f 0.046070(18) 0.35293(5) 0.07004(2) 1 0 0.00772(15) 
Bi6 Bi3+ 8 f 0.200741(19) 0.59867(6) 0.42827(2) 1 0 0.00926(16) 
Bi7 Bi3+ 8 f 0.225914(17) 0.62946(5) 0.29982(2) 1 0 0.00596(14) 
Bi8 Bi3+ 8 f 0.062005(17) 1.13881(5) 0.30236(2) 1 0 0.00557(14) 
Bi9 Bi3+ 8 f 0.227055(18) 1.13620(5) 0.29953(2) 1 0 0.00638(14) 
Bi10 Bi3+ 8 f 0.149003(18) 0.39626(5) 0.30038(2) 1 0 0.00679(15) 
Bi11 Bi3+ 8 f 0.206666(19) 1.13098(5) 0.42854(2) 1 0 0.00776(15) 
Bi12 Bi3+ 8 f 0.312374(18) 0.88947(5) 0.30635(2) 1 0 0.00622(14) 
Bi13 Bi3+ 8 f -0.049787(18 0.12203(5) -0.07491(2) 1 0 0.00757(15) 
Bi14 Bi3+ 8 f 0.020207(17) 0.37989(5) 0.19386(2) 1 0 0.00636(14) 
Bi15 Bi3+ 8 f 0.096980(18) 0.15555(5) 0.19039(2) 1 0 0.00693(15) 
Bi16 Bi3+ 8 f 0.095850(18) 0.65657(5) 0.19310(2) 1 0 0.00666(15) 
Zn1 Zn2+ 8 f -0.12206(7) 0.22251(19) -0.00295(8) 1 0 0.0107(6) 
Zn2 Zn2+ 8 f -0.12427(6) 0.54032(18) 0.00347(7) 1 0 0.0088(5) 
Zn3 Zn2+ 8 f -0.18896(7) -0.1164(2) -0.04782(8) 1 0 0.0125(6) 
Zn4 Zn2+ 8 f 0.07201(7) 0.83983(19) 0.45383(8) 1 0 0.0112(6) 
P1 P5+ 8 f -0.13032(13) 0.3665(4) 0.09219(16) 1 0 0.0067(6) 
P2 P5+ 8 f 0.01645(13) 0.6103(4) 0.42145(15) 1 0 0.0080(11) 
P3 P5+ 8 f -0.22415(14) 0.1417(4) -0.08447(16) 1 0 0.0075(6) 
P4 P5+ 8 f -0.01836(14) 0.0990(4) 0.08136(16) 1 0 0.0089(11) 
P5 P5+ 8 f 0.12711(14) 0.8664(4) 0.40779(15) 1 0 0.0075(11) 
P6 P5+ 8 f 0.12600(13) 0.8797(4) 0.59220(14) 1 0 0.0061(11) 
P7 P5+ 8 f -0.23037(13) 0.6325(4) -0.08152(16) 1 0 0.0078(11) 
P8 P5+ 8 f -0.12709(12) 0.3859(3) -0.09417(15) 1 0 0.0044(5) 
O1 O2- 4 e 0 1.2586(13) 0.25 1 0 0.0026(19) 
O2 O2- 4 e 0 0.7554(13) 0.25 1 0 0.005(2) 
O3 O2- 4 e 0 1.0161(16) 0.25 1 0 0.011(3) 
O4 O2- 4 e 0 0.5109(14) 0.25 1 0 0.007(2) 
O5 O2- 8 f 0.0805(4) 0.5029(10) 0.2485(5) 1 0 0.0070(16) 
O6 O2- 8 f 0.2499(4) 0.7582(10) 0.2547(4) 1 0 0.0056(15) 
O7 O2- 8 f 0.0776(4) 1.2475(10) 0.2470(4) 1 0 0.0053(15) 
O8 O2- 8 f 0.2490(4) 1.0078(10) 0.2463(5) 1 0 0.0078(16) 
O9 O2- 8 f 0.1655(4) 0.2513(10) 0.2394(5) 1 0 0.0074(16) 
O10 O2- 8 f 0.0804(4) 0.7491(10) 0.2515(4) 1 0 0.0053(15) 
O11 O2- 8 f 0.1691(4) 0.9995(10) 0.2478(5) 1 0 0.0076(16) 
O12 O2- 8 f -0.0733(4) 0.1478(11) -0.1599(5) 1 0 0.0095(18) 
O13 O2- 8 f 0.1788(4) 1.1113(10) 0.3420(5) 1 0 0.0073(16) 
O14 O2- 8 f 0.1650(4) 0.7512(10) 0.2450(5) 1 0 0.0068(16) 
O15 O2- 8 f 0.0833(4) 1.0018(10) 0.2560(5) 1 0 0.0069(16) 
O16 O2- 8 f 0.1675(4) 0.5009(10) 0.2447(5) 1 0 0.0071(16) 
O17 O2- 8 f 0.0670(4) 0.3454(11) 0.1544(5) 1 0 0.0102(18) 
O18 O2- 8 f 0.1398(5) 0.9866(13) 0.3906(6) 1 0 0.017(2) 
O19 O2- 8 f 0.1161(5) 0.7612(13) 0.6159(6) 1 0 0.014(2) 
O20 O2- 8 f 0.1704(5) 0.5762(12) 0.3432(5) 1 0 0.014(2) 
O21 O2- 8 f -0.1727(4) 0.1397(12) -0.0670(5) 1 0 0.013(2) 
O22 O2- 8 f -0.1079(5) 0.2621(13) -0.0994(6) 1 0 0.016(2) 
O23 O2- 8 f -0.2323(5) 0.0237(13) -0.0583(6) 1 0 0.015(2) 
O24 O2- 8 f -0.0181(5) -0.0460(12) 0.0799(6) 1 0 0.014(2) 
O25 O2- 8 f -0.2329(5) 0.2588(14) -0.0604(6) 1 0 0.020(3) 
O26 O2- 8 f -0.2559(5) 0.1357(13) -0.1485(6) 1 0 0.017(2) 
O27 O2- 8 f -0.1212(4) 0.3887(12) -0.0355(5) 1 0 0.013(2) 
O28 O2- 8 f 0.1773(5) 0.8785(12) 0.6084(5) 1 0 0.014(2) 
O29 O2- 8 f -0.2425(5) 0.7649(13) -0.0706(6) 1 0 0.017(2) 
O30 O2- 8 f 0.0694(5) 0.6530(12) 0.4571(5) 1 0 0.014(2) 
O31 O2- 8 f -0.0997(5) 0.4949(13) -0.0991(6) 1 0 0.016(2) 
O32 O2- 8 f 0.1170(4) 0.9880(12) 0.6206(5) 1 0 0.013(2) 
O33 O2- 8 f -0.1775(5) 0.3971(13) -0.1422(6) 1 0 0.015(2) 
O34 O2- 8 f -0.1273(5) 0.2551(15) 0.0613(6) 1 0 0.020(3) 
O35 O2- 8 f 0.1384(5) 0.8726(15) 0.4696(7) 1 0 0.021(3) 
O36 O2- 8 f -0.2481(5) 0.5391(14) -0.0553(6) 1 0 0.018(2) 
O37 O2- 8 f -0.0033(5) 0.6270(14) 0.3579(6) 1 0 0.019(2) 
O38 O2- 8 f -0.1776(5) 0.3519(15) 0.0905(7) 1 0 0.021(3) 
O39 O2- 8 f 0.0234(5) 0.1364(14) 0.0761(6) 1 0 0.018(2) 
O40 O2- 8 f -0.1357(6) 0.4922(15) 0.0629(7) 1 0 0.021(3) 
O41 O2- 8 f -0.0891(5) 0.3748(14) 0.1537(6) 1 0 0.019(2) 
O42 O2- 8 f -0.0097(6) 0.1383(16) 0.1380(7) 1 0 0.024(3) 
O43 O2- 8 f -0.2538(5) 0.6137(15) -0.1458(7) 1 0 0.021(3) 
O44 O2- 8 f -0.0623(5) 0.1464(14) 0.0287(6) 1 0 0.020(2) 
O45 O2- 8 f 0.0130(7) 0.4782(18) 0.4362(8) 1 0 0.029(3) 
O46 O2- 8 f -0.0090(5) 0.6960(14) 0.4412(6) 1 0 0.019(2) 
O47 O2- 8 f 0.1521(6) 0.7602(18) 0.3991(8) 1 0 0.028(3) 
O48 O2- 8 f -0.1773(5) 0.6346(14) -0.0524(6) 1 0 0.019(2) 
O49 O2- 8 f 0.0912(7) 0.8833(18) 0.5292(8) 1 0 0.030(3) 
O50 O2- 8 f 0.0744(6) 0.8432(16) 0.3749(7) 1 0 0.023(3) 

loop_
_atom_site_aniso_label
_atom_site_aniso_type_symbol
_atom_site_aniso_U_11
_atom_site_aniso_U_22
_atom_site_aniso_U_33
_atom_site_aniso_U_12
_atom_site_aniso_U_13
_atom_site_aniso_U_23
Bi1 Bi3+ 0.00757(18) 0.00753(19) 0.00304(16) 0.00010(14) 0.00097(14) 
0.00066(14)
Bi2 Bi3+ 0.00739(18) 0.00789(19) 0.00208(16) 0.00059(14) 0.00098(14) 
-0.00082(13)
Bi3 Bi3+ 0.00852(19) 0.00888(19) 0.00110(15) -0.00193(15) 0.00133(14) 
0.00048(13)
Bi4 Bi3+ 0.00702(18) 0.0111(2) 0.00511(17) 0.00182(15) 0.00330(15) 
0.00410(15)
Bi5 Bi3+ 0.00797(18) 0.0120(2) 0.00135(16) -0.00001(15) 0.00121(14) 
-0.00001(14)
Bi6 Bi3+ 0.00805(19) 0.0152(2) 0.00247(17) 0.00016(16) 0.00135(15) 
-0.00035(15)
Bi7 Bi3+ 0.00679(18) 0.00778(18) 0.00194(16) 0.00027(14) 0.00137(14) 
-0.00014(13)
Bi8 Bi3+ 0.00612(17) 0.00724(18) 0.00177(15) -0.00010(14) 0.00102(14) 
0.00057(13)
Bi9 Bi3+ 0.00647(18) 0.00696(18) 0.00296(16) -0.00007(14) 0.0006(2) 
-0.0006(2)
Bi10 Bi3+ 0.00826(18) 0.00839(19) 0.00324(16) 0.00065(15) 0.00272(15) 
0.00129(14)
Bi11 Bi3+ 0.01014(19) 0.0101(2) 0.00218(16) 0.00068(16) 0.00269(15) 
0.00007(14)
Bi12 Bi3+ 0.00707(18) 0.00803(19) 0.00166(16) -0.00042(14) 0.0010(2) 
0.0005(2)
Bi13 Bi3+ 0.00812(18) 0.0121(2) 0.00144(16) 0.00080(15) 0.00183(14) 
0.00195(14)
Bi14 Bi3+ 0.00617(17) 0.00688(18) 0.00368(16) 0.00009(14) 0.0010(2) 
0.0006(2)
Bi15 Bi3+ 0.00731(18) 0.00906(19) 0.00404(17) -0.00124(15) 0.0027(2) 
-0.0024(2)
Bi16 Bi3+ 0.00677(18) 0.00969(19) 0.00339(16) -0.00098(15) 0.0026(2) 
-0.0022(2)
Zn1 Zn2+ 0.0105(7) 0.0130(8) 0.0063(6) 0.0008(6) 0.0029(6) -0.0004(6)
Zn2 Zn2+ 0.0094(7) 0.0115(7) 0.0031(6) 0.0007(5) 0.0017(5) 0.0000(5)
Zn3 Zn2+ 0.0099(7) 0.0200(9) 0.0055(6) 0.0015(6) 0.0026(6) 0.0011(6)
Zn4 Zn2+ 0.0114(7) 0.0146(8) 0.0051(6) 0.0004(6) 0.0027(6) 0.0002(6)
P2 P5+ 0.0051(13) 0.0101(15) 0.0020(12) -0.0008(11) -0.0028(10) -0.0009(11)
P4 P5+ 0.0075(14) 0.0123(16) 0.0030(13) -0.0007(12) 0.0002(11) -0.0014(11)
P5 P5+ 0.0104(14) 0.0088(14) 0.0026(12) 0.0003(12) 0.0029(11) -0.0006(11)
P6 P5+ 0.0094(14) 0.0069(13) 0.0010(11) 0.0006(11) 0.0015(11) -0.0002(10)
P7 P5+ 0.0062(13) 0.0086(14) 0.0040(13) -0.0021(11) -0.0004(11) -0.0010(11)
#End of data_262691-ICSD


