data_74678-ICSD
#?2014 by Fachinformationszentrum Karlsruhe, and the U.S. Secretary of 
#Commerce on behalf of the United States.  All rights reserved.
_database_code_ICSD                74678
_audit_creation_date               1995/10/17
_chemical_name_systematic          'Potassium Tetrathiovanadate'
_chemical_formula_structural       'K3 (V S4)'
_chemical_formula_sum              'K3 S4 V1'
_publ_section_title                'The crystal structure of K3VS4'
loop_
_citation_id
_citation_journal_abbrev
_citation_year
_citation_journal_volume
_citation_page_first
_citation_page_last
_citation_journal_id_ASTM
primary
;
Koninklijke Nederlandse Akademie van Wetenschappen, Series B: 
Physical Sciences: Proceedings
;
 1964 67 178 180 KNWBAA
_publ_author_name                  'van den Berg, J.M.;de Vries, R.'
_cell_length_a                     10.59(1)
_cell_length_b                     9.107(4)
_cell_length_c                     9.143(4)
_cell_angle_alpha                  90.
_cell_angle_beta                   90.
_cell_angle_gamma                  90.
_cell_volume                       881.78
_cell_formula_units_Z              4
_symmetry_space_group_name_H-M     'P m c n'
_symmetry_Int_Tables_number        62
_refine_ls_R_factor_all            .105
loop_
_symmetry_equiv_pos_site_id
_symmetry_equiv_pos_as_xyz
  1	'x, -y+.5, z+.5'
  2	'-x+.5, y, z'
  3	'x+.5, y+.5, -z+.5'
  4	'-x, -y, -z'
  5	'-x, y+.5, -z+.5'
  6	'x+.5, -y, -z'
  7	'-x+.5, -y+.5, z+.5'
  8	'x, y, z'
loop_
_atom_type_symbol
_atom_type_oxidation_number
K1+	1
S2-	-2
V5+	5
loop_
_atom_site_label
_atom_site_type_symbol
_atom_site_symmetry_multiplicity
_atom_site_Wyckoff_symbol
_atom_site_fract_x
_atom_site_fract_y
_atom_site_fract_z
_atom_site_occupancy
_atom_site_attached_hydrogens
K1 K1+ 8 d -.0042 0.207 0.05 1. 0 
K2 K1+ 4 c 0.25 0.412 0.143 1. 0 
V1 V5+ 4 c 0.25 0.985 0.215 1. 0 
S1 S2- 8 d 0.094 0.051 0.331 1. 0 
S2 S2- 4 c 0.25 0.076 0 1. 0 
S3 S2- 4 c 0.25 0.753 0.203 1. 0 

#End of data_74678-ICSD


