data_250262-ICSD
#?2014 by Fachinformationszentrum Karlsruhe, and the U.S. Secretary of 
#Commerce on behalf of the United States.  All rights reserved.
_database_code_ICSD                250262
_audit_creation_date               2005/10/01
_audit_update_record               2006/04/01
_chemical_name_systematic
;
Potassium Iron(III) Bis(dihydrogendiphosphate(V))
;
_chemical_formula_structural       'K Fe (H2 P2 O7)2'
_chemical_formula_sum              'H4 Fe1 K1 O14 P4'
_publ_section_title
;
Synthesis, crystal structure and proton conductivity of K Fe (H2 P2 
O7)2
;
loop_
_citation_id
_citation_journal_abbrev
_citation_year
_citation_journal_volume
_citation_page_first
_citation_page_last
_citation_journal_id_ASTM
primary 'Neorganicheskie Materialy' 2005 41 74 77 NMATEI
2 'Inorganic Materials' 2005 41 69 72 INOMAF
_publ_author_name
;
Chudinova, N.N.;Murashova, E.V.;Ilyukhin, A.B.;Tarnopol'skii, 
V.A.;Yaroslavtsev, A.B.
;
_cell_length_a                     4.9974(9)
_cell_length_b                     7.4766(9)
_cell_length_c                     7.8185(9)
_cell_angle_alpha                  82.29(2)
_cell_angle_beta                   83.37(2)
_cell_angle_gamma                  74.13(2)
_cell_volume                       277.5
_cell_formula_units_Z              1
_symmetry_space_group_name_H-M     'P -1'
_symmetry_Int_Tables_number        2
_refine_ls_R_factor_all            .0329
loop_
_symmetry_equiv_pos_site_id
_symmetry_equiv_pos_as_xyz
  1	'-x, -y, -z'
  2	'x, y, z'
loop_
_atom_type_symbol
_atom_type_oxidation_number
Fe3+	3
H1+	1
K1+	1
O2-	-2
P5+	5
loop_
_atom_site_label
_atom_site_type_symbol
_atom_site_symmetry_multiplicity
_atom_site_Wyckoff_symbol
_atom_site_fract_x
_atom_site_fract_y
_atom_site_fract_z
_atom_site_occupancy
_atom_site_attached_hydrogens
_atom_site_U_iso_or_equiv
K1 K1+ 1 a 0 0 0 1. 0 0.024(1) 
Fe1 Fe3+ 1 c 0 0.5 0 1. 0 0.009(1) 
P1 P5+ 2 i 0.3178(2) 0.2331(1) 0.3177(1) 1. 0 0.010(1) 
P2 P5+ 2 i 0.4131(2) 0.6065(1) 0.2344(1) 1. 0 0.009(1) 
O1 O2- 2 i 0.3662(5) 0.4271(3) 0.3550(3) 1. 0 0.018(1) 
O2 O2- 2 i 0.1726(5) 0.1608(3) 0.4791(3) 1. 0 0.014(1) 
O3 O2- 2 i 0.1720(5) 0.2687(3) 0.1531(3) 1. 0 0.015(1) 
O4 O2- 2 i 0.6127(5) 0.1006(3) 0.2820(3) 1. 0 0.018(1) 
O5 O2- 2 i 0.2975(5) 0.7692(3) 0.3467(3) 1. 0 0.016(1) 
O6 O2- 2 i 0.2474(4) 0.6346(3) 0.0786(3) 1. 0 0.011(1) 
O7 O2- 2 i 0.7181(5) 0.5895(3) 0.1924(3) 1. 0 0.016(1) 
H1 H1+ 2 i 0.6851 0.0174 0.3642 1. 0 0.04 
H2 H1+ 2 i 0.1400 0.7674 0.4031 1. 0 0.04 

#End of data_250262-ICSD


