data_2143-ICSD
#?2014 by Fachinformationszentrum Karlsruhe, and the U.S. Secretary of 
#Commerce on behalf of the United States.  All rights reserved.
_database_code_ICSD                2143
_audit_creation_date               1980/01/01
_audit_update_record               2012/08/01
_chemical_name_systematic
;
Potassium Holmium Tetrafluoroberyllate Difluoride
;
_chemical_formula_structural       'K Ho (Be F4) F2'
_chemical_formula_sum              'Be1 F6 Ho1 K1'
_publ_section_title
;
Structure cristalline du fluoroberyllate de potassiumholmium K Ho Be 
F6.  Characteristiques cristallographiques des composes isotypes
;
loop_
_citation_id
_citation_journal_abbrev
_citation_year
_citation_journal_volume
_citation_page_first
_citation_page_last
_citation_journal_id_ASTM
primary 'Acta Crystallographica B (24,1968-38,1982)' 1974 30 2049 2052 ACBCAR
_publ_author_name
;
le Fur, Y.;Tordjman, I.;Aleonard, S.;Bassi, G.;Roux, M.T.
;
_cell_length_a                     7.414(1)
_cell_length_b                     5.826(3)
_cell_length_c                     6.356(2)
_cell_angle_alpha                  90.
_cell_angle_beta                   119.12
_cell_angle_gamma                  90.
_cell_volume                       239.84
_cell_formula_units_Z              2
_symmetry_space_group_name_H-M     'P 1 21/m 1'
_symmetry_Int_Tables_number        11
_refine_ls_R_factor_all            .053
loop_
_symmetry_equiv_pos_site_id
_symmetry_equiv_pos_as_xyz
  1	'x, -y+.5, z'
  2	'-x, -y, -z'
  3	'-x, y+.5, -z'
  4	'x, y, z'
loop_
_atom_type_symbol
_atom_type_oxidation_number
Be2+	2
F1-	-1
Ho3+	3
K1+	1
loop_
_atom_site_label
_atom_site_type_symbol
_atom_site_symmetry_multiplicity
_atom_site_Wyckoff_symbol
_atom_site_fract_x
_atom_site_fract_y
_atom_site_fract_z
_atom_site_occupancy
_atom_site_attached_hydrogens
_atom_site_B_iso_or_equiv
Ho1 Ho3+ 2 e 0.18092(9) 0.25 0.0680(1) 1. 0 0 
K1 K1+ 2 e 0.7957(7) 0.25 0.3683(7) 1. 0 0 
F1 F1- 2 e 0.260(1) 0.25 0.746(2) 1. 0 0 
F2 F1- 2 e 0.411(2) 0.25 0.465(2) 1. 0 0 
F3 F1- 4 f 0.401(1) 0.965(1) 0.133(1) 1. 0 0 
F4 F1- 4 f 0.035(1) 0.001(1) 0.214(1) 1. 0 0 
Be1 Be2+ 2 e 0.457(3) 0.25 0.728(2) 1. 0 0.22 

#End of data_2143-ICSD


