data_422901-ICSD
#?2014 by Fachinformationszentrum Karlsruhe, and the U.S. Secretary of 
#Commerce on behalf of the United States.  All rights reserved.
_database_code_ICSD                422901
_audit_creation_date               2012/08/01
_chemical_name_systematic
;
Potassium Manganese Borodiphosphate Dihydroxide
;
_chemical_formula_structural       'K Mn B P2 O7 (O H)2'
_chemical_formula_sum              'H2 B1 K1 Mn1 O9 P2'
_publ_section_title
;
Ionothermal synthesis of the first luminescent open-framework 
manganese borophosphate with switchable magnetic properties
;
loop_
_citation_id
_citation_journal_abbrev
_citation_year
_citation_journal_volume
_citation_journal_issue
_citation_page_first
_citation_page_last
_citation_journal_id_ASTM
primary 'European Journal of Inorganic Chemistry  (online)'
 2012 2012 18 3032 3038 EJICFO
_publ_author_name
;
Wang Guangmei;Valldor, M.;Lorbeer, C.;Mudring, A.V.
;
_cell_length_a                     6.6594(13)
_cell_length_b                     12.049(2)
_cell_length_c                     9.790(2)
_cell_angle_alpha                  90.00
_cell_angle_beta                   109.12(3)
_cell_angle_gamma                  90.00
_cell_volume                       742.21
_cell_formula_units_Z              4
_symmetry_space_group_name_H-M     'P 1 21/c 1'
_symmetry_Int_Tables_number        14
_refine_ls_R_factor_all            .0213
loop_
_symmetry_equiv_pos_site_id
_symmetry_equiv_pos_as_xyz
  1	'x, -y+.5, z+.5'
  2	'-x, -y, -z'
  3	'-x, y+.5, -z+.5'
  4	'x, y, z'
loop_
_atom_type_symbol
_atom_type_oxidation_number
B3+	3
H1+	1
K1+	1
Mn2+	2
O2-	-2
P5+	5
loop_
_atom_site_label
_atom_site_type_symbol
_atom_site_symmetry_multiplicity
_atom_site_Wyckoff_symbol
_atom_site_fract_x
_atom_site_fract_y
_atom_site_fract_z
_atom_site_occupancy
_atom_site_attached_hydrogens
_atom_site_U_iso_or_equiv
Mn1 Mn2+ 4 e 0.89212(6) 0.08513(3) 0.59119(3) 1 0 0.00740(10) 
K1 K1+ 4 e 0.65541(11) 0.33201(5) 0.62266(8) 1 0 0.02966(17) 
P1 P5+ 4 e 0.99770(9) 0.16520(5) 0.93373(6) 1 0 0.00644(13) 
P2 P5+ 4 e 0.43386(9) 0.07223(4) 0.66775(6) 1 0 0.00700(13) 
B1 B3+ 4 e 0.7726(4) -0.0343(2) 0.8462(2) 1 0 0.0082(5) 
O1 O2- 4 e 1.0376(3) 0.18072(13) 0.79069(16) 1 0 0.0111(3) 
O2 O2- 4 e 0.5691(3) 0.11443(13) 0.58327(16) 1 0 0.0120(3) 
O3 O2- 4 e 0.9007(3) -0.05371(14) 0.75294(17) 1 0 0.0108(3) 
H1 H1+ 4 e 0.872(6) -0.111(3) 0.721(4) 1 0 0.044(11) 
O4 O2- 4 e 0.9133(3) 0.23222(13) 0.48079(17) 1 0 0.0138(4) 
O5 O2- 4 e 0.2098(2) 0.03451(13) 0.58245(15) 1 0 0.0093(3) 
O6 O2- 4 e 0.8327(3) 0.07137(12) 0.92282(16) 1 0 0.0090(3) 
O7 O2- 4 e 0.7906(3) -0.12528(13) 0.95122(16) 1 0 0.0110(3) 
O8 O2- 4 e 0.5435(2) -0.02874(12) 0.76372(16) 1 0 0.0101(3) 
O9 O2- 4 e 0.4178(3) 0.16819(14) 0.77200(18) 1 0 0.0172(4) 
H2 H1+ 4 e 0.301(4) 0.171(3) 0.787(3) 1 0 0.030(9) 

loop_
_atom_site_aniso_label
_atom_site_aniso_type_symbol
_atom_site_aniso_U_11
_atom_site_aniso_U_22
_atom_site_aniso_U_33
_atom_site_aniso_U_12
_atom_site_aniso_U_13
_atom_site_aniso_U_23
Mn1 Mn2+ 0.00666(19) 0.00809(16) 0.00785(16) -0.00016(13) 0.00291(13) 
-0.00029(13)
K1 K1+ 0.0317(4) 0.0145(3) 0.0563(4) 0.0017(3) 0.0329(3) -0.0042(3)
P1 P5+ 0.0070(3) 0.0063(3) 0.0059(3) 0.0000(2) 0.0020(2) -0.0002(2)
P2 P5+ 0.0043(3) 0.0084(3) 0.0080(3) -0.0002(2) 0.0015(2) 0.0000(2)
B1 B3+ 0.0073(14) 0.0085(12) 0.0076(11) -0.0013(9) 0.0011(9) 0.0006(9)
O1 O2- 0.0127(9) 0.0147(8) 0.0067(7) -0.0021(6) 0.0042(6) 0.0000(6)
O2 O2- 0.0081(9) 0.0134(8) 0.0154(8) 0.0002(6) 0.0050(7) 0.0040(6)
O3 O2- 0.0122(10) 0.0093(8) 0.0115(8) -0.0011(6) 0.0048(7) -0.0012(6)
O4 O2- 0.0161(10) 0.0101(8) 0.0171(8) -0.0010(7) 0.0079(7) 0.0034(6)
O5 O2- 0.0053(9) 0.0119(8) 0.0100(7) 0.0000(6) 0.0016(6) -0.0026(6)
O6 O2- 0.0076(9) 0.0094(8) 0.0101(7) -0.0023(6) 0.0030(6) -0.0014(6)
O7 O2- 0.0079(9) 0.0118(7) 0.0109(8) -0.0026(6) -0.0003(6) 0.0041(6)
O8 O2- 0.0064(9) 0.0111(8) 0.0105(7) -0.0015(6) -0.0002(6) 0.0031(6)
O9 O2- 0.0087(10) 0.0202(9) 0.0225(9) -0.0020(7) 0.0047(7) -0.0116(7)
#End of data_422901-ICSD


