data_413125-ICSD
#?2014 by Fachinformationszentrum Karlsruhe, and the U.S. Secretary of 
#Commerce on behalf of the United States.  All rights reserved.
_database_code_ICSD                413125
_audit_creation_date               2004/10/01
_chemical_name_systematic
;
Barium Magnesium Fluoride (6/11/34)
;
_chemical_formula_structural       'Ba6 Mg11 F34'
_chemical_formula_sum              'Ba6 F34 Mg11'
_publ_section_title
;
Syntheses and crystal structures of Ba6 Mg11 F34 and the solid 
solutions Ba6 Mg11-x M(II)x F34 (M(II) = Mn, Fe) and luminescence of 
Ba6 Mg11 F34:Eu(2+)
;
loop_
_citation_id
_citation_journal_abbrev
_citation_year
_citation_journal_volume
_citation_page_first
_citation_page_last
_citation_journal_id_ASTM
primary 'Materials Research Bulletin' 2004 39 343 355 MRBUAC
_publ_author_name
;
Kerbe, W.;Weil, M.;Kubel, F.;Hagemann, H.
;
_cell_length_a                     7.5084(6)
_cell_length_b                     9.9192(8)
_cell_length_c                     10.0354(8)
_cell_angle_alpha                  81.536(2)
_cell_angle_beta                   72.402(2)
_cell_angle_gamma                  71.798(1)
_cell_volume                       675.63
_cell_formula_units_Z              1
_symmetry_space_group_name_H-M     'P -1'
_symmetry_Int_Tables_number        2
_refine_ls_R_factor_all            .018
loop_
_symmetry_equiv_pos_site_id
_symmetry_equiv_pos_as_xyz
  1	'-x, -y, -z'
  2	'x, y, z'
loop_
_atom_type_symbol
_atom_type_oxidation_number
Ba2+	2
F1-	-1
Mg2+	2
loop_
_atom_site_label
_atom_site_type_symbol
_atom_site_symmetry_multiplicity
_atom_site_Wyckoff_symbol
_atom_site_fract_x
_atom_site_fract_y
_atom_site_fract_z
_atom_site_occupancy
_atom_site_attached_hydrogens
_atom_site_U_iso_or_equiv
Ba1 Ba2+ 2 i 0.78535(2) 0.363708(15) 0.656188(15) 1. 0 0.01061(4) 
Ba2 Ba2+ 2 i 0.36110(2) 0.094816(15) 0.730494(16) 1. 0 0.01170(4) 
Ba3 Ba2+ 2 i 0.32818(2) 0.344481(16) 0.031532(15) 1. 0 0.01164(4) 
Mg1 Mg2+ 1 b 0 0 0.5 1. 0 0.0086(2) 
Mg2 Mg2+ 2 i 0.18217(12) 0.48697(9) 0.70827(9) 1. 0 0.00844(16) 
Mg3 Mg2+ 2 i 0.26807(12) 0.25565(9) 0.39237(9) 1. 0 0.00846(16) 
Mg4 Mg2+ 2 i 0.69564(12) 0.24821(9) 0.30110(8) 1. 0 0.00836(16) 
Mg5 Mg2+ 2 i 0.89271(12) 0.25051(9) 0.98967(9) 1. 0 0.00872(16) 
Mg6 Mg2+ 2 i 0.81021(12) 0.99526(8) 0.81559(9) 1. 0 0.00848(16) 
F1 F1- 2 i 0.5821(2) 0.64006(16) 0.25480(16) 1. 0 0.0148(3) 
F2 F1- 2 i 0.4431(2) 0.88291(16) 0.09806(16) 1. 0 0.0152(3) 
F3 F1- 2 i 0.0733(2) 0.40318(16) 0.31680(18) 1. 0 0.0178(3) 
F4 F1- 2 i 0.0628(2) 0.89385(15) 0.67357(15) 1. 0 0.0126(3) 
F5 F1- 2 i 0.8581(2) 0.86211(15) 0.97392(16) 1. 0 0.0131(3) 
F6 F1- 2 i 0.3275(2) 0.61191(15) 0.06652(16) 1. 0 0.0127(3) 
F7 F1- 2 i 0.1990(2) 0.37097(17) 0.55803(17) 1. 0 0.0192(3) 
F8 F1- 2 i 0.7336(2) 0.14901(15) 0.13522(15) 1. 0 0.0132(3) 
F9 F1- 2 i 0.1557(2) 0.62588(16) 0.84939(16) 1. 0 0.0137(3) 
F10 F1- 2 i 0.1148(2) 0.14577(16) 0.52486(16) 1. 0 0.0147(3) 
F11 F1- 2 i 0.4420(2) 0.36847(15) 0.27152(16) 1. 0 0.0123(3) 
F12 F1- 2 i 0.0512(2) 0.37059(16) 0.85999(16) 1. 0 0.0193(4) 
F13 F1- 2 i 0.0558(2) 0.86366(16) 0.16948(15) 1. 0 0.0129(3) 
F14 F1- 2 i 0.3195(2) 0.13614(15) 0.23501(15) 1. 0 0.0120(3) 
F15 F1- 2 i 0.2394(2) 0.89765(15) 0.36642(15) 1. 0 0.0112(3) 
F16 F1- 2 i 0.5206(2) 0.13894(15) 0.42805(15) 1. 0 0.0122(3) 
F17 F1- 2 i 0.6956(2) 0.38045(15) 0.42348(15) 1. 0 0.0129(3) 

loop_
_atom_site_aniso_label
_atom_site_aniso_type_symbol
_atom_site_aniso_U_11
_atom_site_aniso_U_22
_atom_site_aniso_U_33
_atom_site_aniso_U_12
_atom_site_aniso_U_13
_atom_site_aniso_U_23
Ba1 Ba2+ 0.01097(7) 0.01031(7) 0.01049(8) -.00245(5) -.00287(5) -.00187(5)
Ba2 Ba2+ 0.01154(8) 0.01040(7) 0.01348(8) -.00252(5) -.00377(6) -.00217(5)
Ba3 Ba2+ 0.01401(8) 0.01185(7) 0.00962(8) -.00559(5) -.00160(6) -.00161(5)
Mg1 Mg2+ 0.0095(5) 0.0089(5) 0.0077(5) -.0034(4) -.0015(4) -.0009(4)
Mg2 Mg2+ 0.0087(4) 0.0083(4) 0.0091(4) -.0034(3) -.0024(3) -.0008(3)
Mg3 Mg2+ 0.0075(4) 0.0085(4) 0.0088(4) -.0018(3) -.0018(3) -.0008(3)
Mg4 Mg2+ 0.0081(4) 0.0086(4) 0.0086(4) -.0029(3) -.0017(3) -.0012(3)
Mg5 Mg2+ 0.0080(4) 0.0095(4) 0.0086(4) -.0026(3) -.0021(3) -.0002(3)
Mg6 Mg2+ 0.0090(4) 0.0080(4) 0.0086(4) -.0023(3) -.0028(3) -.0001(3)
F1 F1- 0.0114(7) 0.0147(7) 0.0171(8) -.0023(6) -.0046(6) 0.0012(6)
F2 F1- 0.0132(7) 0.0159(7) 0.0152(8) -.0011(6) -.0034(6) -.0043(6)
F3 F1- 0.0127(7) 0.0151(7) 0.0262(9) -.0005(6) -.0099(7) -.0009(6)
F4 F1- 0.0110(7) 0.0133(7) 0.0115(7) -.0007(6) -.0030(6) -.0005(6)
F5 F1- 0.0121(7) 0.0149(7) 0.0127(7) -.0033(6) -.0053(6) 0.0009(6)
F6 F1- 0.0119(7) 0.0113(7) 0.0141(7) -.0014(6) -.0041(6) -.0011(6)
F7 F1- 0.0200(8) 0.0224(8) 0.0172(8) -.0078(7) -.0021(7) -.0106(6)
F8 F1- 0.0163(7) 0.0139(7) 0.0112(7) -.0082(6) -.0019(6) -.0018(6)
F9 F1- 0.0172(8) 0.0145(7) 0.0107(7) -.0067(6) -.0023(6) -.0032(6)
F10 F1- 0.0176(8) 0.0152(7) 0.0125(7) -.0095(6) -.0008(6) -.0013(6)
F11 F1- 0.0112(7) 0.0105(7) 0.0149(7) -.0021(5) -.0046(6) 0.0008(6)
F12 F1- 0.0187(8) 0.0213(9) 0.0178(9) -.0115(7) -.0025(7) 0.0070(7)
F13 F1- 0.0128(7) 0.0146(7) 0.0123(7) -.0047(6) -.0029(6) -.0030(6)
F14 F1- 0.0130(7) 0.0121(7) 0.0125(7) -.0050(6) -.0033(6) -.0026(5)
F15 F1- 0.0107(7) 0.0110(7) 0.0101(7) -.0007(5) -.0023(6) -.0010(5)
F16 F1- 0.0104(7) 0.0122(7) 0.0144(7) -.0044(6) -.0041(6) 0.0023(6)
F17 F1- 0.0184(8) 0.0126(7) 0.0098(7) -.0076(6) -.0032(6) -.0011(5)
#End of data_413125-ICSD


