data_150430-ICSD
#?2014 by Fachinformationszentrum Karlsruhe, and the U.S. Secretary of 
#Commerce on behalf of the United States.  All rights reserved.
_database_code_ICSD                150430
_audit_creation_date               2006/04/01
_audit_update_record               2007/08/01
_chemical_name_systematic          'Sodium Tantalate'
_chemical_formula_structural       'Na (Ta O3)'
_chemical_formula_sum              'Na1 O3 Ta1'
_publ_section_title
;
A structural study of the perovskite series Ca1-x Nax Ti1-x Tax O3
;
loop_
_citation_id
_citation_journal_abbrev
_citation_year
_citation_journal_volume
_citation_page_first
_citation_page_last
_citation_journal_id_ASTM
primary 'Journal of Solid State Chemistry' 2004 177 4420 4427 JSSCBI
_publ_author_name                  'Mitchell, R.H.;Liferovich, R.P.'
_cell_length_a                     5.48109(9)
_cell_length_b                     5.52351(9)
_cell_length_c                     7.79483(12)
_cell_angle_alpha                  90.
_cell_angle_beta                   90.
_cell_angle_gamma                  90.
_cell_volume                       235.99
_cell_formula_units_Z              4
_symmetry_space_group_name_H-M     'P b n m'
_symmetry_Int_Tables_number        62
_refine_ls_R_factor_all            .0156
loop_
_symmetry_equiv_pos_site_id
_symmetry_equiv_pos_as_xyz
  1	'-x+.5, y+.5, z'
  2	'x, y, -z+.5'
  3	'x+.5, -y+.5, z+.5'
  4	'-x, -y, -z'
  5	'x+.5, -y+.5, -z'
  6	'-x, -y, z+.5'
  7	'-x+.5, y+.5, -z+.5'
  8	'x, y, z'
loop_
_atom_type_symbol
_atom_type_oxidation_number
Na1+	1
O2-	-2
Ta5+	5
loop_
_atom_site_label
_atom_site_type_symbol
_atom_site_symmetry_multiplicity
_atom_site_Wyckoff_symbol
_atom_site_fract_x
_atom_site_fract_y
_atom_site_fract_z
_atom_site_occupancy
_atom_site_attached_hydrogens
_atom_site_B_iso_or_equiv
Na1 Na1+ 4 c 0.9950(30) 0.0171(31) 0.250 1. 0 1.02(12) 
Ta1 Ta5+ 4 b 0 0.5 0 1. 0 0.12(1) 
O1 O2- 4 c 0.0645(62) 0.4939(24) 0.250 1. 0 0.50(11) 
O2 O2- 8 d 0.7275(25) 0.2845(21) 0.0309(15) 1. 0 0.50(13) 

#End of data_150430-ICSD


