data_98090-ICSD
#?2014 by Fachinformationszentrum Karlsruhe, and the U.S. Secretary of 
#Commerce on behalf of the United States.  All rights reserved.
_database_code_ICSD                98090
_audit_creation_date               2004/10/01
_chemical_name_systematic          'Tricalcium Dimanganate(IV)'
_chemical_formula_structural       'Ca3 (Mn2 O7)'
_chemical_formula_sum              'Ca3 Mn2 O7'
_publ_section_title
;
La-doping and external pressure effects on the crystal structure of 
layered perovskite-like manganate Ca3 Mn2 O7
;
loop_
_citation_id
_citation_journal_abbrev
_citation_year
_citation_journal_volume
_citation_journal_issue
_citation_page_first
_citation_page_last
_citation_journal_id_ASTM
primary 'Physica Status Solidi A - Applications and Materials'
 2002 194 1 159 166 PSSABA
_publ_author_name
;
Zhu, J.L.;Yu, R.C.;Li, F.Y.;Jin, C.-Q.
;
_cell_length_a                     3.6957(5)
_cell_length_b                     3.6957(5)
_cell_length_c                     19.4873(10)
_cell_angle_alpha                  90
_cell_angle_beta                   90
_cell_angle_gamma                  90
_cell_volume                       266.16
_cell_formula_units_Z              2
_symmetry_space_group_name_H-M     'I 4/m m m'
_symmetry_Int_Tables_number        139
_refine_ls_R_factor_all            .0805
loop_
_symmetry_equiv_pos_site_id
_symmetry_equiv_pos_as_xyz
  1	'y, x, -z'
  2	'-y, -x, -z'
  3	'-y, x, -z'
  4	'y, -x, -z'
  5	'-x, y, -z'
  6	'x, -y, -z'
  7	'x, y, -z'
  8	'-x, -y, -z'
  9	'-y, -x, z'
 10	'y, x, z'
 11	'y, -x, z'
 12	'-y, x, z'
 13	'x, -y, z'
 14	'-x, y, z'
 15	'-x, -y, z'
 16	'x, y, z'
 17	'y+.5, x+.5, -z+.5'
 18	'-y+.5, -x+.5, -z+.5'
 19	'-y+.5, x+.5, -z+.5'
 20	'y+.5, -x+.5, -z+.5'
 21	'-x+.5, y+.5, -z+.5'
 22	'x+.5, -y+.5, -z+.5'
 23	'x+.5, y+.5, -z+.5'
 24	'-x+.5, -y+.5, -z+.5'
 25	'-y+.5, -x+.5, z+.5'
 26	'y+.5, x+.5, z+.5'
 27	'y+.5, -x+.5, z+.5'
 28	'-y+.5, x+.5, z+.5'
 29	'x+.5, -y+.5, z+.5'
 30	'-x+.5, y+.5, z+.5'
 31	'-x+.5, -y+.5, z+.5'
 32	'x+.5, y+.5, z+.5'
loop_
_atom_type_symbol
_atom_type_oxidation_number
Ca2+	2
Mn4+	4
O2-	-2
loop_
_atom_site_label
_atom_site_type_symbol
_atom_site_symmetry_multiplicity
_atom_site_Wyckoff_symbol
_atom_site_fract_x
_atom_site_fract_y
_atom_site_fract_z
_atom_site_occupancy
_atom_site_attached_hydrogens
_atom_site_U_iso_or_equiv
Ca1 Ca2+ 2 b 0 0 0.5 1. 0 0.01 
Ca2 Ca2+ 4 e 0 0 0.3114(3) 1. 0 0.01 
Mn1 Mn4+ 4 e 0 0 0.0987(3) 1. 0 0.01 
O1 O2- 2 a 0 0 0 1. 0 0.01 
O2 O2- 8 g 0 0.5 0.0872(5) 1. 0 0.01 
O3 O2- 4 e 0 0 0.1999(3) 1. 0 0.01 

#End of data_98090-ICSD


