data_91325-ICSD
#?2014 by Fachinformationszentrum Karlsruhe, and the U.S. Secretary of 
#Commerce on behalf of the United States.  All rights reserved.
_database_code_ICSD                91325
_audit_creation_date               2002/10/01
_audit_update_record               2006/04/01
_chemical_name_systematic
;
Pentalead Trialuminium Fluoride - Iii
;
_chemical_formula_structural       'Pb5 Al3 F19'
_chemical_formula_sum              'Al3 F19 Pb5'
_publ_section_title
;
Crystal structure of ferroelastic Pb5 Al2.96 Cr0.04 F19 at 300 K
;
loop_
_citation_id
_citation_journal_abbrev
_citation_year
_citation_journal_volume
_citation_page_first
_citation_page_last
_citation_journal_id_ASTM
primary 'Journal of Solid State Chemistry' 2000 155 427 432 JSSCBI
2 'Golden Book of Phase Transitions, Wroclaw' 2002 1 1 123 GBOPT5
_publ_author_name
;
Bravic, G.;von der Muehll, R.;Ravez, J.
;
_cell_length_a                     10.72(3)
_cell_length_b                     10.67(3)
_cell_length_c                     7.24(2)
_cell_angle_alpha                  109.27(5)
_cell_angle_beta                   110.14(5)
_cell_angle_gamma                  83.33(5)
_cell_volume                       733.93
_cell_formula_units_Z              2
_symmetry_space_group_name_H-M     'P -1'
_symmetry_Int_Tables_number        2
_refine_ls_R_factor_all            .065
loop_
_symmetry_equiv_pos_site_id
_symmetry_equiv_pos_as_xyz
  1	'-x, -y, -z'
  2	'x, y, z'
loop_
_atom_type_symbol
_atom_type_oxidation_number
Al3+	3
F1-	-1
Pb2+	2
loop_
_atom_site_label
_atom_site_type_symbol
_atom_site_symmetry_multiplicity
_atom_site_Wyckoff_symbol
_atom_site_fract_x
_atom_site_fract_y
_atom_site_fract_z
_atom_site_occupancy
_atom_site_attached_hydrogens
_atom_site_B_iso_or_equiv
Pb1 Pb2+ 2 i 0.3245(1) 0.8454(2) 0.0782(2) 1. 0 0 
Pb2 Pb2+ 2 i 0.1542(2) 0.3247(2) 0.2332(2) 1. 0 0 
Pb3 Pb2+ 2 i 0.8430(1) 0.2792(1) 0.5614(2) 1. 0 0 
Pb4 Pb2+ 2 i 0.2778(1) 0.1549(1) 0.7153(2) 1. 0 0 
Pb5 Pb2+ 2 i 0.5167(2) 0.5305(3) 0.2753(3) 1. 0 0 
Al1 Al3+ 2 i 0.8316(7) 0.4846(7) 0.159(1) 1. 0 1.08(5) 
Al2 Al3+ 2 i 0.5157(7) 0.8315(7) 0.679(1) 1. 0 0.94(5) 
Al3 Al3+ 2 i 0.0035(7) 0.0014(7) 0.249(1) 1. 0 0.91(5) 
F1 F1- 1 a 0 0 0 1. 0 3.3(2) 
F2 F1- 1 b 0 0 0.5 1. 0 1.3(1) 
F3 F1- 2 i -.065(2) 0.834(2) 0.632(2) 1. 0 1.7(1) 
F4 F1- 2 i 0.061(2) 0.164(2) 0.855(2) 1. 0 2.0(1) 
F5 F1- 2 i 0.161(2) -.062(2) 0.796(2) 1. 0 1.9(1) 
F6 F1- 2 i 0.833(2) 0.066(2) 0.695(3) 1. 0 2.2(1) 
F7 F1- 2 i 0.782(2) 0.604(2) 0.373(2) 1. 0 1.8(1) 
F8 F1- 2 i 0.201(2) 0.388(2) -.035(3) 1. 0 2.2(1) 
F9 F1- 2 i 0.386(1) 0.806(1) 0.763(2) 1. 0 1.3(1) 
F10 F1- 2 i 0.603(2) 0.219(2) 0.579(2) 1. 0 1.7(1) 
F11 F1- 2 i 0.139(2) 0.642(2) 0.068(3) 1. 0 2.7(1) 
F12 F1- 2 i 0.845(2) 0.350(2) 0.264(2) 1. 0 2.0(1) 
F13 F1- 2 i 0.355(2) 0.160(2) 0.419(2) 1. 0 1.9(1) 
F14 F1- 2 i 0.639(2) 0.877(2) 0.944(3) 1. 0 2.4(1) 
F15 F1- 2 i 0.004(2) 0.523(2) 0.276(3) 1. 0 2.4(1) 
F16 F1- 2 i 0.477(2) 0.006(2) 0.716(2) 1. 0 2.1(1) 
F17 F1- 2 i 0.344(2) 0.560(2) 0.960(3) 1. 0 2.2(1) 
F18 F1- 2 i 0.439(2) 0.343(2) 0.351(3) 1. 0 2.5(1) 
F19 F1- 2 i 0.290(2) 0.538(2) 0.411(2) 1. 0 1.7(1) 
F20 F1- 2 i 0.461(1) 0.287(1) 0.872(2) 1. 0 1.5(1) 

loop_
_atom_site_aniso_label
_atom_site_aniso_type_symbol
_atom_site_aniso_U_11
_atom_site_aniso_U_22
_atom_site_aniso_U_33
_atom_site_aniso_U_12
_atom_site_aniso_U_13
_atom_site_aniso_U_23
Pb1 Pb2+ 0.0194(7) 0.0432(9) 0.0269(8) 0.0044(6) 0.0083(6) 0.0149(6)
Pb2 Pb2+ 0.0302(8) 0.0318(8) 0.0260(7) -.0030(6) 0.0100(6) 0.0111(6)
Pb3 Pb2+ 0.0202(7) 0.0277(8) 0.0238(7) 0.0050(5) 0.0081(5) 0.0111(6)
Pb4 Pb2+ 0.0142(7) 0.0356(8) 0.0237(7) -.0033(5) 0.0036(5) 0.0126(6)
Pb5 Pb2+ 0.052(1) 0.087(2) 0.049(1) 0.008(1) 0.0175(9) 0.038(1)
#End of data_91325-ICSD


