data_424783-ICSD
#?2014 by Fachinformationszentrum Karlsruhe, and the U.S. Secretary of 
#Commerce on behalf of the United States.  All rights reserved.
_database_code_ICSD                424783
_audit_creation_date               2013/08/01
_chemical_name_systematic
;
Hexapotassium Tetramolybdenum(V) Octaoxide Decafluoride
;
_chemical_formula_structural       'K6 (Mo4 O8 F10)'
_chemical_formula_sum              'F10 K6 Mo4 O8'
_publ_section_title
;
New structural units in molybdenum oxyfluoride chemistry
;
loop_
_citation_id
_citation_journal_abbrev
_citation_year
_citation_journal_volume
_citation_page_first
_citation_page_last
_citation_journal_id_ASTM
primary 'Journal of Fluorine Chemistry' 2012 144 108 113 JFLCAR
_publ_author_name                  'Aldous, D.W.;Lightfoot, P.'
_cell_length_a                     6.0483(7)
_cell_length_b                     9.3511(10)
_cell_length_c                     14.4874(18)
_cell_angle_alpha                  90.00
_cell_angle_beta                   90.00
_cell_angle_gamma                  90.00
_cell_volume                       819.38
_cell_formula_units_Z              2
_symmetry_space_group_name_H-M     'P m n n'
_symmetry_Int_Tables_number        58
_refine_ls_R_factor_all            .0419
loop_
_symmetry_equiv_pos_site_id
_symmetry_equiv_pos_as_xyz
  1	'x+.5, -y+.5, z+.5'
  2	'x+.5, y+.5, -z+.5'
  3	'-x, y, z'
  4	'-x, -y, -z'
  5	'-x+.5, y+.5, -z+.5'
  6	'-x+.5, -y+.5, z+.5'
  7	'x, -y, -z'
  8	'x, y, z'
loop_
_atom_type_symbol
_atom_type_oxidation_number
F1-	-1
K1+	1
Mo5+	5
O2-	-2
loop_
_atom_site_label
_atom_site_type_symbol
_atom_site_symmetry_multiplicity
_atom_site_Wyckoff_symbol
_atom_site_fract_x
_atom_site_fract_y
_atom_site_fract_z
_atom_site_occupancy
_atom_site_attached_hydrogens
_atom_site_U_iso_or_equiv
Mo1 Mo5+ 4 g 0.0000 0.06939(7) 0.16627(5) 1 0 0.0066(2) 
Mo2 Mo5+ 4 g 0.0000 0.25852(7) 0.04026(4) 1 0 0.0064(2) 
K1 K1+ 4 g 0.0000 -0.0670(2) 0.39399(13) 1 0 0.0163(4) 
K2 K1+ 4 g 0.0000 -0.34067(19) 0.20564(13) 1 0 0.0123(4) 
K3 K1+ 4 g -0.5000 -0.12457(19) 0.09012(12) 1 0 0.0099(4) 
F1 F1- 8 h 0.2366(6) 0.3414(3) -0.0447(2) 1 0 0.0101(7) 
F2 F1- 8 h 0.2208(6) -0.0632(3) 0.2258(2) 1 0 0.0109(7) 
F3 F1- 4 g 0.0000 -0.1117(5) 0.0744(3) 1 0 0.0105(10) 
O1 O2- 4 g 0.0000 0.4024(6) 0.1096(4) 1 0 0.0107(12) 
O2 O2- 4 g 0.0000 0.1761(6) 0.2603(4) 1 0 0.0128(13) 
O3 O2- 8 h 0.2381(7) 0.1410(4) 0.0897(3) 1 0 0.0103(9) 

loop_
_atom_site_aniso_label
_atom_site_aniso_type_symbol
_atom_site_aniso_U_11
_atom_site_aniso_U_22
_atom_site_aniso_U_33
_atom_site_aniso_U_12
_atom_site_aniso_U_13
_atom_site_aniso_U_23
Mo1 Mo5+ 0.0061(4) 0.0076(4) 0.0062(3) 0.000 0.000 -0.0002(3)
Mo2 Mo5+ 0.0055(4) 0.0078(3) 0.0060(3) 0.000 0.000 0.0001(2)
K1 K1+ 0.0149(10) 0.0209(10) 0.0130(9) 0.000 0.000 0.0010(8)
K2 K1+ 0.0125(9) 0.0127(9) 0.0118(9) 0.000 0.000 0.0007(7)
K3 K1+ 0.0092(9) 0.0103(8) 0.0101(8) 0.000 0.000 -0.0008(7)
F1 F1- 0.0099(17) 0.0128(16) 0.0077(15) -0.0005(14) 0.0024(13) 0.0023(12)
F2 F1- 0.0130(17) 0.0126(16) 0.0071(15) 0.0046(14) -0.0005(13) 0.0035(13)
F3 F1- 0.015(3) 0.010(2) 0.006(2) 0.000 0.000 -0.0018(19)
O1 O2- 0.012(3) 0.011(3) 0.009(3) 0.000 0.000 -0.001(2)
O2 O2- 0.014(3) 0.013(3) 0.012(3) 0.000 0.000 -0.002(2)
O3 O2- 0.010(2) 0.0115(19) 0.0089(19) 0.0017(18) 0.0009(16) 0.0010(16)
#End of data_424783-ICSD


