data_410178-ICSD
#?2014 by Fachinformationszentrum Karlsruhe, and the U.S. Secretary of 
#Commerce on behalf of the United States.  All rights reserved.
_database_code_ICSD                410178
_audit_creation_date               1999/06/02
_chemical_name_systematic          'Potassium Octathiopentaantimonate'
_chemical_formula_structural       'K (Sb5 S8)'
_chemical_formula_sum              'K1 S8 Sb5'
_publ_section_title
;
The crystal structures of K Sb5 S8 and (Tl0.598, K0.402) Sb5 S8 and 
their relation to parapierrotite(Tl Sb5 S8).
;
loop_
_citation_id
_citation_journal_abbrev
_citation_year
_citation_journal_volume
_citation_page_first
_citation_page_last
_citation_journal_id_ASTM
primary 'Zeitschrift fuer Kristallographie (1979-2010)' 1999 214 57 63 ZEKRDZ
_publ_author_name
;
Berlepsch, P.;Miletich, R.;Armbruster, T.
;
_cell_length_a                     8.1374(5)
_cell_length_b                     19.5013(5)
_cell_length_c                     9.0620(6)
_cell_angle_alpha                  90.
_cell_angle_beta                   91.932(5)
_cell_angle_gamma                  90.
_cell_volume                       1437.23
_cell_formula_units_Z              4
_symmetry_space_group_name_H-M     'P 1 n 1'
_symmetry_Int_Tables_number        7
_refine_ls_R_factor_all            .0475
loop_
_symmetry_equiv_pos_site_id
_symmetry_equiv_pos_as_xyz
  1	'x+.5, -y, z+.5'
  2	'x, y, z'
loop_
_atom_type_symbol
_atom_type_oxidation_number
K1+	1
S2-	-2
Sb3+	3
loop_
_atom_site_label
_atom_site_type_symbol
_atom_site_symmetry_multiplicity
_atom_site_Wyckoff_symbol
_atom_site_fract_x
_atom_site_fract_y
_atom_site_fract_z
_atom_site_occupancy
_atom_site_attached_hydrogens
Sb1 Sb3+ 2 a 0.0869(5) 0.22793(6) 0.2987(4) 1. 0 
Sb2 Sb3+ 2 a 0.4246(5) 0.35120(5) 0.2684(4) 1. 0 
Sb3 Sb3+ 2 a 0.0255(5) 0.45490(6) 0.4537(4) 1. 0 
Sb4 Sb3+ 2 a -.2564(5) 0.28841(5) 0.5505(4) 1. 0 
Sb5 Sb3+ 2 a 0.1299(5) 0.21434(5) 0.7416(4) 1. 0 
Sb6 Sb3+ 2 a -.1983(5) 0.25968(5) 0.9930(4) 1. 0 
Sb7 Sb3+ 2 a -.5799(5) 0.37250(5) 0.7942(4) 1. 0 
Sb8 Sb3+ 2 a 0.4885(5) 0.12801(6) 0.4728(4) 1. 0 
Sb9 Sb3+ 2 a 0.7957(5) 0.04589(5) 0.2083(4) 1. 0 
Sb10 Sb3+ 2 a 0.4313(5) 0.14892(6) 0.0340(4) 1. 0 
K1 K1+ 2 a 0 0.4419(2) 0 1. 0 
K2 K1+ 2 a -.1894(7) 0.05088(19) 0.7391(6) 1. 0 
S1 S2- 2 a 0.2915(7) 0.2784(2) 0.4688(6) 1. 0 
S2 S2- 2 a 0.2427(7) 0.2932(2) 0.0872(6) 1. 0 
S3 S2- 2 a 0.2745(7) 0.1096(2) 0.2821(6) 1. 0 
S4 S2- 2 a -.0390(7) 0.1664(2) 0.5434(6) 1. 0 
S5 S2- 2 a -.1074(7) 0.3416(2) 0.3386(6) 1. 0 
S6 S2- 2 a 0.2614(7) 0.4587(2) 0.2858(7) 1. 0 
S7 S2- 2 a -.0421(7) 0.3224(2) 0.7405(6) 1. 0 
S8 S2- 2 a -.3948(7) 0.4011(2) 0.5932(6) 1. 0 
S9 S2- 2 a -.0138(7) 0.1589(2) 0.9526(6) 1. 0 
S10 S2- 2 a -.4081(7) 0.2238(2) 0.8170(6) 1. 0 
S11 S2- 2 a -.3576(7) 0.1977(2) 0.2022(6) 1. 0 
S12 S2- 2 a -.4000(7) 0.4028(2) 0.0025(6) 1. 0 
S13 S2- 2 a -.6868(7) 0.4935(2) 0.7887(6) 1. 0 
S14 S2- 2 a 0.6280(7) 0.0178(2) 0.4236(6) 1. 0 
S15 S2- 2 a 0.3550(7) 0.0805(2) 0.6945(6) 1. 0 
S16 S2- 2 a 0.5797(7) 0.0357(2) 0.0189(6) 1. 0 

loop_
_atom_site_aniso_label
_atom_site_aniso_type_symbol
_atom_site_aniso_U_11
_atom_site_aniso_U_22
_atom_site_aniso_U_33
_atom_site_aniso_U_12
_atom_site_aniso_U_13
_atom_site_aniso_U_23
Sb1 Sb3+ 0.0219(6) 0.0367(7) 0.0170(6) -.0078(5) -.0017(5) -.0006(5)
Sb2 Sb3+ 0.0208(5) 0.0200(5) 0.0226(6) 0.0008(4) -.0013(5) 0.0020(4)
Sb3 Sb3+ 0.0330(6) 0.0349(6) 0.0204(6) 0.0046(5) 0.0007(5) 0.0059(5)
Sb4 Sb3+ 0.0190(5) 0.0206(6) 0.0181(5) -.0006(4) -.0011(4) -.0018(4)
Sb5 Sb3+ 0.0186(5) 0.0245(6) 0.0199(6) -.0005(4) 0.0006(5) 0.0027(5)
Sb6 Sb3+ 0.0216(5) 0.0222(6) 0.0177(5) -.0030(4) -.0006(4) -.0013(4)
Sb7 Sb3+ 0.0201(5) 0.0202(5) 0.0192(5) -.0017(4) 0.0011(4) -.0022(4)
Sb8 Sb3+ 0.0229(6) 0.0201(5) 0.0185(5) 0.0007(4) 0.0009(4) -.0004(4)
Sb9 Sb3+ 0.0206(5) 0.0231(5) 0.0240(6) 0.0006(4) 0.0011(4) -.0006(4)
Sb10 Sb3+ 0.0214(5) 0.0231(6) 0.0288(6) 0.0003(4) -.0050(5) -.0015(5)
K1 K1+ 0.030(2) 0.035(2) 0.033(2) -.0009(16) -.0013(17) -.0064(17)
K2 K1+ 0.040(2) 0.030(2) 0.022(2) -.0044(16) -.0032(17) 0.0001(15)
S1 S2- 0.019(2) 0.028(2) 0.0116(19) -.0046(17) -.0022(16) 0.0002(16)
S2 S2- 0.023(2) 0.027(2) 0.016(2) -.0040(16) 0.0019(17) -.0026(16)
S3 S2- 0.0190(19) 0.024(2) 0.0167(19) 0.0018(14) 0.0029(15) -.0003(15)
S4 S2- 0.027(2) 0.024(2) 0.0158(19) -.0052(16) 0.0019(16) -.0008(15)
S5 S2- 0.018(2) 0.023(2) 0.018(2) -.0003(15) 0.0020(16) 0.0019(15)
S6 S2- 0.025(2) 0.024(2) 0.037(3) 0.0049(16) 0.0004(19) 0.0023(18)
S7 S2- 0.021(2) 0.0187(19) 0.020(2) -.0002(14) -.0008(16) -.0001(15)
S8 S2- 0.026(2) 0.0208(19) 0.020(2) -.0005(15) 0.0067(17) 0.0024(15)
S9 S2- 0.026(2) 0.018(2) 0.020(2) -.0006(16) 0.0024(17) 0.0028(15)
S10 S2- 0.022(2) 0.034(2) 0.017(2) -.0078(17) 0.0008(18) -.0012(17)
S11 S2- 0.021(2) 0.029(2) 0.014(2) -.0073(16) 0.0008(17) -.0010(16)
S12 S2- 0.028(2) 0.026(2) 0.020(2) -.0038(17) -.0001(17) 0.0002(16)
S13 S2- 0.023(2) 0.025(2) 0.024(2) 0.0034(16) -.0008(17) -.0028(16)
S14 S2- 0.026(2) 0.022(2) 0.018(2) 0.0037(15) -.0012(17) -.0001(15)
S15 S2- 0.033(2) 0.021(2) 0.018(2) -.0070(16) 0.0051(18) -.0011(16)
S16 S2- 0.029(2) 0.024(2) 0.020(2) 0.0022(16) -.0060(17) 0.0003(16)
#End of data_410178-ICSD


