data_42533-ICSD
#?2014 by Fachinformationszentrum Karlsruhe, and the U.S. Secretary of 
#Commerce on behalf of the United States.  All rights reserved.
_database_code_ICSD                42533
_audit_creation_date               2000/07/15
_chemical_name_systematic
;
Octasilver Tetrathiostannate Disulfide
;
_chemical_formula_structural       'Ag8 (Sn S4) S2'
_chemical_formula_sum              'Ag8 S6 Sn1'
_chemical_name_mineral             Canfieldite
_publ_section_title
;
New data for Ag8 Sn S6 (canfieldite) and Ag8 Ge S6 (argyrodite)
;
loop_
_citation_id
_citation_journal_abbrev
_citation_year
_citation_journal_volume
_citation_page_first
_citation_page_last
_citation_journal_id_ASTM
primary 'Neues Jahrbuch fuer Mineralogie. Monatshefte (Band=Jahr) (1950-)'
 1978 1978 269 272 NJMMAW
_publ_author_name                  'Wang, N.'
_cell_length_a                     15.298(2)
_cell_length_b                     7.548(2)
_cell_length_c                     10.699(2)
_cell_angle_alpha                  90.
_cell_angle_beta                   90.
_cell_angle_gamma                  90.
_cell_volume                       1235.41
_cell_formula_units_Z              4
_symmetry_space_group_name_H-M     'P n a 21'
_symmetry_Int_Tables_number        33
loop_
_symmetry_equiv_pos_site_id
_symmetry_equiv_pos_as_xyz
  1	'x+.5, -y+.5, z'
  2	'-x+.5, y+.5, z+.5'
  3	'-x, -y, z+.5'
  4	'x, y, z'
loop_
_atom_type_symbol
_atom_type_oxidation_number
Ag1+	1
S2-	-2
Sn4+	4
loop_
_atom_site_label
_atom_site_type_symbol
_atom_site_symmetry_multiplicity
_atom_site_Wyckoff_symbol
_atom_site_fract_x
_atom_site_fract_y
_atom_site_fract_z
_atom_site_occupancy
_atom_site_attached_hydrogens
Ag1 Ag1+ 4 a 0.127 0.2231 0.3766 1. 0 
Ag2 Ag1+ 4 a 0.0622 0.2257 0.8373 1. 0 
Ag3 Ag1+ 4 a 0.4323 0.0617 0.019 1. 0 
Ag4 Ag1+ 4 a 0.2763 0.5 0.0822 1. 0 
Ag5 Ag1+ 4 a 0.4187 0.0908 0.6964 1. 0 
Ag6 Ag1+ 4 a 0.2727 0.3842 0.6874 1. 0 
Ag7 Ag1+ 4 a 0.0169 0.0104 0.6025 1. 0 
Ag8 Ag1+ 4 a 0.2588 0.1277 0.9059 1. 0 
Sn1 Sn4+ 4 a 0.3757 0.2285 0.352 1. 0 
S1 S2- 4 a 0.1225 0.49 0.975 1. 0 
S2 S2- 4 a -.0046 0.27 0.232 1. 0 
S3 S2- 4 a 0.3726 0.4684 0.4766 1. 0 
S4 S2- 4 a 0.2582 0.2335 0.23 1. 0 
S5 S2- 4 a 0.3864 0.3131 0.8655 1. 0 
S6 S2- 4 a 0.1224 0.2668 0.6115 1. 0 

#End of data_42533-ICSD


