data_407357-ICSD
#?2014 by Fachinformationszentrum Karlsruhe, and the U.S. Secretary of 
#Commerce on behalf of the United States.  All rights reserved.
_database_code_ICSD                407357
_audit_creation_date               1999/06/02
_chemical_name_systematic
;
Tripotassium Pentaaluminium Hexakis(hydrogenphosphate(V)) 
Bis(phosphate(V)) Dodecahydrate
;
_chemical_formula_structural       'K3 Al5 (H P O4)6 (P O4)2 (H2 O)12'
_chemical_formula_sum              'H30 Al5 K3 O44 P8'
_chemical_name_mineral             Francoanellite
_publ_section_title
;
Francoanellit K3 Al5 (H P O4)6 (P O4)2 * 12H2O: Struktur und Synthese 
durch topochemische Entwaesserung von Taranakit
;
loop_
_citation_id
_citation_journal_abbrev
_citation_year
_citation_journal_volume
_citation_page_first
_citation_page_last
_citation_journal_id_ASTM
primary 'Zeitschrift fuer Naturforschung, B: Chemical Sciences'
 1998 53 711 719 ZNBSEN
_publ_author_name                  'Dick, S.;Zeiske, T.'
_cell_length_a                     8.6897(16)
_cell_length_b                     8.6897(16)
_cell_length_c                     82.271(13)
_cell_angle_alpha                  90.
_cell_angle_beta                   90.
_cell_angle_gamma                  120.
_cell_volume                       5380.06
_cell_formula_units_Z              6
_symmetry_space_group_name_H-M     'R -3 c H'
_symmetry_Int_Tables_number        167
_refine_ls_R_factor_all            .0741
loop_
_symmetry_equiv_pos_site_id
_symmetry_equiv_pos_as_xyz
  1	'x-y, -y, -z+.5'
  2	'-x, -x+y, -z+.5'
  3	'y, x, -z+.5'
  4	'x-y, x, -z'
  5	'y, -x+y, -z'
  6	'-x, -y, -z'
  7	'-x+y, y, z+.5'
  8	'x, x-y, z+.5'
  9	'-y, -x, z+.5'
 10	'-x+y, -x, z'
 11	'-y, x-y, z'
 12	'x, y, z'
 13	'x-y+.6666, -y+.3333, -z+.8333'
 14	'x-y+.3333, -y+.6666, -z+.1666'
 15	'-x+.6666, -x+y+.3333, -z+.8333'
 16	'-x+.3333, -x+y+.6666, -z+.1666'
 17	'y+.6666, x+.3333, -z+.8333'
 18	'y+.3333, x+.6666, -z+.1666'
 19	'x-y+.6666, x+.3333, -z+.3333'
 20	'x-y+.3333, x+.6666, -z+.6666'
 21	'y+.6666, -x+y+.3333, -z+.3333'
 22	'y+.3333, -x+y+.6666, -z+.6666'
 23	'-x+.6666, -y+.3333, -z+.3333'
 24	'-x+.3333, -y+.6666, -z+.6666'
 25	'-x+y+.6666, y+.3333, z+.8333'
 26	'-x+y+.3333, y+.6666, z+.1666'
 27	'x+.6666, x-y+.3333, z+.8333'
 28	'x+.3333, x-y+.6666, z+.1666'
 29	'-y+.6666, -x+.3333, z+.8333'
 30	'-y+.3333, -x+.6666, z+.1666'
 31	'-x+y+.6666, -x+.3333, z+.3333'
 32	'-x+y+.3333, -x+.6666, z+.6666'
 33	'-y+.6666, x-y+.3333, z+.3333'
 34	'-y+.3333, x-y+.6666, z+.6666'
 35	'x+.6666, y+.3333, z+.3333'
 36	'x+.3333, y+.6666, z+.6666'
loop_
_atom_type_symbol
_atom_type_oxidation_number
Al3+	3
H1+	1
K1+	1
O2-	-2
P5+	5
loop_
_atom_site_label
_atom_site_type_symbol
_atom_site_symmetry_multiplicity
_atom_site_Wyckoff_symbol
_atom_site_fract_x
_atom_site_fract_y
_atom_site_fract_z
_atom_site_occupancy
_atom_site_attached_hydrogens
_atom_site_U_iso_or_equiv
K1 K1+ 18 e 0 0.42287(16) 0.25 1. 0 0 
Al1 Al3+ 6 a 0 0 0.25 1. 0 0 
Al2 Al3+ 12 c 0 0 0.54330(3) 1. 0 0 
Al3 Al3+ 12 c 0 0 0.30421(3) 1. 0 0 
P1 P5+ 36 f 0.76196(14) 0.04415(14) 0.27664(1) 1. 0 0 
P2 P5+ 12 c 0 0 0.64366(2) 1. 0 0 
O1 O2- 36 f 0.89217(37) 0.09838(36) 0.26291(3) 1. 0 0 
O2 O2- 36 f 0.83698(36) 0.03580(36) 0.29290(3) 1. 0 0 
O3 O2- 36 f 0.59953(38) -.14531(36) 0.27221(4) 1. 0 0 
O4 O2- 36 f 0.68993(36) 0.17209(36) 0.27729(3) 1. 0 0 
O5 O2- 12 c 0 0 0.62468(6) 1. 0 0 
O6 O2- 36 f 0.15745(37) 0.17561(38) 0.64996(3) 1. 0 0 
O7 O2- 36 f -.19053(41) -.16016(39) 0.52876(4) 1. 0 0 
O8 O2- 36 f -.19571(41) -.14995(43) 0.31833(4) 1. 0 0 
H1 H1+ 36 f -.5036(62) -.2089(65) 0.28102(58) 1. 0 0.049(16) 
H2 H1+ 36 f -.2713(81) -.136(10) 0.52216(74) 1. 0 0.113(20) 
H3 H1+ 36 f -.2247(90) -.2727(65) 0.52438(84) 1. 0 0.113(20) 
H4 H1+ 36 f -.2706(69) -.1403(80) 0.31795(65) 1. 0 0.041(12) 
H5 H1+ 36 f -.1701(66) -.1698(70) 0.32893(56) 1. 0 0.041(12) 

loop_
_atom_site_aniso_label
_atom_site_aniso_type_symbol
_atom_site_aniso_U_11
_atom_site_aniso_U_22
_atom_site_aniso_U_33
_atom_site_aniso_U_12
_atom_site_aniso_U_13
_atom_site_aniso_U_23
K1 K1+ 0.03170(94) 0.01774(55) 0.03042(85) 0.01585(47) -.00144(69) 
-.00072(34)
Al1 Al3+ 0.00846(93) 0.00846(93) 0.0082(15) 0.00423(46) 0 0
Al2 Al3+ 0.01128(68) 0.01128(68) 0.0157(12) 0.00564(34) 0 0
Al3 Al3+ 0.00872(62) 0.00872(62) 0.0111(11) 0.00436(31) 0 0
P1 P5+ 0.00783(53) 0.00792(56) 0.01168(52) 0.00450(46) 0.00039(44) 
0.00033(43)
P2 P5+ 0.00783(56) 0.00783(56) 0.0159(10) 0.00391(28) 0 0
O1 O2- 0.0105(15) 0.0086(15) 0.0132(13) 0.0064(12) 0.0006(13) 0.0008(13)
O2 O2- 0.0159(17) 0.0181(17) 0.0131(15) 0.0099(14) 0.0009(12) 0.0028(13)
O3 O2- 0.0103(15) 0.0112(15) 0.0225(17) 0.0011(13) 0.0020(14) -.0046(13)
O4 O2- 0.0163(16) 0.0129(16) 0.0207(16) 0.0106(14) -.0020(13) -.0019(13)
O5 O2- 0.0096(15) 0.0096(15) 0.0158(25) 0.00482(74) 0 0
O6 O2- 0.0140(16) 0.0129(16) 0.0193(16) 0.0060(13) -.0048(13) -.0023(13)
O7 O2- 0.0178(17) 0.0138(17) 0.0265(18) 0.0048(14) -.0086(15) -.0062(14)
O8 O2- 0.0108(16) 0.0210(18) 0.0134(15) 0.0070(14) 0.0017(14) 0.0018(13)
#End of data_407357-ICSD


