data_67387-ICSD
#?2014 by Fachinformationszentrum Karlsruhe, and the U.S. Secretary of 
#Commerce on behalf of the United States.  All rights reserved.
_database_code_ICSD                67387
_audit_creation_date               1990/12/27
_chemical_name_systematic          'Dipotassium Cobalt Sulfide'
_chemical_formula_structural       'K2 Co S2'
_chemical_formula_sum              'Co1 K2 S2'
_publ_section_title
;
Ternaere cobaltchalcogenide A2CoX2 mit A=Na, K, Rb, Cs und X=S, Se. 
Synthese, Struktur und Magnetismus
;
loop_
_citation_id
_citation_journal_abbrev
_citation_year
_citation_journal_volume
_citation_page_first
_citation_page_last
_citation_journal_id_ASTM
primary 'Journal of the Less-Common Metals' 1990 158 169 176 JCOMAH
_publ_author_name                  'Bronger, W.;Bomba, C.'
_cell_length_a                     6.710(2)
_cell_length_b                     12.491(5)
_cell_length_c                     6.085(2)
_cell_angle_alpha                  90.
_cell_angle_beta                   90.
_cell_angle_gamma                  90.
_cell_volume                       510.01
_cell_formula_units_Z              4
_symmetry_space_group_name_H-M     'I b a m'
_symmetry_Int_Tables_number        72
_refine_ls_R_factor_all            .032
loop_
_symmetry_equiv_pos_site_id
_symmetry_equiv_pos_as_xyz
  1	'-x, y, z+.5'
  2	'x, -y, z+.5'
  3	'x, y, -z'
  4	'-x, -y, -z'
  5	'x, -y, -z+.5'
  6	'-x, y, -z+.5'
  7	'-x, -y, z'
  8	'x, y, z'
  9	'-x+.5, y+.5, z'
 10	'x+.5, -y+.5, z'
 11	'x+.5, y+.5, -z+.5'
 12	'-x+.5, -y+.5, -z+.5'
 13	'x+.5, -y+.5, -z'
 14	'-x+.5, y+.5, -z'
 15	'-x+.5, -y+.5, z+.5'
 16	'x+.5, y+.5, z+.5'
loop_
_atom_type_symbol
_atom_type_oxidation_number
Co2+	2
K1+	1
S2-	-2
loop_
_atom_site_label
_atom_site_type_symbol
_atom_site_symmetry_multiplicity
_atom_site_Wyckoff_symbol
_atom_site_fract_x
_atom_site_fract_y
_atom_site_fract_z
_atom_site_occupancy
_atom_site_attached_hydrogens
K1 K1+ 8 j 0.3390(2) 0.1473(1) 0 1. 0 
Co1 Co2+ 4 a 0 0 0.25 1. 0 
S1 S2- 8 j 0.1853(2) 0.8989(1) 0 1. 0 

loop_
_atom_site_aniso_label
_atom_site_aniso_type_symbol
_atom_site_aniso_U_11
_atom_site_aniso_U_22
_atom_site_aniso_U_33
_atom_site_aniso_U_12
_atom_site_aniso_U_13
_atom_site_aniso_U_23
K1 K1+ 0.0216(4) 0.0207(4) 0.0228(4) -.0027(4) 0 0
Co1 Co2+ 0.0128(3) 0.0139(3) 0.0127(3) 0 0 0
S1 S2- 0.0177(4) 0.0161(4) 0.0139(4) 0.0061(3) 0 0
#End of data_67387-ICSD


