data_26337-ICSD
#?2014 by Fachinformationszentrum Karlsruhe, and the U.S. Secretary of 
#Commerce on behalf of the United States.  All rights reserved.
_database_code_ICSD                26337
_audit_creation_date               1984/09/05
_audit_update_record               2006/04/01
_chemical_name_systematic          'Lithium Rubidium Sulfate(VI) - V'
_chemical_formula_structural       'Li Rb (S O4)'
_chemical_formula_sum              'Li1 O4 Rb1 S1'
_publ_section_title
;
Room-temperature phase of lithium rubidium sulphate
;
loop_
_citation_id
_citation_journal_abbrev
_citation_year
_citation_journal_volume
_citation_page_first
_citation_page_last
_citation_journal_id_ASTM
primary 'Acta Crystallographica B (24,1968-38,1982)' 1980 36 3084 3085 ACBCAR
2 'Phase Transition' 1992 38 127 220 PHTRDP
_publ_author_name
;
Tanisaki, S.;Mashiyama, H.;Hasebe, K.;Shiroishi, Y.;Sawada, S.
;
_cell_length_a                     5.288(1)
_cell_length_b                     9.105(1)
_cell_length_c                     8.731(1)
_cell_angle_alpha                  90.
_cell_angle_beta                   90.
_cell_angle_gamma                  90.09(2)
_cell_volume                       420.37
_cell_formula_units_Z              4
_symmetry_space_group_name_H-M     'P 1 1 21/n'
_symmetry_Int_Tables_number        14
_refine_ls_R_factor_all            .047
loop_
_symmetry_equiv_pos_site_id
_symmetry_equiv_pos_as_xyz
  1	'x+.5, y+.5, -z+.5'
  2	'-x, -y, -z'
  3	'-x+.5, -y+.5, z+.5'
  4	'x, y, z'
loop_
_atom_type_symbol
_atom_type_oxidation_number
Li1+	1
O2-	-2
Rb1+	1
S6+	6
loop_
_atom_site_label
_atom_site_type_symbol
_atom_site_symmetry_multiplicity
_atom_site_Wyckoff_symbol
_atom_site_fract_x
_atom_site_fract_y
_atom_site_fract_z
_atom_site_occupancy
_atom_site_attached_hydrogens
Rb1 Rb1+ 4 e 0.7355(1) 0.2225(1) 0.5043(1) 1. 0 
Li1 Li1+ 4 e 0.2434(20) 0.4103(11) 0.3242(10) 1. 0 
S1 S6+ 4 e 0.2466(2) 0.0778(1) 0.2064(1) 1. 0 
O1 O2- 4 e 0.2556(8) 0.0932(6) 0.0408(4) 1. 0 
O2 O2- 4 e 0.1491(7) 0.2132(4) 0.2739(5) 1. 0 
O3 O2- 4 e 0.5035(6) 0.0482(4) 0.2655(4) 1. 0 
O4 O2- 4 e 0.0794(7) -.0448(4) 0.2477(5) 1. 0 

#End of data_26337-ICSD


