data_94647-ICSD
#?2014 by Fachinformationszentrum Karlsruhe, and the U.S. Secretary of 
#Commerce on behalf of the United States.  All rights reserved.
_database_code_ICSD                94647
_audit_creation_date               2003/10/01
_chemical_name_systematic          'Silver Antimony Sulfide'
_chemical_formula_structural       'Ag Sb S2'
_chemical_formula_sum              'Ag1 S2 Sb1'
_chemical_name_mineral             Miargyrite
_publ_section_title
;
The new mineral baumstarkite and a structural reinvestigation of 
aramayoite and miargyrite
;
loop_
_citation_id
_citation_journal_abbrev
_citation_year
_citation_journal_volume
_citation_page_first
_citation_page_last
_citation_journal_id_ASTM
primary 'American Mineralogist' 2002 87 753 764 AMMIAY
_publ_author_name
;
Effenberger, H.;Paar, W.H.;Topa, D.;Criddle, A.J.;Fleck, M.
;
_cell_length_a                     12.862(3)
_cell_length_b                     4.409(1)
_cell_length_c                     13.218(3)
_cell_angle_alpha                  90
_cell_angle_beta                   98.48(2)
_cell_angle_gamma                  90
_cell_volume                       741.38
_cell_formula_units_Z              8
_symmetry_space_group_name_H-M     'C 1 2/c 1'
_symmetry_Int_Tables_number        15
_refine_ls_R_factor_all            .031
loop_
_symmetry_equiv_pos_site_id
_symmetry_equiv_pos_as_xyz
  1	'x, -y, z+.5'
  2	'-x, -y, -z'
  3	'-x, y, -z+.5'
  4	'x, y, z'
  5	'x+.5, -y+.5, z+.5'
  6	'-x+.5, -y+.5, -z'
  7	'-x+.5, y+.5, -z+.5'
  8	'x+.5, y+.5, z'
loop_
_atom_type_symbol
_atom_type_oxidation_number
Ag1+	1
S2-	-2
Sb3+	3
loop_
_atom_site_label
_atom_site_type_symbol
_atom_site_symmetry_multiplicity
_atom_site_Wyckoff_symbol
_atom_site_fract_x
_atom_site_fract_y
_atom_site_fract_z
_atom_site_occupancy
_atom_site_attached_hydrogens
_atom_site_U_iso_or_equiv
Ag1 Ag1+ 4 e 0 0.02945(14) 0.250 1. 0 0.03479(17) 
Ag2 Ag1+ 4 b 0 0.5 0.5 1. 0 0.04345(19) 
Sb1 Sb3+ 8 f 0.25550(2) -.03358(7) 0.62662(2) 1. 0 0.01811(14) 
S1 S2- 8 f 0.14337(7) 0.3510(2) 0.69954(7) 1. 0 0.0183(2) 
S2 S2- 8 f 0.11173(7) 0.1796(2) 0.41767(7) 1. 0 0.0212(2) 

loop_
_atom_site_aniso_label
_atom_site_aniso_type_symbol
_atom_site_aniso_U_11
_atom_site_aniso_U_22
_atom_site_aniso_U_33
_atom_site_aniso_U_12
_atom_site_aniso_U_13
_atom_site_aniso_U_23
Ag1 Ag1+ 0.0250(3) 0.0439(3) 0.0344(3) 0. 0.0005(2) 0.
Ag2 Ag1+ 0.0346(4) 0.0593(4) 0.0392(4) 0.0157(3) 0.0145(3) -0.0106(3)
Sb1 Sb3+ 0.0218(2) 0.0184(2) 0.0148(2) -0.00022(9) 0.00464(12) -0.00050(8)
S1 S2- 0.0180(4) 0.0203(5) 0.0170(4) -0.0005(3) 0.0041(3) -0.0004(3)
S2 S2- 0.0207(4) 0.0237(5) 0.0210(4) 0.0012(4) 0.0084(3) 0.0017(3)
#End of data_94647-ICSD


