data_14100-ICSD
#?2014 by Fachinformationszentrum Karlsruhe, and the U.S. Secretary of 
#Commerce on behalf of the United States.  All rights reserved.
_database_code_ICSD                14100
_audit_creation_date               1980/12/31
_chemical_name_systematic          'Silver Iodate'
_chemical_formula_structural       'Ag I O3'
_chemical_formula_sum              'Ag1 I1 O3'
_publ_section_title
;
Preparation chimique et structure cristalline de l'iodate d'argent Ag 
I O3
;
loop_
_citation_id
_citation_journal_abbrev
_citation_year
_citation_journal_volume
_citation_page_first
_citation_page_last
_citation_journal_id_ASTM
primary 'Journal of Solid State Chemistry' 1980 32 177 180 JSSCBI
_publ_author_name                  'Masse, R.;Guitel, J.C.'
_cell_length_a                     7.265(2)
_cell_length_b                     15.17(4)
_cell_length_c                     5.786(2)
_cell_angle_alpha                  90.
_cell_angle_beta                   90.
_cell_angle_gamma                  90.
_cell_volume                       637.68
_cell_formula_units_Z              8
_symmetry_space_group_name_H-M     'P b c 21'
_symmetry_Int_Tables_number        29
_refine_ls_R_factor_all            .051
loop_
_symmetry_equiv_pos_site_id
_symmetry_equiv_pos_as_xyz
  1	'-x, y+.5, z'
  2	'x, -y+.5, z+.5'
  3	'-x, -y, z+.5'
  4	'x, y, z'
loop_
_atom_type_symbol
_atom_type_oxidation_number
Ag1+	1
I5+	5
O2-	-2
loop_
_atom_site_label
_atom_site_type_symbol
_atom_site_symmetry_multiplicity
_atom_site_Wyckoff_symbol
_atom_site_fract_x
_atom_site_fract_y
_atom_site_fract_z
_atom_site_occupancy
_atom_site_attached_hydrogens
Ag1 Ag1+ 4 a 0.3923(1) 0.29624(7) 0 1. 0 
Ag2 Ag1+ 4 a 0.8704(1) 0.29357(7) 0.0068(3) 1. 0 
I1 I5+ 4 a 0.1309(1) 0.41146(6) 0.3969(4) 1. 0 
I2 I5+ 4 a 0.6353(1) 0.41018(5) 0.4787(4) 1. 0 
O1 O2- 4 a 0.440(1) 0.3916(8) 0.679(2) 1. 0 
O2 O2- 4 a 0.324(1) 0.4359(7) 0.209(2) 1. 0 
O3 O2- 4 a 0.829(1) 0.3814(7) 0.671(2) 1. 0 
O4 O2- 4 a -.058(1) 0.4352(6) 0.209(2) 1. 0 
O5 O2- 4 a 0.135(1) 0.2931(6) 0.355(3) 1. 0 
O6 O2- 4 a 0.627(1) 0.3057(6) 0.331(2) 1. 0 

#End of data_14100-ICSD


