data_411378-ICSD
#?2014 by Fachinformationszentrum Karlsruhe, and the U.S. Secretary of 
#Commerce on behalf of the United States.  All rights reserved.
_database_code_ICSD                411378
_audit_creation_date               2002/04/01
_audit_update_record               2006/04/01
_chemical_name_systematic          'Zinc Molybdate'
_chemical_formula_structural       'Zn (Mo O4)'
_chemical_formula_sum              'Mo1 O4 Zn1'
_publ_section_title
;
Mischkristallbildung im System Cu Mo O4 - Zn Mo O4
;
loop_
_citation_id
_citation_journal_abbrev
_citation_year
_citation_journal_volume
_citation_page_first
_citation_page_last
_citation_journal_id_ASTM
primary 'Zeitschrift fuer Anorganische und Allgemeine Chemie (1950) (DE)'
 2000 626 2020 2027 ZAACAB
2 'Golden Book of Phase Transitions, Wroclaw' 2002 1 1 123 GBOPT5
_publ_author_name
;
Reichelt, W.;Weber, T.;Soehnel, T.;Daebritz, S.
;
_cell_length_a                     6.9661(6)
_cell_length_b                     8.3705(8)
_cell_length_c                     9.6850(9)
_cell_angle_alpha                  96.736(7)
_cell_angle_beta                   106.871(7)
_cell_angle_gamma                  101.728(7)
_cell_volume                       519.69
_cell_formula_units_Z              6
_symmetry_space_group_name_H-M     'P -1'
_symmetry_Int_Tables_number        2
_refine_ls_R_factor_all            .034
loop_
_symmetry_equiv_pos_site_id
_symmetry_equiv_pos_as_xyz
  1	'-x, -y, -z'
  2	'x, y, z'
loop_
_atom_type_symbol
_atom_type_oxidation_number
Mo6+	6
O2-	-2
Zn2+	2
loop_
_atom_site_label
_atom_site_type_symbol
_atom_site_symmetry_multiplicity
_atom_site_Wyckoff_symbol
_atom_site_fract_x
_atom_site_fract_y
_atom_site_fract_z
_atom_site_occupancy
_atom_site_attached_hydrogens
Mo1 Mo6+ 2 i 0.02074(5) 0.29567(4) 0.62502(3) 1. 0 
Mo2 Mo6+ 2 i 0.29993(5) 0.39620(4) 0.15916(3) 1. 0 
Mo3 Mo6+ 2 i 0.49512(5) 0.01163(4) 0.24413(3) 1. 0 
Zn1 Zn2+ 2 i 0.03219(7) 0.11236(5) 0.28634(5) 1. 0 
Zn2 Zn2+ 2 i 0.46445(7) 0.30549(5) 0.51184(5) 1. 0 
Zn3 Zn2+ 2 i 0.74919(7) 0.30537(5) 0.09091(5) 1. 0 
O1 O2- 2 i 0.0222(5) 0.1255(4) 0.7161(4) 1. 0 
O2 O2- 2 i 0.0491(4) 0.2670(4) 0.1410(3) 1. 0 
O3 O2- 2 i 0.1488(5) 0.4808(4) 0.7508(4) 1. 0 
O4 O2- 2 i 0.1409(5) 0.2696(4) 0.4843(3) 1. 0 
O5 O2- 2 i 0.2534(5) 0.5600(4) 0.0722(4) 1. 0 
O6 O2- 2 i 0.2356(5) 0.7032(5) 0.4619(4) 1. 0 
O7 O2- 2 i 0.3504(4) 0.1380(4) 0.3169(3) 1. 0 
O8 O2- 2 i 0.3414(5) 0.9046(4) 0.0719(3) 1. 0 
O9 O2- 2 i 0.4497(5) 0.1322(4) 0.6454(4) 1. 0 
O10 O2- 2 i 0.4450(5) 0.4787(4) 0.3488(3) 1. 0 
O11 O2- 2 i 0.4418(5) 0.2907(4) 0.0754(3) 1. 0 
O12 O2- 2 i 0.7349(4) 0.1320(4) 0.2362(3) 1. 0 

loop_
_atom_site_aniso_label
_atom_site_aniso_type_symbol
_atom_site_aniso_U_11
_atom_site_aniso_U_22
_atom_site_aniso_U_33
_atom_site_aniso_U_12
_atom_site_aniso_U_13
_atom_site_aniso_U_23
Mo1 Mo6+ 0.01296(16) 0.00858(16) 0.01382(16) 0.00206(10) 0.00483(11) 
0.00103(11)
Mo2 Mo6+ 0.01196(16) 0.00994(16) 0.01140(16) 0.00129(11) 0.00411(11) 
0.00207(11)
Mo3 Mo6+ 0.01236(16) 0.00902(16) 0.01239(16) 0.00225(11) 0.00478(11) 
0.00215(11)
Zn1 Zn2+ 0.0137(2) 0.0109(2) 0.0159(2) 0.00203(15) 0.00462(16) 0.00411(15)
Zn2 Zn2+ 0.0142(2) 0.0106(2) 0.0133(2) 0.00224(15) 0.00345(15) 0.00077(15)
Zn3 Zn2+ 0.0143(2) 0.0102(2) 0.0138(2) 0.00233(15) 0.00433(16) 0.00257(16)
O1 O2- 0.0308(16) 0.0127(13) 0.0334(17) 0.0048(12) 0.0132(14) 0.0105(12)
O2 O2- 0.0138(12) 0.0135(12) 0.0181(12) 0.0027(10) 0.0035(10) 0.0074(10)
O3 O2- 0.0320(16) 0.0115(13) 0.0218(14) -.0005(11) 0.0089(12) -.0030(11)
O4 O2- 0.0155(12) 0.0181(13) 0.0174(12) 0.0035(10) 0.0058(10) 0.0029(10)
O5 O2- 0.0268(15) 0.0177(14) 0.0208(13) 0.0033(11) 0.0063(12) 0.0095(11)
O6 O2- 0.0189(14) 0.0372(19) 0.0251(15) 0.0111(13) 0.0090(12) 0.0076(14)
O7 O2- 0.0156(12) 0.0159(13) 0.0184(13) 0.004(1) 0.0057(10) -.0004(10)
O8 O2- 0.0230(14) 0.0126(12) 0.0172(12) 0.0015(10) 0.0059(11) -.0017(10)
O9 O2- 0.0265(16) 0.0220(15) 0.0311(16) 0.0087(12) 0.0108(13) 0.0158(13)
O10 O2- 0.0199(13) 0.0115(12) 0.0140(12) 0.0007(10) 0.0031(10) -.0024(10)
O11 O2- 0.0174(13) 0.0222(14) 0.0195(13) 0.0038(11) 0.0076(11) -.0024(11)
O12 O2- 0.0149(12) 0.0128(12) 0.0166(12) 0.0026(10) 0.0045(10) 0.0044(10)
#End of data_411378-ICSD


