data_83843-ICSD
#?2014 by Fachinformationszentrum Karlsruhe, and the U.S. Secretary of 
#Commerce on behalf of the United States.  All rights reserved.
_database_code_ICSD                83843
_audit_creation_date               1999/01/19
_chemical_name_systematic          'Dipotassium Tetratellurate(IV)'
_chemical_formula_structural       'K2 (Te4 O9)'
_chemical_formula_sum              'K2 O9 Te4'
_publ_section_title
;
Crystal structures of potassium tetratellurite, K2 Te4 O9, and 
potassium ditellurite, K2 Te2 O5, and structural trends in solid 
alkali tellurites
;
loop_
_citation_id
_citation_journal_abbrev
_citation_year
_citation_journal_volume
_citation_page_first
_citation_page_last
_citation_journal_id_ASTM
primary 'Inorganic Chemistry' 1997 36 5559 5564 INOCAJ
_publ_author_name
;
Becker, C.R.;Tagg, S.L.;Huffman, J.C.;Zwanziger, J.W.
;
_cell_length_a                     7.572(1)
_cell_length_b                     17.821(3)
_cell_length_c                     7.829(1)
_cell_angle_alpha                  90.
_cell_angle_beta                   108.62(1)
_cell_angle_gamma                  90.
_cell_volume                       1001.15
_cell_formula_units_Z              4
_symmetry_space_group_name_H-M     'P 1 21/c 1'
_symmetry_Int_Tables_number        14
_refine_ls_R_factor_all            .028
loop_
_symmetry_equiv_pos_site_id
_symmetry_equiv_pos_as_xyz
  1	'x, -y+.5, z+.5'
  2	'-x, -y, -z'
  3	'-x, y+.5, -z+.5'
  4	'x, y, z'
loop_
_atom_type_symbol
_atom_type_oxidation_number
K1+	1
O2-	-2
Te4+	4
loop_
_atom_site_label
_atom_site_type_symbol
_atom_site_symmetry_multiplicity
_atom_site_Wyckoff_symbol
_atom_site_fract_x
_atom_site_fract_y
_atom_site_fract_z
_atom_site_occupancy
_atom_site_attached_hydrogens
_atom_site_U_iso_or_equiv
Te1 Te4+ 4 e 0.3947(1) 0.41639(3) 0.4051(1) 1. 0 0.00533(17) 
Te2 Te4+ 4 e 0.8313(1) 0.41151(4) 0.3360(1) 1. 0 0.00590(17) 
Te3 Te4+ 4 e 0.3633(1) 0.42160(4) 0.8498(1) 1. 0 0.00617(17) 
Te4 Te4+ 4 e 0.6209(1) 0.24056(3) 0.5495(1) 1. 0 0.00550(17) 
K1 K1+ 4 e 0.1555(3) 0.2554(1) 0.6223(3) 1. 0 0.0087(6) 
K2 K1+ 4 e 0.8812(3) 0.4088(1) 0.8689(3) 1. 0 0.0113(6) 
O1 O2- 4 e 0.6079(9) 0.4440(4) 0.5871(9) 1. 0 0.0080(19) 
O2 O2- 4 e 0.4095(10) 0.3083(4) 0.4172(9) 1. 0 0.0077(19) 
O3 O2- 4 e 0.162(1) 0.5055(4) 0.8256(9) 1. 0 0.0107(23) 
O4 O2- 4 e 0.2561(9) 0.4089(4) 0.5932(9) 1. 0 0.0100(21) 
O5 O2- 4 e 0.884(1) 0.3417(4) 0.1835(9) 1. 0 0.0120(23) 
O6 O2- 4 e 0.5669(9) 0.4110(4) 0.2382(9) 1. 0 0.0093(19) 
O7 O2- 4 e 0.2199(10) 0.3543(4) 0.9201(9) 1. 0 0.0107(23) 
O8 O2- 4 e 0.5578(10) 0.3254(4) 0.8503(9) 1. 0 0.0093(21) 
O9 O2- 4 e 0.7989(10) 0.2993(4) 0.5004(9) 1. 0 0.0107(23) 

#End of data_83843-ICSD


