data_414186-ICSD
#?2014 by Fachinformationszentrum Karlsruhe, and the U.S. Secretary of 
#Commerce on behalf of the United States.  All rights reserved.
_database_code_ICSD                414186
_audit_creation_date               2005/10/01
_chemical_name_systematic          'Dicesium Lithium Thiovanadate'
_chemical_formula_structural       'Cs2 Li V S4'
_chemical_formula_sum              'Cs2 Li1 S4 V1'
_publ_section_title
;
Syntheses and structures of six compounds in the A2 Li M S4 (A = K, 
Rb, Cs; M = V, Nb, Ta) family
;
loop_
_citation_id
_citation_journal_abbrev
_citation_year
_citation_journal_volume
_citation_page_first
_citation_page_last
_citation_journal_id_ASTM
primary 'Journal of Solid State Chemistry' 2005 178 194 199 JSSCBI
_publ_author_name                  'Huang, F.-Q.;Deng, B.;Ibers, J.A.'
_cell_length_a                     5.8316(5)
_cell_length_b                     13.6095(12)
_cell_length_c                     24.177(2)
_cell_angle_alpha                  90.
_cell_angle_beta                   90.
_cell_angle_gamma                  90.
_cell_volume                       1918.81
_cell_formula_units_Z              8
_symmetry_space_group_name_H-M     'F d d d Z'
_symmetry_Int_Tables_number        70
_refine_ls_R_factor_all            .0228
loop_
_symmetry_equiv_pos_site_id
_symmetry_equiv_pos_as_xyz
  1	'x+.75, y+.75, -z'
  2	'x+.75, -y, z+.75'
  3	'-x, y+.75, z+.75'
  4	'-x, -y, -z'
  5	'-x+.25, -y+.25, z'
  6	'-x+.25, y, -z+.25'
  7	'x, -y+.25, -z+.25'
  8	'x, y, z'
  9	'x+.75, y+.25, -z+.5'
 10	'x+.25, y+.75, -z+.5'
 11	'x+.25, y+.25, -z'
 12	'x+.75, -y+.5, z+.25'
 13	'x+.25, -y, z+.25'
 14	'x+.25, -y+.5, z+.75'
 15	'-x, y+.25, z+.25'
 16	'-x+.5, y+.75, z+.25'
 17	'-x+.5, y+.25, z+.75'
 18	'-x, -y+.5, -z+.5'
 19	'-x+.5, -y, -z+.5'
 20	'-x+.5, -y+.5, -z'
 21	'-x+.25, -y+.75, z+.5'
 22	'-x+.75, -y+.25, z+.5'
 23	'-x+.75, -y+.75, z'
 24	'-x+.25, y+.5, -z+.75'
 25	'-x+.75, y, -z+.75'
 26	'-x+.75, y+.5, -z+.25'
 27	'x, -y+.75, -z+.75'
 28	'x+.5, -y+.25, -z+.75'
 29	'x+.5, -y+.75, -z+.25'
 30	'x, y+.5, z+.5'
 31	'x+.5, y, z+.5'
 32	'x+.5, y+.5, z'
loop_
_atom_type_symbol
_atom_type_oxidation_number
Cs1+	1
Li1+	1
S2-	-2
V5+	5
loop_
_atom_site_label
_atom_site_type_symbol
_atom_site_symmetry_multiplicity
_atom_site_Wyckoff_symbol
_atom_site_fract_x
_atom_site_fract_y
_atom_site_fract_z
_atom_site_occupancy
_atom_site_attached_hydrogens
_atom_site_U_iso_or_equiv
Cs1 Cs1+ 16 g 0.1250 0.1250 0.447640(9) 1 0 0.01931(13) 
Li1 Li1+ 8 a 0.1250 0.1250 0.1250 1 0 0.023(2) 
V1 V5+ 8 b 0.1250 0.1250 0.6250 1 0 0.0109(2) 
S1 S2- 32 h 0.34233(10) 0.71566(5) 0.17590(3) 1 0 0.01630(17) 

loop_
_atom_site_aniso_label
_atom_site_aniso_type_symbol
_atom_site_aniso_U_11
_atom_site_aniso_U_22
_atom_site_aniso_U_33
_atom_site_aniso_U_12
_atom_site_aniso_U_13
_atom_site_aniso_U_23
Cs1 Cs1+ 0.02312(19) 0.01744(19) 0.01736(18) -0.00677(7) 0.000 0.000
Li1 Li1+ 0.010(4) 0.021(5) 0.036(6) 0.000 0.000 0.000
V1 V5+ 0.0085(4) 0.0098(4) 0.0146(4) 0.000 0.000 0.000
S1 S2- 0.0136(3) 0.0157(3) 0.0196(3) -0.0017(2) -0.0011(2) -0.0042(2)
#End of data_414186-ICSD


