data_75074-ICSD
#?2014 by Fachinformationszentrum Karlsruhe, and the U.S. Secretary of 
#Commerce on behalf of the United States.  All rights reserved.
_database_code_ICSD                75074
_audit_creation_date               1995/10/17
_chemical_name_systematic          'Barium Erbium Silver Sulfide'
_chemical_formula_structural       'Ba Er Ag S3'
_chemical_formula_sum              'Ag1 Ba1 Er1 S3'
_publ_section_title
;
Synthesis of the new quaternary sulfides K2Y4Sn2S11 and BaLnAgS3 
(Ln=Er,Y,Gd) and the structures of K2Y4Sn2S11 and BaErAgS3
;
loop_
_citation_id
_citation_journal_abbrev
_citation_year
_citation_journal_volume
_citation_page_first
_citation_page_last
_citation_journal_id_ASTM
primary 'Journal of Solid State Chemistry' 1994 110 156 161 JSSCBI
_publ_author_name                  'Wu, P.;Ibers, J.A.'
_cell_length_a                     17.340(4)
_cell_length_b                     4.014(1)
_cell_length_c                     8.509(2)
_cell_angle_alpha                  90.
_cell_angle_beta                   103.23(3)
_cell_angle_gamma                  90.
_cell_volume                       576.53
_cell_formula_units_Z              4
_symmetry_space_group_name_H-M     'C 1 2/m 1'
_symmetry_Int_Tables_number        12
_refine_ls_R_factor_all            .018
loop_
_symmetry_equiv_pos_site_id
_symmetry_equiv_pos_as_xyz
  1	'-x, y, -z'
  2	'-x, -y, -z'
  3	'x, -y, z'
  4	'x, y, z'
  5	'-x+.5, y+.5, -z'
  6	'-x+.5, -y+.5, -z'
  7	'x+.5, -y+.5, z'
  8	'x+.5, y+.5, z'
loop_
_atom_type_symbol
_atom_type_oxidation_number
Ag1+	1
Ba2+	2
Er3+	3
S2-	-2
loop_
_atom_site_label
_atom_site_type_symbol
_atom_site_symmetry_multiplicity
_atom_site_Wyckoff_symbol
_atom_site_fract_x
_atom_site_fract_y
_atom_site_fract_z
_atom_site_occupancy
_atom_site_attached_hydrogens
_atom_site_U_iso_or_equiv
Er1 Er3+ 4 i 0.1638(1) 0 0.0805(1) 1. 0 0.004(1) 
Ba1 Ba2+ 4 i 0.1360(1) 0 0.5685(1) 1. 0 0.005(1) 
Ag1 Ag1+ 4 i 0.5138(1) 0 0.2089(1) 1. 0 0.020(1) 
S1 S2- 4 i 0.3263(1) 0 0.1317(1) 1. 0 0.005(1) 
S2 S2- 4 i 0.6764(1) 0 0.3014(1) 1. 0 0.005(1) 
S3 S2- 2 d 0 0.5 0.5 1. 0 0.006(1) 
S4 S2- 2 a 0 0 0 1. 0 0.009(1) 

#End of data_75074-ICSD


