data_190125-ICSD
#?2014 by Fachinformationszentrum Karlsruhe, and the U.S. Secretary of 
#Commerce on behalf of the United States.  All rights reserved.
_database_code_ICSD                190125
_audit_creation_date               2014/08/01
_chemical_name_systematic          'Dialuminium Beryllium Tetraoxide'
_chemical_formula_structural       'Al2 Be O4'
_chemical_formula_sum              'Al2 Be1 O4'
_chemical_name_mineral             Alexandrite
_publ_section_title
;
Comparative structural study of Al2 Be O4 and Al2 Be O4 : Cr(3+) (0.3 
at. % Cr) crystals
;
loop_
_citation_id
_citation_journal_abbrev
_citation_year
_citation_journal_volume
_citation_journal_issue
_citation_page_first
_citation_page_last
_citation_journal_id_ASTM
primary 'Inorganic Materials' 1997 33 1 48 51 INOMAF
_publ_author_name                  'Rabadanov, M.Kh.;Dudka, A.P.'
_cell_length_a                     9.407(4)
_cell_length_b                     5.4781(5)
_cell_length_c                     4.4285(3)
_cell_angle_alpha                  90.
_cell_angle_beta                   90.
_cell_angle_gamma                  90.
_cell_volume                       228.21
_cell_formula_units_Z              4
_symmetry_space_group_name_H-M     'P n m a'
_symmetry_Int_Tables_number        62
_refine_ls_R_factor_all            .011
loop_
_symmetry_equiv_pos_site_id
_symmetry_equiv_pos_as_xyz
  1	'x+.5, y, -z+.5'
  2	'x, -y+.5, z'
  3	'-x+.5, y+.5, z+.5'
  4	'-x, -y, -z'
  5	'-x+.5, -y, z+.5'
  6	'-x, y+.5, -z'
  7	'x+.5, -y+.5, -z+.5'
  8	'x, y, z'
loop_
_atom_type_symbol
_atom_type_oxidation_number
Al3+	3
Be2+	2
O2-	-2
loop_
_atom_site_label
_atom_site_type_symbol
_atom_site_symmetry_multiplicity
_atom_site_Wyckoff_symbol
_atom_site_fract_x
_atom_site_fract_y
_atom_site_fract_z
_atom_site_occupancy
_atom_site_attached_hydrogens
_atom_site_B_iso_or_equiv
Al1 Al3+ 4 a 0 0 0 1. 0 0.240 
Al2 Al3+ 4 c 0.272814(8) 0.250 -0.00505(2) 1. 0 0.247 
Be1 Be2+ 4 c 0.09283(4) 0.250 0.43394(7) 1. 0 0.382 
O1 O2- 4 c 0.09031(2) 0.250 0.78783(4) 1. 0 0.257 
O2 O2- 4 c 0.43302(2) 0.250 0.24143(4) 1. 0 0.276 
O3 O2- 8 d 0.16329(1) 0.01525(2) 0.25691(3) 1. 0 0.286 

#End of data_190125-ICSD


