data_202823-ICSD
#?2014 by Fachinformationszentrum Karlsruhe, and the U.S. Secretary of 
#Commerce on behalf of the United States.  All rights reserved.
_database_code_ICSD                202823
_audit_creation_date               1989/06/19
_audit_update_record               2007/08/01
_chemical_name_systematic          'Dipotassium Magnesium Divanadate'
_chemical_formula_structural       'K2 Mg (V2 O7)'
_chemical_formula_sum              'K2 Mg1 O7 V2'
_publ_section_title
;
The structure of the double pyrovanadate K2 Mg V2 O7
;
loop_
_citation_id
_citation_journal_abbrev
_citation_year
_citation_journal_volume
_citation_page_first
_citation_page_last
_citation_journal_id_ASTM
primary 'Russian Journal of Inorganic Chemistry' 1988 33 904 905 RJICAQ
2 'Powder Diffraction' 1986 1 334 345 PODIE2
_publ_author_name
;
Murashova, E.V.;Velikodnyi, Yu.A.;Trunov, V.K.
;
_cell_length_a                     8.38(2)
_cell_length_b                     8.38(2)
_cell_length_c                     11.36(2)
_cell_angle_alpha                  90.
_cell_angle_beta                   90.
_cell_angle_gamma                  90.
_cell_volume                       797.75
_cell_formula_units_Z              4
_symmetry_space_group_name_H-M     'P 42/m n m'
_symmetry_Int_Tables_number        136
_refine_ls_R_factor_all            .039
loop_
_symmetry_equiv_pos_site_id
_symmetry_equiv_pos_as_xyz
  1	'-y+.5, x+.5, -z+.5'
  2	'y+.5, -x+.5, -z+.5'
  3	'y, x, -z'
  4	'-y, -x, -z'
  5	'y+.5, -x+.5, z+.5'
  6	'-y+.5, x+.5, z+.5'
  7	'-y, -x, z'
  8	'y, x, z'
  9	'x+.5, -y+.5, -z+.5'
 10	'-x+.5, y+.5, -z+.5'
 11	'x, y, -z'
 12	'-x, -y, -z'
 13	'-x+.5, y+.5, z+.5'
 14	'x+.5, -y+.5, z+.5'
 15	'-x, -y, z'
 16	'x, y, z'
loop_
_atom_type_symbol
_atom_type_oxidation_number
K1+	1
Mg2+	2
O2-	-2
V5+	5
loop_
_atom_site_label
_atom_site_type_symbol
_atom_site_symmetry_multiplicity
_atom_site_Wyckoff_symbol
_atom_site_fract_x
_atom_site_fract_y
_atom_site_fract_z
_atom_site_occupancy
_atom_site_attached_hydrogens
_atom_site_B_iso_or_equiv
V1 V5+ 8 j 0.3580(1) 0.3580(1) 0.2888(1) 1. 0 0.97(1) 
K1 K1+ 4 g 0.3527(5) -.3527(5) 0 1. 0 1.75(4) 
K2 K1+ 4 f 0.1799(5) 0.1799(5) 0 1. 0 2.40(6) 
Mg1 Mg2+ 4 d 0.5 0 0.25 1. 0 1.15(6) 
O1 O2- 4 e 0 0 0.1534(7) 1. 0 1.2(1) 
O2 O2- 16 k 0.1759(5) 0.4097(5) 0.3429(4) 1. 0 1.40(7) 
O3 O2- 8 j 0.360(1) 0.360(1) 0.1436(5) 1. 0 2.0(1) 

#End of data_202823-ICSD


