data_73807-ICSD
#?2014 by Fachinformationszentrum Karlsruhe, and the U.S. Secretary of 
#Commerce on behalf of the United States.  All rights reserved.
_database_code_ICSD                73807
_audit_creation_date               1995/01/10
_chemical_name_systematic          'Potassium Molybdenum Oxide (1/4/6)'
_chemical_formula_structural       'K Mo4 O6'
_chemical_formula_sum              'K1 Mo4 O6'
_publ_section_title
;
Synthesis and characterization of a new modification of the quasi-low-
dimensional compound KMo4O6
;
loop_
_citation_id
_citation_journal_abbrev
_citation_year
_citation_journal_volume
_citation_page_first
_citation_page_last
_citation_journal_id_ASTM
primary 'Journal of Solid State Chemistry' 1993 102 69 78 JSSCBI
_publ_author_name
;
Ramanujachary, K.V.;Greenblatt, M.;Jones, E.B.;McCarroll, W.H.
;
_cell_length_a                     9.636(1)
_cell_length_b                     9.636(1)
_cell_length_c                     2.879(1)
_cell_angle_alpha                  90.
_cell_angle_beta                   90.
_cell_angle_gamma                  90.
_cell_volume                       267.32
_cell_formula_units_Z              2
_symmetry_space_group_name_H-M     'P -4'
_symmetry_Int_Tables_number        81
_refine_ls_R_factor_all            .036
loop_
_symmetry_equiv_pos_site_id
_symmetry_equiv_pos_as_xyz
  1	'-y, x, -z'
  2	'y, -x, -z'
  3	'-x, -y, z'
  4	'x, y, z'
loop_
_atom_type_symbol
_atom_type_oxidation_number
K1+	1
Mo2.75+	2.75
O2-	-2
loop_
_atom_site_label
_atom_site_type_symbol
_atom_site_symmetry_multiplicity
_atom_site_Wyckoff_symbol
_atom_site_fract_x
_atom_site_fract_y
_atom_site_fract_z
_atom_site_occupancy
_atom_site_attached_hydrogens
_atom_site_B_iso_or_equiv
K1 K1+ 1 b 0 0 0.5 1. 0 0 
K2 K1+ 1 d 0.5 0.5 0.5 1. 0 0 
Mo1 Mo2.75+ 4 h 0.60105(4) 0.10101(4) -.0002(3) 1. 0 0 
Mo2 Mo2.75+ 4 h 0.14276(4) 0.64262(4) 0.5069(3) 1. 0 0 
O1 O2- 4 h 0.2052(4) 0.2942(4) 0.494(3) 1. 0 0.62(4) 
O2 O2- 4 h 0.2431(4) 0.0461(4) -.001(4) 1. 0 0.63(4) 
O3 O2- 4 h 0.4545(4) 0.2568(4) -.010(4) 1. 0 0.65(4) 

loop_
_atom_site_aniso_label
_atom_site_aniso_type_symbol
_atom_site_aniso_U_11
_atom_site_aniso_U_22
_atom_site_aniso_U_33
_atom_site_aniso_U_12
_atom_site_aniso_U_13
_atom_site_aniso_U_23
K1 K1+ 0.0157(6) 0.0157(6) 0.018(1) 0 0 0
K2 K1+ 0.0160(6) 0.0160(6) 0.017(1) 0 0 0
Mo1 Mo2.75+ 0.0042(1) 0.0042(1) 0.0048(1) -.0001(1) -.0004(3) 0.0005(3)
Mo2 Mo2.75+ 0.0040(1) 0.0041(1) 0.0133(2) -.0002(1) -.0022(3) -.0017(3)
#End of data_73807-ICSD


