data_200298-ICSD
#?2014 by Fachinformationszentrum Karlsruhe, and the U.S. Secretary of 
#Commerce on behalf of the United States.  All rights reserved.
_database_code_ICSD                200298
_audit_creation_date               1980/01/01
_chemical_name_systematic          'Dipotassium Erbium Nitrate'
_chemical_formula_structural       'K2 Er (N O3)5'
_chemical_formula_sum              'Er1 K2 N5 O15'
_publ_section_title                'The structure of K2 Er (No3)5'
loop_
_citation_id
_citation_journal_abbrev
_citation_year
_citation_journal_volume
_citation_page_first
_citation_page_last
_citation_journal_id_ASTM
primary 'Journal of Inorganic and Nuclear Chemistry' 1978 40 257 268 JINCAO
_publ_author_name                  'Sherry, E.G.'
_cell_length_a                     7.954(4)
_cell_length_b                     11.943(4)
_cell_length_c                     14.269(7)
_cell_angle_alpha                  90.
_cell_angle_beta                   102.85(4)
_cell_angle_gamma                  90.
_cell_volume                       1321.53
_cell_formula_units_Z              4
_symmetry_space_group_name_H-M     'P 1 21/c 1'
_symmetry_Int_Tables_number        14
_refine_ls_R_factor_all            .049
loop_
_symmetry_equiv_pos_site_id
_symmetry_equiv_pos_as_xyz
  1	'x, -y+.5, z+.5'
  2	'-x, -y, -z'
  3	'-x, y+.5, -z+.5'
  4	'x, y, z'
loop_
_atom_type_symbol
_atom_type_oxidation_number
Er3+	3
K1+	1
N5+	5
O2-	-2
loop_
_atom_site_label
_atom_site_type_symbol
_atom_site_symmetry_multiplicity
_atom_site_Wyckoff_symbol
_atom_site_fract_x
_atom_site_fract_y
_atom_site_fract_z
_atom_site_occupancy
_atom_site_attached_hydrogens
Er1 Er3+ 4 e 0.25002(5) 0.44845(3) 0.23214(3) 1. 0 
K1 K1+ 4 e 0.7940(3) 0.1614(2) 0.0277(2) 1. 0 
K2 K1+ 4 e 0.3737(3) 0.1136(2) 0.3910(2) 1. 0 
N1 N5+ 4 e 0.5896(11) 0.4887(8) 0.3425(6) 1. 0 
N2 N5+ 4 e 0.4025(10) 0.3066(7) 0.1144(6) 1. 0 
N3 N5+ 4 e 0.1295(10) 0.3546(7) 0.3884(6) 1. 0 
N4 N5+ 4 e -.091(1) 0.4117(7) 0.1215(6) 1. 0 
N5 N5+ 4 e 0.2389(9) 0.6883(6) 0.2037(6) 1. 0 
O1 O2- 4 e 0.7331(9) 0.5132(7) 0.3885(6) 1. 0 
O2 O2- 4 e 0.5414(8) 0.5122(6) 0.2551(5) 1. 0 
O3 O2- 4 e 0.4782(10) 0.4396(6) 0.3806(6) 1. 0 
O4 O2- 4 e 0.3484(9) 0.4035(6) 0.0863(5) 1. 0 
O5 O2- 4 e 0.4618(9) 0.2428(6) 0.0608(5) 1. 0 
O6 O2- 4 e 0.3902(8) 0.2799(5) 0.1981(5) 1. 0 
O7 O2- 4 e 0.0891(9) 0.3135(7) 0.4558(5) 1. 0 
O8 O2- 4 e 0.1869(10) 0.2975(6) 0.3293(5) 1. 0 
O9 O2- 4 e 0.113(1) 0.4557(6) 0.3691(6) 1. 0 
O10 O2- 4 e 0.0206(9) 0.3370(6) 0.1306(6) 1. 0 
O11 O2- 4 e -.0445(10) 0.5052(7) 0.1612(6) 1. 0 
O12 O2- 4 e -.2415(9) 0.3968(6) 0.0769(5) 1. 0 
O13 O2- 4 e 0.2653(9) 0.6234(6) 0.1392(5) 1. 0 
O14 O2- 4 e 0.2253(8) 0.6390(5) 0.2818(4) 1. 0 
O15 O2- 4 e 0.2313(10) 0.7882(16) 0.1998(6) 1. 0 

#End of data_200298-ICSD


