data_95439-ICSD
#?2014 by Fachinformationszentrum Karlsruhe, and the U.S. Secretary of 
#Commerce on behalf of the United States.  All rights reserved.
_database_code_ICSD                95439
_audit_creation_date               2003/10/01
_chemical_name_systematic          'Dicalcium Cobalt Oxide'
_chemical_formula_structural       'Ca2 Co O3'
_chemical_formula_sum              'Ca2 Co1 O3'
_publ_section_title
;
Modulated structure of the thermoelectric compound (Ca2 Co O3)0.62 Co 
O2
;
loop_
_citation_id
_citation_journal_abbrev
_citation_year
_citation_journal_volume
_citation_journal_issue
_citation_page_first
_citation_page_last
_citation_journal_id_ASTM
primary 'Journal of the Physical Society of Japan' 2002 71 2 491 497 JUPSAU
_publ_author_name
;
Miyazaki, Y.;Onoda, M.;Oku, T.;Kikuchi, M.;Ishii, Y.;Ono, Y.;Morii, 
Y.;Kajitani, T.
;
_cell_length_a                     4.8339(3)
_cell_length_b                     4.5582(2)
_cell_length_c                     10.8436(7)
_cell_angle_alpha                  90
_cell_angle_beta                   98.14(1)
_cell_angle_gamma                  90
_cell_volume                       236.52
_cell_formula_units_Z              2
_symmetry_space_group_name_H-M     'C 1 m 1'
_symmetry_Int_Tables_number        8
_refine_ls_R_factor_all            .106
loop_
_symmetry_equiv_pos_site_id
_symmetry_equiv_pos_as_xyz
  1	'x, -y, z'
  2	'x, y, z'
  3	'x+.5, -y+.5, z'
  4	'x+.5, y+.5, z'
loop_
_atom_type_symbol
_atom_type_oxidation_number
Ca2+	2
Co2+	2
O2-	-2
loop_
_atom_site_label
_atom_site_type_symbol
_atom_site_symmetry_multiplicity
_atom_site_Wyckoff_symbol
_atom_site_fract_x
_atom_site_fract_y
_atom_site_fract_z
_atom_site_occupancy
_atom_site_attached_hydrogens
_atom_site_B_iso_or_equiv
Ca1 Ca2+ 2 a 0.312(11) 0 0.727(5) 1. 0 0.5 
Ca2 Ca2+ 2 a 0.182(11) 0 0.281(6) 1. 0 0.5 
Co1 Co2+ 2 a 0.702(11) 0 0.505(6) 1. 0 0.5 
O1 O2- 2 a 0.183(11) 0 0.497(6) 1. 0 0.5 
O2 O2- 2 a 0.718(14) 0 0.338(7) 1. 0 0.5 
O3 O2- 2 a 0.837(13) 0 0.677(7) 1. 0 0.5 

#End of data_95439-ICSD


