data_174433-ICSD
#?2014 by Fachinformationszentrum Karlsruhe, and the U.S. Secretary of 
#Commerce on behalf of the United States.  All rights reserved.
_database_code_ICSD                174433
_audit_creation_date               2011/02/01
_chemical_name_systematic          'Sodium Chromium Digermanate'
_chemical_formula_structural       'Na Cr Ge2 O6'
_chemical_formula_sum              'Cr1 Ge2 Na1 O6'
_publ_section_title
;
Crystal structures of Cr-based magnetic pyroxenes
;
loop_
_citation_id
_citation_journal_abbrev
_citation_year
_citation_journal_volume
_citation_journal_issue
_citation_page_first
_citation_page_last
_citation_journal_id_ASTM
primary 'Solid State Sciences' 2010 12 5 676 679 SSSCFJ
_publ_author_name
;
Matsushita, Y.;Izumi, F.;Isobe, M.;Ueda, Y.
;
_cell_length_a                     9.99812(6)
_cell_length_b                     8.92264(5)
_cell_length_c                     5.50414(4)
_cell_angle_alpha                  90
_cell_angle_beta                   107.5709(4)
_cell_angle_gamma                  90
_cell_volume                       468.11
_cell_formula_units_Z              4
_symmetry_space_group_name_H-M     'C 1 2/c 1'
_symmetry_Int_Tables_number        15
_refine_ls_R_factor_all            .016
loop_
_symmetry_equiv_pos_site_id
_symmetry_equiv_pos_as_xyz
  1	'x, -y, z+.5'
  2	'-x, -y, -z'
  3	'-x, y, -z+.5'
  4	'x, y, z'
  5	'x+.5, -y+.5, z+.5'
  6	'-x+.5, -y+.5, -z'
  7	'-x+.5, y+.5, -z+.5'
  8	'x+.5, y+.5, z'
loop_
_atom_type_symbol
_atom_type_oxidation_number
Cr3+	3
Ge4+	4
Na1+	1
O2-	-2
loop_
_atom_site_label
_atom_site_type_symbol
_atom_site_symmetry_multiplicity
_atom_site_Wyckoff_symbol
_atom_site_fract_x
_atom_site_fract_y
_atom_site_fract_z
_atom_site_occupancy
_atom_site_attached_hydrogens
_atom_site_B_iso_or_equiv
Na1 Na1+ 4 e 0 0.3025(3) 0.25 1. 0 .93(6) 
Cr1 Cr3+ 4 e 0 0.9122(1) 0.25 1. 0 .19(2) 
Ge1 Ge4+ 8 f 0.29066(5) 0.09638(5) 0.22754(9) 1. 0 .15(1) 
O1 O2- 8 f 0.1047(2) 0.0808(3) 0.1303(4) 1. 0 .16(5) 
O2 O2- 8 f 0.3612(3) 0.0094(2) 0.0062(6) 1. 0 .34(5) 
O3 O2- 8 f 0.3609(2) 0.2743(3) 0.3105(4) 1. 0 .19(6) 

#End of data_174433-ICSD


