data_161089-ICSD
#?2014 by Fachinformationszentrum Karlsruhe, and the U.S. Secretary of 
#Commerce on behalf of the United States.  All rights reserved.
_database_code_ICSD                161089
_audit_creation_date               2009/02/01
_audit_update_record               2013/02/01
_chemical_name_systematic          'Potassium Barium Pentaborate'
_chemical_formula_structural       'K Ba (B5 O9)'
_chemical_formula_sum              'B5 Ba1 K1 O9'
_publ_section_title
;
Structure of a new compound K Ba B5 O9 and photoluminescence 
characteristics of K Ba B5 O9 : Eu(3+)
;
loop_
_citation_id
_citation_journal_abbrev
_citation_year
_citation_journal_volume
_citation_journal_issue
_citation_page_first
_citation_page_last
_citation_journal_id_ASTM
primary 'Powder Diffraction' 2007 22 4 292 294 PODIE2
_publ_author_name
;
Sun, Y.P.;Du Yinxiao;Wang, W.-Y.;He Ming;Cai, G.-M.;Chen, X.-L.
;
_cell_length_a                     6.7200(2)
_cell_length_b                     8.3256(2)
_cell_length_c                     14.3674(4)
_cell_angle_alpha                  90.
_cell_angle_beta                   92.6103(3)
_cell_angle_gamma                  90.
_cell_volume                       802.99
_cell_formula_units_Z              4
_symmetry_space_group_name_H-M     'P 1 21/c 1'
_symmetry_Int_Tables_number        14
_refine_ls_R_factor_all            .0502
loop_
_symmetry_equiv_pos_site_id
_symmetry_equiv_pos_as_xyz
  1	'x, -y+.5, z+.5'
  2	'-x, -y, -z'
  3	'-x, y+.5, -z+.5'
  4	'x, y, z'
loop_
_atom_type_symbol
_atom_type_oxidation_number
B3+	3
Ba2+	2
K1+	1
O2-	-2
loop_
_atom_site_label
_atom_site_type_symbol
_atom_site_symmetry_multiplicity
_atom_site_Wyckoff_symbol
_atom_site_fract_x
_atom_site_fract_y
_atom_site_fract_z
_atom_site_occupancy
_atom_site_attached_hydrogens
_atom_site_B_iso_or_equiv
K1 K1+ 4 e 0.5153(6) 0.8522(5) 0.4057(3) 1. 0 0.959(2) 
Ba1 Ba2+ 4 e 0.9278(2) 0.0262(1) 0.2294(1) 1. 0 0.711(9) 
B1 B3+ 4 e 0.405(3) -0.006(2) 0.194(1) 1. 0 0.556(1) 
B2 B3+ 4 e 0.799(3) 0.271(2) 0.396(1) 1. 0 0.109(0) 
B3 B3+ 4 e 0.463(3) 0.219(2) 0.314(1) 1. 0 0.973(3) 
B4 B3+ 4 e 0.785(3) 0.855(2) 0.592(1) 1. 0 0.739(1) 
B5 B3+ 4 e 0.068(3) 0.823(3) 0.446(2) 1. 0 0.648(1) 
O1 O2- 4 e 0.099(1) 0.823(1) 0.3480(5) 1. 0 0.981(6) 
O2 O2- 4 e 0.385(1) 0.167(1) 0.3985(7) 1. 0 2.226(6) 
O3 O2- 4 e 0.875(1) 0.836(1) 0.4805(7) 1. 0 0.787(5) 
O4 O2- 4 e 0.669(1) 0.158(1) 0.3466(7) 1. 0 1.024(2) 
O5 O2- 4 e 0.257(1) -0.062(1) 0.1299(6) 1. 0 0.109(4) 
O6 O2- 4 e 0.214(1) 0.744(1) 0.4966(7) 1. 0 1.667(6) 
O7 O2- 4 e 0.037(1) 0.244(1) 0.3758(7) 1. 0 1.041(5) 
O8 O2- 4 e 0.573(1) -0.099(1) 0.2119(6) 1. 0 0.972(5) 
O9 O2- 4 e 0.383(1) 0.122(1) 0.2342(7) 1. 0 1.250(6) 

#End of data_161089-ICSD


