data_424078-ICSD
#?2014 by Fachinformationszentrum Karlsruhe, and the U.S. Secretary of 
#Commerce on behalf of the United States.  All rights reserved.
_database_code_ICSD                424078
_audit_creation_date               2014/08/01
_chemical_name_systematic          'Potassium Selenium(IV) Triborate'
_chemical_formula_structural       'K Se B3 O7'
_chemical_formula_sum              'B3 K1 O7 Se1'
_publ_section_title
;
A series of boroselenite-based open frameworks mediated by the 
cationic sizes of the alkali metals
;
loop_
_citation_id
_citation_journal_abbrev
_citation_year
_citation_journal_volume
_citation_journal_issue
_citation_page_first
_citation_page_last
_citation_journal_id_ASTM
primary CrystEngComm 2012 14 24 8727 8733 CRECF4
_publ_author_name
;
Jian-Han Zhang;Fang Kong;Bing-Ping Yang;Jiang-Gao Mao
;
_cell_length_a                     4.5569(8)
_cell_length_b                     17.601(4)
_cell_length_c                     8.669(2)
_cell_angle_alpha                  90.00
_cell_angle_beta                   95.917(15)
_cell_angle_gamma                  90.00
_cell_volume                       691.6
_cell_formula_units_Z              4
_symmetry_space_group_name_H-M     'P 1 21/c 1'
_symmetry_Int_Tables_number        14
_refine_ls_R_factor_all            .0487
loop_
_symmetry_equiv_pos_site_id
_symmetry_equiv_pos_as_xyz
  1	'x, -y+.5, z+.5'
  2	'-x, -y, -z'
  3	'-x, y+.5, -z+.5'
  4	'x, y, z'
loop_
_atom_type_symbol
_atom_type_oxidation_number
B3+	3
K1+	1
O2-	-2
Se4+	4
loop_
_atom_site_label
_atom_site_type_symbol
_atom_site_symmetry_multiplicity
_atom_site_Wyckoff_symbol
_atom_site_fract_x
_atom_site_fract_y
_atom_site_fract_z
_atom_site_occupancy
_atom_site_attached_hydrogens
_atom_site_U_iso_or_equiv
K1 K1+ 4 e 0.6793(3) 0.60409(7) 0.93758(15) 1 0 0.0252(3) 
Se1 Se4+ 4 e 0.20199(12) 0.48577(3) 0.68781(7) 1 0 0.0193(2) 
B1 B3+ 4 e 0.7091(14) 0.3925(3) 0.7247(8) 1 0 0.0172(12) 
B2 B3+ 4 e 0.5265(15) 0.2625(4) 0.7597(7) 1 0 0.0191(13) 
B3 B3+ 4 e 0.5274(15) 0.1882(3) 1.0031(7) 1 0 0.0188(13) 
O1 O2- 4 e 0.0284(9) 0.4067(2) 0.7617(5) 1 0 0.0223(9) 
O2 O2- 4 e 0.1365(10) 0.5556(2) 0.8006(6) 1 0 0.0351(12) 
O3 O2- 4 e 0.5524(9) 0.4615(2) 0.7729(5) 1 0 0.0203(9) 
O4 O2- 4 e 0.6448(9) 0.3275(2) 0.8216(4) 1 0 0.0185(8) 
O5 O2- 4 e 0.4600(11) 0.2539(2) 0.6019(5) 1 0 0.0293(11) 
O6 O2- 4 e 0.4775(11) 0.1992(2) 0.8458(5) 1 0 0.0257(10) 
O7 O2- 4 e 0.6312(9) 0.1210(2) 1.0592(5) 1 0 0.0212(9) 

loop_
_atom_site_aniso_label
_atom_site_aniso_type_symbol
_atom_site_aniso_U_11
_atom_site_aniso_U_22
_atom_site_aniso_U_33
_atom_site_aniso_U_12
_atom_site_aniso_U_13
_atom_site_aniso_U_23
K1 K1+ 0.0299(7) 0.0231(6) 0.0231(7) 0.0029(5) 0.0054(6) -0.0011(5)
Se1 Se4+ 0.0175(3) 0.0203(3) 0.0202(4) -0.0001(2) 0.0023(2) 0.0009(2)
B1 B3+ 0.018(3) 0.016(3) 0.017(3) -0.004(2) 0.005(2) -0.001(2)
B2 B3+ 0.024(3) 0.018(3) 0.016(3) 0.002(2) 0.003(3) 0.001(2)
B3 B3+ 0.028(3) 0.015(3) 0.013(3) -0.001(2) 0.004(3) 0.001(2)
O1 O2- 0.0144(19) 0.0208(19) 0.032(2) -0.0006(15) 0.0022(17) 0.0013(17)
O2 O2- 0.022(2) 0.025(2) 0.061(3) 0.0027(18) 0.012(2) -0.012(2)
O3 O2- 0.018(2) 0.0183(18) 0.024(2) 0.0001(15) 0.0026(17) -0.0065(16)
O4 O2- 0.025(2) 0.0183(19) 0.013(2) -0.0036(16) 0.0035(16) 0.0003(15)
O5 O2- 0.058(3) 0.019(2) 0.011(2) -0.007(2) 0.002(2) -0.0004(16)
O6 O2- 0.048(3) 0.0181(19) 0.0111(19) -0.0043(18) 0.0048(19) -0.0009(15)
O7 O2- 0.029(2) 0.0203(19) 0.014(2) 0.0034(16) 0.0041(17) 0.0007(15)
#End of data_424078-ICSD


