data_107376-ICSD
#?2014 by Fachinformationszentrum Karlsruhe, and the U.S. Secretary of 
#Commerce on behalf of the United States.  All rights reserved.
_database_code_ICSD                107376
_audit_creation_date               2013/08/01
_chemical_name_systematic          'Aluminium Silicate Hydroxide *'
_chemical_formula_structural       'Al4 (O H)8 (Si4 O10)'
_chemical_formula_sum              'H8 Al4 O18 Si4'
_chemical_name_mineral             'Kaolinite 1A'
_publ_section_title
;
What is the Structure of Kaolinite? Reconciling Theory and Experiment
;
loop_
_citation_id
_citation_journal_abbrev
_citation_year
_citation_journal_volume
_citation_page_first
_citation_page_last
_citation_journal_id_ASTM
primary 'Clays and Clay Minerals (-28,1980)' 1988 36 225 232 CCMPA7
_publ_author_name
;
White, C.E.;Provis, J.L.;Riley, D.P.;Kearley, G.J.;van Deventer, 
J,S.J.
;
_cell_length_a                     5.149
_cell_length_b                     8.9335(1)
_cell_length_c                     7.3844(1)
_cell_angle_alpha                  91.930(1)
_cell_angle_beta                   105.042(1)
_cell_angle_gamma                  89.791(1)
_cell_volume                       327.84
_cell_formula_units_Z              1
_symmetry_space_group_name_H-M     'P 1'
_symmetry_Int_Tables_number        1
loop_
_symmetry_equiv_pos_site_id
_symmetry_equiv_pos_as_xyz
  1	'x, y, z'
loop_
_atom_type_symbol
_atom_type_oxidation_number
Al3+	3
H1+	1
O2-	-2
Si4+	4
loop_
_atom_site_label
_atom_site_type_symbol
_atom_site_symmetry_multiplicity
_atom_site_Wyckoff_symbol
_atom_site_fract_x
_atom_site_fract_y
_atom_site_fract_z
_atom_site_occupancy
_atom_site_attached_hydrogens
Al1 Al3+ 1 a 0.36266 0.49376 0.4599 1. 0 
Al2 Al3+ 1 a 0.35432 0.82971 0.45805 1. 0 
Al3 Al3+ 1 a 0.86232 0.99359 0.4599 1. 0 
Al4 Al3+ 1 a 0.85492 0.32966 0.45758 1. 0 
Si1 Si4+ 1 a 0.05464 0.33498 0.06743 1. 0 
Si2 Si4+ 1 a 0.06771 0.6636 0.06896 1. 0 
Si3 Si4+ 1 a 0.55465 0.83466 0.0675 1. 0 
Si4 Si4+ 1 a 0.56769 0.16344 0.06914 1. 0 
O1 O2- 1 a 0.11303 0.34982 0.29339 1. 0 
O2 O2- 1 a 0.1777 0.66164 0.29455 1. 0 
O3 O2- 1 a 0.07793 0.4958 -.02869 1. 0 
O4 O2- 1 a 0.25365 0.21699 -.00707 1. 0 
O5 O2- 1 a 0.24774 0.77104 -.02877 1. 0 
O6 O2- 1 a 0.61262 0.8498 0.29337 1. 0 
O7 O2- 1 a 0.67737 0.1614 0.2948 1. 0 
O8 O2- 1 a 0.57758 -.00424 -.02878 1. 0 
O9 O2- 1 a 0.75354 0.71693 -.0071 1. 0 
O10 O2- 1 a 0.74776 0.27103 -.02819 1. 0 
O11 O2- 1 a 0.11411 0.97111 0.3059 1. 0 
O12 O2- 1 a 0.02877 0.16604 0.58718 1. 0 
O13 O2- 1 a 0.0981 0.47556 0.58733 1. 0 
O14 O2- 1 a 0.09615 0.85284 0.59286 1. 0 
O15 O2- 1 a 0.61521 0.47124 0.30621 1. 0 
O16 O2- 1 a 0.52916 0.66643 0.58686 1. 0 
O17 O2- 1 a 0.59599 0.97651 0.58667 1. 0 
O18 O2- 1 a 0.59929 0.35444 0.59418 1. 0 
H1 H1+ 1 a 0.21276 0.06527 0.31768 1. 0 
H2 H1+ 1 a 0.11667 0.17043 0.7205 1. 0 
H3 H1+ 1 a 0.11558 0.49851 0.71954 1. 0 
H4 H1+ 1 a 0.10906 0.81661 0.71727 1. 0 
H5 H1+ 1 a 0.71367 0.56552 0.31851 1. 0 
H6 H1+ 1 a 0.61742 0.67016 0.72012 1. 0 
H7 H1+ 1 a 0.61367 0.99972 0.71882 1. 0 
H8 H1+ 1 a 0.6076 0.31528 0.71641 1. 0 

#End of data_107376-ICSD


