data_69556-ICSD
#?2014 by Fachinformationszentrum Karlsruhe, and the U.S. Secretary of 
#Commerce on behalf of the United States.  All rights reserved.
_database_code_ICSD                69556
_audit_creation_date               1992/08/20
_audit_update_record               2012/08/01
_chemical_name_systematic
;
Potassium Vanadium(IV) Oxide Phosphate
;
_chemical_formula_structural       'K V O (P O4)'
_chemical_formula_sum              'K1 O5 P1 V1'
_publ_section_title
;
KVPO5, an intersecting tunnel structure closely related to the 
hexagonal tungsten bronze
;
loop_
_citation_id
_citation_journal_abbrev
_citation_year
_citation_journal_volume
_citation_page_first
_citation_page_last
_citation_journal_id_ASTM
primary 'Acta Crystallographica, Section C: Crystal Structure Communications'
 1991 47 1138 1141 ACSCEE
_publ_author_name
;
Benhamada, L.;Grandin, A.;Borel, M.M.;Leclaire, A.;Raveau, B.
;
_cell_length_a                     12.7640(8)
_cell_length_b                     10.5153(9)
_cell_length_c                     6.3648(4)
_cell_angle_alpha                  90.
_cell_angle_beta                   90.
_cell_angle_gamma                  90.
_cell_volume                       854.27
_cell_formula_units_Z              8
_symmetry_space_group_name_H-M     'P n 21 a'
_symmetry_Int_Tables_number        33
_refine_ls_R_factor_all            .028
loop_
_symmetry_equiv_pos_site_id
_symmetry_equiv_pos_as_xyz
  1	'x+.5, y, -z+.5'
  2	'-x+.5, y+.5, z+.5'
  3	'-x, y+.5, -z'
  4	'x, y, z'
loop_
_atom_type_symbol
_atom_type_oxidation_number
K1+	1
O2-	-2
P5+	5
V4+	4
loop_
_atom_site_label
_atom_site_type_symbol
_atom_site_symmetry_multiplicity
_atom_site_Wyckoff_symbol
_atom_site_fract_x
_atom_site_fract_y
_atom_site_fract_z
_atom_site_occupancy
_atom_site_attached_hydrogens
V1 V4+ 4 a 0.12417(5) 0.25 -.0038(1) 1. 0 
V2 V4+ 4 a 0.24842(7) 0.49719(9) 0.2750(1) 1. 0 
P1 P5+ 4 a 0.18046(9) 0.2337(1) 0.4976(2) 1. 0 
P2 P5+ 4 a -.0028(1) 0.4879(1) 0.1681(2) 1. 0 
K1 K1+ 4 a 0.3806(1) 0.4332(1) 0.7812(2) 1. 0 
K2 K1+ 4 a 0.3971(1) 0.1794(2) 0.2057(2) 1. 0 
O1 O2- 4 a 0.1119(3) 0.2051(3) 0.3054(5) 1. 0 
O2 O2- 4 a 0.1104(3) 0.2622(4) 0.6866(5) 1. 0 
O3 O2- 4 a 0.0092(3) 0.3683(3) 0.0278(6) 1. 0 
O4 O2- 4 a 0.0182(3) 0.1021(4) -.0232(6) 1. 0 
O5 O2- 4 a 0.2272(3) 0.1032(4) -.0395(6) 1. 0 
O6 O2- 4 a 0.2202(3) 0.3538(4) 0.0334(6) 1. 0 
O7 O2- 4 a 0.3991(3) 0.4666(3) 0.1950(5) 1. 0 
O8 O2- 4 a 0.2474(3) 0.6177(3) 0.0373(5) 1. 0 
O9 O2- 4 a 0.0931(3) 0.5047(4) 0.3109(5) 1. 0 
O10 O2- 4 a 0.2557(3) 0.3449(3) 0.4521(6) 1. 0 

#End of data_69556-ICSD


