data_408949-ICSD
#?2014 by Fachinformationszentrum Karlsruhe, and the U.S. Secretary of 
#Commerce on behalf of the United States.  All rights reserved.
_database_code_ICSD                408949
_audit_creation_date               1999/06/02
_chemical_name_systematic
;
Disilver Bis(hydrogensulfate(VI)) Dihydrogensulfate(VI)
;
_chemical_formula_structural       'Ag2 (H S O4)2 (H2 S O4)'
_chemical_formula_sum              'H4 Ag2 O12 S3'
_publ_section_title
;
Synthesis and crystal structure of metal(I) hydrogen sulfates - Ag 
(H3 O) (H S O4)2, Ag2 (H S O4)2 (H2 S O4), Ag H S O4 and Hg2 (H S 
O4)2
;
loop_
_citation_id
_citation_journal_abbrev
_citation_year
_citation_journal_volume
_citation_page_first
_citation_page_last
_citation_journal_id_ASTM
primary 'Zeitschrift fuer Anorganische und Allgemeine Chemie (1950) (DE)'
 1999 625 329 335 ZAACAB
_publ_author_name
;
Stiewe, A.;Kemnitz, E.;Troyanov, S.I.
;
_cell_length_a                     10.109(2)
_cell_length_b                     7.138(1)
_cell_length_c                     13.999(3)
_cell_angle_alpha                  90.
_cell_angle_beta                   90.
_cell_angle_gamma                  90.
_cell_volume                       1010.14
_cell_formula_units_Z              4
_symmetry_space_group_name_H-M     'P n a 21'
_symmetry_Int_Tables_number        33
_refine_ls_R_factor_all            .0217
loop_
_symmetry_equiv_pos_site_id
_symmetry_equiv_pos_as_xyz
  1	'x+.5, -y+.5, z'
  2	'-x+.5, y+.5, z+.5'
  3	'-x, -y, z+.5'
  4	'x, y, z'
loop_
_atom_type_symbol
_atom_type_oxidation_number
Ag1+	1
H1+	1
O2-	-2
S6+	6
loop_
_atom_site_label
_atom_site_type_symbol
_atom_site_symmetry_multiplicity
_atom_site_Wyckoff_symbol
_atom_site_fract_x
_atom_site_fract_y
_atom_site_fract_z
_atom_site_occupancy
_atom_site_attached_hydrogens
_atom_site_U_iso_or_equiv
Ag1 Ag1+ 4 a 0.65480(4) 0.12348(5) 0.80935(3) 1. 0 0 
Ag2 Ag1+ 4 a 0.86787(4) 0.74658(6) 0.66275(5) 1. 0 0 
S1 S6+ 4 a 0.59706(13) -.2727(2) 0.48029(9) 1. 0 0 
S2 S6+ 4 a 0.64380(12) 0.6337(2) 0.82870(8) 1. 0 0 
S3 S6+ 4 a 0.92038(13) 0.2829(2) 0.63885(8) 1. 0 0 
O1 O2- 4 a 0.5091(5) -.1387(7) 0.4396(3) 1. 0 0 
O2 O2- 4 a 0.5451(5) -.3625(5) 0.5662(3) 1. 0 0 
O3 O2- 4 a 0.6467(4) -.4126(7) 0.4138(3) 1. 0 0 
O4 O2- 4 a 0.7201(4) -.1642(5) 0.5187(3) 1. 0 0 
O5 O2- 4 a 0.6992(4) 0.7917(5) 0.7778(3) 1. 0 0 
O6 O2- 4 a 0.6898(5) 0.6273(6) 0.9287(3) 1. 0 0 
O7 O2- 4 a 0.6625(5) 0.4572(5) 0.7819(3) 1. 0 0 
O8 O2- 4 a 0.4934(4) 0.6799(6) 0.8319(3) 1. 0 0 
O9 O2- 4 a 0.8530(5) 0.1249(5) 0.6785(3) 1. 0 0 
O10 O2- 4 a 0.9580(5) 0.4312(6) 0.7022(3) 1. 0 0 
O11 O2- 4 a 1.0433(4) 0.2180(5) 0.5850(4) 1. 0 0 
O12 O2- 4 a 0.8337(4) 0.3790(5) 0.5631(3) 1. 0 0 
H1 H1+ 4 a 0.7242(99) -.0490(98) 0.4856(71) 1. 0 0.078(30) 
H2 H1+ 4 a 0.4568(75) 0.5901(86) 0.8724(51) 1. 0 0.042(20) 
H3 H1+ 4 a 1.065(13) 0.105(15) 0.5836(91) 1. 0 0.083(35) 
H4 H1+ 4 a 0.8276(74) 0.3217(98) 0.5028(39) 1. 0 0.035(17) 

loop_
_atom_site_aniso_label
_atom_site_aniso_type_symbol
_atom_site_aniso_U_11
_atom_site_aniso_U_22
_atom_site_aniso_U_33
_atom_site_aniso_U_12
_atom_site_aniso_U_13
_atom_site_aniso_U_23
Ag1 Ag1+ 0.0319(2) 0.0246(2) 0.0412(2) 0.0038(2) -.0067(2) -.0024(2)
Ag2 Ag1+ 0.0392(2) 0.0293(2) 0.0322(2) 0.0012(2) 0.0105(2) 0.00131(15)
S1 S6+ 0.0230(5) 0.0235(5) 0.0230(5) -.0040(4) 0.0024(4) -.0022(5)
S2 S6+ 0.0226(5) 0.0179(5) 0.0209(6) 0.0013(4) 0.0016(4) 0.0023(4)
S3 S6+ 0.0234(5) 0.0182(5) 0.0258(6) 0.0006(4) -.0018(4) -.0009(4)
O1 O2- 0.040(3) 0.049(3) 0.045(3) 0.009(2) -.010(2) 0.003(2)
O2 O2- 0.046(2) 0.027(2) 0.036(2) -.006(2) 0.018(2) -.001(2)
O3 O2- 0.031(2) 0.035(2) 0.033(2) -.006(2) 0.011(2) -.013(2)
O4 O2- 0.037(2) 0.026(2) 0.034(2) -.013(2) -.008(2) 0.006(2)
O5 O2- 0.033(2) 0.018(2) 0.038(2) -.0028(14) 0.012(2) 0.0033(14)
O6 O2- 0.046(2) 0.036(2) 0.025(2) 0.012(2) -.007(2) -.001(2)
O7 O2- 0.054(2) 0.018(2) 0.044(2) 0.001(2) 0.006(2) -.008(2)
O8 O2- 0.020(2) 0.036(2) 0.046(2) 0.0018(15) 0.0036(14) 0.013(2)
O9 O2- 0.043(3) 0.022(2) 0.037(2) 0.0004(15) 0.013(2) 0.0009(14)
O10 O2- 0.045(2) 0.028(2) 0.039(2) 0.005(2) -.012(2) -.010(2)
O11 O2- 0.028(2) 0.025(2) 0.052(2) 0.005(2) 0.011(2) 0.003(2)
O12 O2- 0.032(2) 0.027(2) 0.033(2) 0.0054(14) -.007(2) 0.0021(15)
#End of data_408949-ICSD


