data_72991-ICSD
#?2014 by Fachinformationszentrum Karlsruhe, and the U.S. Secretary of 
#Commerce on behalf of the United States.  All rights reserved.
_database_code_ICSD                72991
_audit_creation_date               1994/06/30
_chemical_name_systematic          'Tetrastrontium Trizinc Fluoride'
_chemical_formula_structural       'Sr4 Zn3 F14'
_chemical_formula_sum              'F14 Sr4 Zn3'
_publ_section_title
;
Crystal structure of Sr4Zn3F14: a new stoichiometry in MF2-M'F2 
systems
;
loop_
_citation_id
_citation_journal_abbrev
_citation_year
_citation_journal_volume
_citation_page_first
_citation_page_last
_citation_journal_id_ASTM
primary 'European Journal of Solid State Inorganic Chemistry'
 1993 30 595 607 EJSCE5
_publ_author_name
;
Karim, M.;El Ghozzi, M.;Latouche, C.;Avignant, D.
;
_cell_length_a                     6.743(1)
_cell_length_b                     11.683(1)
_cell_length_c                     7.191(2)
_cell_angle_alpha                  90.
_cell_angle_beta                   90.02(1)
_cell_angle_gamma                  90.
_cell_volume                       566.5
_cell_formula_units_Z              2
_symmetry_space_group_name_H-M     'C 1 m 1'
_symmetry_Int_Tables_number        8
_refine_ls_R_factor_all            .041
loop_
_symmetry_equiv_pos_site_id
_symmetry_equiv_pos_as_xyz
  1	'x, -y, z'
  2	'x, y, z'
  3	'x+.5, -y+.5, z'
  4	'x+.5, y+.5, z'
loop_
_atom_type_symbol
_atom_type_oxidation_number
F1-	-1
Sr2+	2
Zn2+	2
loop_
_atom_site_label
_atom_site_type_symbol
_atom_site_symmetry_multiplicity
_atom_site_Wyckoff_symbol
_atom_site_fract_x
_atom_site_fract_y
_atom_site_fract_z
_atom_site_occupancy
_atom_site_attached_hydrogens
_atom_site_U_iso_or_equiv
Zn1 Zn2+ 2 a 0.45 0 0.73 1. 0 0 
Zn2 Zn2+ 4 b 0.2656(4) 0.2721(2) 0.7301(4) 1. 0 0 
Sr1 Sr2+ 4 b -.0058(4) 0.6665(1) 0.2286(4) 1. 0 0 
Sr2 Sr2+ 2 a -.0056(4) 0 -.0086(4) 1. 0 0 
Sr3 Sr2+ 2 a -.0056(4) 0 0.4660(3) 1. 0 0 
F1 F1- 4 b 0.627(2) 0.6338(9) 0.231(2) 1. 0 0 
F2 F1- 2 a 0.732(2) 0 0.230(2) 1. 0 0.013(3) 
F3 F1- 2 a 0.387(3) 0 -.002(2) 1. 0 0 
F4 F1- 4 b 0.296(2) 0.696(1) -.002(2) 1. 0 0 
F5 F1- 4 b 0.111(3) 0.880(1) 0.731(2) 1. 0 0 
F6 F1- 2 a 0.387(3) 0 0.464(3) 1. 0 0 
F7 F1- 4 b 0.498(4) 0.166(2) 0.744(4) 1. 0 0 
F8 F1- 4 b 0.298(2) 0.302(1) 0.466(2) 1. 0 0 
F9 F1- 2 a 0.759(3) 0 0.730(3) 1. 0 0 

loop_
_atom_site_aniso_label
_atom_site_aniso_type_symbol
_atom_site_aniso_U_11
_atom_site_aniso_U_22
_atom_site_aniso_U_33
_atom_site_aniso_U_12
_atom_site_aniso_U_13
_atom_site_aniso_U_23
Zn1 Zn2+ 0.005(1) 0.044(2) 0.008(1) 0 0.001(1) 0
Zn2 Zn2+ 0.031(1) 0.0166(9) 0.0080(7) -.014(1) -.0001(8) 0.000(1)
Sr1 Sr2+ 0.0085(4) 0.0088(4) 0.0124(5) 0.0015(9) 0.0005(4) 0.0009(8)
Sr2 Sr2+ 0.0063(8) 0.0121(8) 0.0098(9) 0 -.0004(7) 0
Sr3 Sr2+ 0.0103(8) 0.0058(7) 0.0048(8) 0 0.0007(7) 0
F1 F1- 0.020(5) 0.013(4) 0.005(4) -.011(4) 0.007(4) -.004(4)
F3 F1- 0.013(7) 0.05(1) 0.005(6) 0 0.005(6) 0
F4 F1- 0.036(7) 0.013(5) 0.008(4) 0.000(5) 0.005(5) 0.006(4)
F5 F1- 0.10(1) 0.058(7) 0.017(6) 0.069(6) 0.003(7) -.009(6)
F6 F1- 0.019(8) 0.04(1) 0.015(8) 0 -.002(7) 0.0(1)
F7 F1- 0.044(8) 0.061(9) 0.039(8) -.01(1) 0.001(7) 0.01(1)
F8 F1- 0.022(6) 0.022(5) 0.009(5) -.005(5) -.005(5) -.004(1)
F9 F1- 0.016(9) 0.013(2) 0.011(8) 0 -.006(8) 0
#End of data_72991-ICSD


