data_201816-ICSD
#?2014 by Fachinformationszentrum Karlsruhe, and the U.S. Secretary of 
#Commerce on behalf of the United States.  All rights reserved.
_database_code_ICSD                201816
_audit_creation_date               1985/07/17
_audit_update_record               2006/04/01
_chemical_name_systematic          'Lithium Iodate(V) - Beta'
_chemical_formula_structural       'Li (I O3)'
_chemical_formula_sum              'I1 Li1 O3'
_publ_section_title
;
Neutron structure refinement of gamma- and beta-lithium: Comparison 
between alpha, gamma, and beta phases
;
loop_
_citation_id
_citation_journal_abbrev
_citation_year
_citation_journal_volume
_citation_page_first
_citation_page_last
_citation_journal_id_ASTM
primary 'Journal of Solid State Chemistry' 1985 56 133 147 JSSCBI
2 'Golden Book of Phase Transitions, Wroclaw' 2002 1 1 123 GBOPT5
_publ_author_name
;
Crettez, J.M.;Coquet, E.;Pannetier, J.;Bouillot, J.;Durand-Le Floch, 
M.
;
_cell_length_a                     9.7899(1)
_cell_length_b                     9.7899(1)
_cell_length_c                     6.1605(1)
_cell_angle_alpha                  90.
_cell_angle_beta                   90.
_cell_angle_gamma                  90.
_cell_volume                       590.44
_cell_formula_units_Z              8
_symmetry_space_group_name_H-M     'P 42/n Z'
_symmetry_Int_Tables_number        86
_refine_ls_R_factor_all            .036
loop_
_symmetry_equiv_pos_site_id
_symmetry_equiv_pos_as_xyz
  1	'-y+.5, x, -z+.5'
  2	'y, -x+.5, -z+.5'
  3	'x+.5, y+.5, -z'
  4	'-x, -y, -z'
  5	'y+.5, -x, z+.5'
  6	'-y, x+.5, z+.5'
  7	'-x+.5, -y+.5, z'
  8	'x, y, z'
loop_
_atom_type_symbol
_atom_type_oxidation_number
I5+	5
Li1+	1
O2-	-2
loop_
_atom_site_label
_atom_site_type_symbol
_atom_site_symmetry_multiplicity
_atom_site_Wyckoff_symbol
_atom_site_fract_x
_atom_site_fract_y
_atom_site_fract_z
_atom_site_occupancy
_atom_site_attached_hydrogens
_atom_site_U_iso_or_equiv
Li1 Li1+ 8 g 0.4313(8) 0.2297(7) 0.407(1) 1. 0 0 
I1 I5+ 8 g 0.0349(2) 0.7593(3) 0.1128(4) 1. 0 0.0200(5) 
O1 O2- 8 g 0.8336(3) 0.1205(2) -.0574(4) 1. 0 0 
O2 O2- 8 g 0.0823(2) 0.2051(2) 0.1053(3) 1. 0 0 
O3 O2- 8 g 0.8430(2) 0.5523(2) 0.1672(3) 1. 0 0 

loop_
_atom_site_aniso_label
_atom_site_aniso_type_symbol
_atom_site_aniso_U_11
_atom_site_aniso_U_22
_atom_site_aniso_U_33
_atom_site_aniso_U_12
_atom_site_aniso_U_13
_atom_site_aniso_U_23
Li1 Li1+ 0.064(7) 0.044(4) 0.035(5) -.009(4) -.025(4) -.007(4)
O1 O2- 0.037(2) 0.043(2) 0.080(2) -.014(2) 0.012(2) -.001(2)
O2 O2- 0.044(2) 0.059(2) 0.017(1) 0.013(1) -.006(1) 0.000(1)
O3 O2- 0.034(2) 0.052(1) 0.025(1) -.022(1) 0.008(1) 0.000(1)
#End of data_201816-ICSD


