data_171080-ICSD
#?2014 by Fachinformationszentrum Karlsruhe, and the U.S. Secretary of 
#Commerce on behalf of the United States.  All rights reserved.
_database_code_ICSD                171080
_audit_creation_date               2006/04/01
_audit_update_record               2013/02/01
_chemical_name_systematic          'Calcium Germanate'
_chemical_formula_structural       'Ca (Ge O3)'
_chemical_formula_sum              'Ca1 Ge1 O3'
_publ_section_title
;
Crystal structure of single-crystal Ca Ge O3 tetragonal garnet 
synthesized at 3 GPa and 1000 C
;
loop_
_citation_id
_citation_journal_abbrev
_citation_year
_citation_journal_volume
_citation_page_first
_citation_page_last
_citation_journal_id_ASTM
primary 'American Mineralogist' 2005 90 755 757 AMMIAY
_publ_author_name
;
Nakatsuka, A.;Chaya, H.;Yoshiasa, A.
;
_cell_length_a                     12.535(2)
_cell_length_b                     12.535(2)
_cell_length_c                     12.370(2)
_cell_angle_alpha                  90.
_cell_angle_beta                   90.
_cell_angle_gamma                  90.
_cell_volume                       1943.65
_cell_formula_units_Z              32
_symmetry_space_group_name_H-M     'I 41/a Z'
_symmetry_Int_Tables_number        88
_refine_ls_R_factor_all            .023
loop_
_symmetry_equiv_pos_site_id
_symmetry_equiv_pos_as_xyz
  1	'-y+.75, x+.75, -z+.75'
  2	'y+.25, -x+.75, -z+.75'
  3	'x, y+.5, -z'
  4	'-x, -y, -z'
  5	'y+.25, -x+.25, z+.25'
  6	'-y+.75, x+.25, z+.25'
  7	'-x, -y+.5, z'
  8	'x, y, z'
  9	'-y+.25, x+.25, -z+.25'
 10	'y+.75, -x+.25, -z+.25'
 11	'x+.5, y, -z+.5'
 12	'-x+.5, -y+.5, -z+.5'
 13	'y+.75, -x+.75, z+.75'
 14	'-y+.25, x+.75, z+.75'
 15	'-x+.5, -y, z+.5'
 16	'x+.5, y+.5, z+.5'
loop_
_atom_type_symbol
_atom_type_oxidation_number
Ca2+	2
Ge4+	4
O2-	-2
loop_
_atom_site_label
_atom_site_type_symbol
_atom_site_symmetry_multiplicity
_atom_site_Wyckoff_symbol
_atom_site_fract_x
_atom_site_fract_y
_atom_site_fract_z
_atom_site_occupancy
_atom_site_attached_hydrogens
_atom_site_U_iso_or_equiv
Ca1 Ca2+ 16 f 0.62459(9) 0.00296(7) 0.25307(8) 1. 0 0.00569 
Ca2 Ca2+ 8 e 0.5 0.25 0.62325(12) 1. 0 0.00574 
Ca3 Ca2+ 8 c 0.5 0.0 0.5 1. 0 0.00532 
Ge1 Ge4+ 8 d 0.5 0.0 0.0 1. 0 0.00365 
Ge2 Ge4+ 4 a 0.5 0.25 0.375 1. 0 0.00404 
Ge3 Ge4+ 4 b 0.5 0.25 0.875 1. 0 0.00483 
Ge4 Ge4+ 16 f 0.62647(5) 0.01509(4) 0.75723(5) 1. 0 0.00333 
O1 O2- 16 f 0.53087(28) 0.06623(29) 0.67127(26) 1. 0 0.00610 
O2 O2- 16 f 0.54303(27) -0.04195(28) 0.86141(26) 1. 0 0.00515 
O3 O2- 16 f 0.72260(29) 0.11082(28) 0.80554(25) 1. 0 0.00365 
O4 O2- 16 f 0.71030(29) -0.07756(29) 0.69968(28) 1. 0 0.00637 
O5 O2- 16 f 0.43278(27) 0.16676(28) 0.46628(26) 1. 0 0.00540 
O6 O2- 16 f 0.39650(29) 0.20977(28) 0.78439(28) 1. 0 0.00709 

loop_
_atom_site_aniso_label
_atom_site_aniso_type_symbol
_atom_site_aniso_U_11
_atom_site_aniso_U_22
_atom_site_aniso_U_33
_atom_site_aniso_U_12
_atom_site_aniso_U_13
_atom_site_aniso_U_23
Ca1 Ca2+ 0.0036(5) 0.0060(5) 0.0075(4) -0.0009(4) 0.0005(4) 0.0011(4)
Ca2 Ca2+ 0.0085(8) 0.0038(7) 0.0049(4) -0.0011(6) 0.0 0.0
Ca3 Ca2+ 0.0036(5) 0.0060(5) 0.0075(4) -0.0009(4) 0.0005(4) 0.0011(4)
Ge1 Ge4+ 0.0025(3) 0.0034(4) 0.0050(3) 0.0001(3) 0.0002(3) -0.0005(3)
Ge2 Ge4+ 0.0043(3) 0.0043 0.0035(4) 0.0 0.0 0.0
Ge3 Ge4+ 0.0025(3) 0.0034(4) 0.0050(3) 0.0001(3) 0.0002(3) -0.0005(3)
Ge4 Ge4+ 0.0024(3) 0.0028(2) 0.0048(2) -0.0001(2) 0.0002(2) -0.0003(2)
O1 O2- 0.0046(18) 0.0067(19) 0.0071(15) 0.0023(15) -0.0009(12) -0.0002(12)
O2 O2- 0.0041(17) 0.0061(18) 0.0053(15) -0.0019(13) 0.0012(12) -0.0016(12)
O3 O2- 0.0029(16) 0.0010(14) 0.0073(13) 0.0009(13) 0.0004(2) 0.0015(12)
O4 O2- 0.0057(18) 0.0041(18) 0.0094(15) 0.0033(15) 0.0012(12) -0.0010(13)
O5 O2- 0.0032(18) 0.0055(18) 0.0075(14) -0.0020(14) -0.0006(12) 0.0012(12)
O6 O2- 0.0049(18) 0.0046(19) 0.0118(16) 0.0031(14) 0.0008(13) -0.0024(13)
#End of data_171080-ICSD


