data_400802-ICSD
#?2014 by Fachinformationszentrum Karlsruhe, and the U.S. Secretary of 
#Commerce on behalf of the United States.  All rights reserved.
_database_code_ICSD                400802
_audit_creation_date               1995/01/10
_audit_update_record               2000/07/15
_chemical_name_systematic          'Potassium Pentacuprotrivanadate(V)'
_chemical_formula_structural       'K (Cu5 V3 O13)'
_chemical_formula_sum              'Cu5 K1 O13 V3'
_publ_section_title
;
Ein neues Alkalimetall-Kupfer-Oxovanadat: K Cu5 V3 O13
;
loop_
_citation_id
_citation_journal_abbrev
_citation_year
_citation_journal_volume
_citation_page_first
_citation_page_last
_citation_journal_id_ASTM
primary 'Zeitschrift fuer Naturforschung, B: Chemical Sciences'
 1994 49 1137 1140 ZNBSEN
_publ_author_name                  'Martin, F.D.;Mueller Buschbaum, H.'
_cell_length_a                     6.086(3)
_cell_length_b                     8.261(3)
_cell_length_c                     10.694(3)
_cell_angle_alpha                  97.82(3)
_cell_angle_beta                   92.32(3)
_cell_angle_gamma                  90.48(3)
_cell_volume                       532.17
_cell_formula_units_Z              2
_symmetry_space_group_name_H-M     'P -1'
_symmetry_Int_Tables_number        2
_refine_ls_R_factor_all            .052
loop_
_symmetry_equiv_pos_site_id
_symmetry_equiv_pos_as_xyz
  1	'-x, -y, -z'
  2	'x, y, z'
loop_
_atom_type_symbol
_atom_type_oxidation_number
Cu2+	2
K1+	1
O2-	-2
V5+	5
loop_
_atom_site_label
_atom_site_type_symbol
_atom_site_symmetry_multiplicity
_atom_site_Wyckoff_symbol
_atom_site_fract_x
_atom_site_fract_y
_atom_site_fract_z
_atom_site_occupancy
_atom_site_attached_hydrogens
_atom_site_B_iso_or_equiv
K1 K1+ 2 i 0.2459(3) 0.5176(3) 0.4011(2) 1. 0 1.29(3) 
Cu1 Cu2+ 2 i 0.2302(2) 0.6101(2) 0.1051(1) 1. 0 1.06(2) 
Cu2 Cu2+ 2 i 0.5047(2) 0.1056(2) 0.7688(1) 1. 0 0.82(2) 
Cu3 Cu2+ 2 i 0.2729(2) 0.8560(2) 0.9410(1) 1. 0 1.05(2) 
Cu4 Cu2+ 2 i 0.0022(2) 0.1041(2) 0.7727(1) 1. 0 0.83(2) 
Cu5 Cu2+ 2 i 0.2565(2) 0.8094(2) 0.6459(1) 1. 0 0.93(2) 
V1 V5+ 2 i 0.2553(3) 0.1836(2) 0.1201(2) 1. 0 0.72(2) 
V2 V5+ 2 i 0.2573(3) 0.4724(2) 0.7868(2) 1. 0 0.65(2) 
V3 V5+ 2 i 0.2415(3) 0.1266(2) 0.4952(2) 1. 0 0.69(2) 
O1 O2- 2 i 0.247(1) 0.051(1) 0.657(1) 1. 0 0.73(4) 
O2 O2- 2 i 0.759(1) 0.156(1) 0.881(1) 1. 0 0.75(4) 
O3 O2- 2 i 0.241(1) 0.382(1) 0.120(1) 1. 0 1.25(4) 
O4 O2- 2 i 0.026(1) 0.348(1) 0.778(1) 1. 0 0.93(4) 
O5 O2- 2 i 0.268(1) 0.613(1) 0.923(1) 1. 0 1.18(4) 
O6 O2- 2 i 0.268(1) 0.097(1) 0.967(1) 1. 0 1.06(4) 
O7 O2- 2 i 0.252(1) 0.577(1) 0.663(1) 1. 0 1.14(4) 
O8 O2- 2 i 0.256(1) 0.966(1) 0.385(1) 1. 0 1.18(4) 
O9 O2- 2 i 0.491(1) 0.865(1) 0.799(1) 1. 0 0.87(4) 
O10 O2- 2 i 0.008(1) 0.230(1) 0.468(1) 1. 0 1.09(4) 
O11 O2- 2 i 0.019(1) 0.127(1) 0.187(1) 1. 0 0.91(4) 
O12 O2- 2 i 0.455(1) 0.249(1) 0.482(1) 1. 0 1.32(4) 
O13 O2- 2 i 0.521(1) 0.652(1) 0.224(1) 1. 0 1.12(4) 

#End of data_400802-ICSD


