data_44507-ICSD
#?2014 by Fachinformationszentrum Karlsruhe, and the U.S. Secretary of 
#Commerce on behalf of the United States.  All rights reserved.
_database_code_ICSD                44507
_audit_creation_date               2000/12/16
_audit_update_record               2011/02/01
_chemical_name_systematic          'Silver Sulfide - Lt'
_chemical_formula_structural       'Ag2 S'
_chemical_formula_sum              'Ag2 S1'
_chemical_name_mineral             Acanthite
_publ_section_title
;
The crystallography of silver sulfide, Ag2 S
;
loop_
_citation_id
_citation_journal_abbrev
_citation_year
_citation_journal_volume
_citation_page_first
_citation_page_last
_citation_journal_id_ASTM
primary
;
Zeitschrift fuer Kristallographie, Kristallgeometrie, Kristallphysik, 
Kristallchemie (-144,1977)
;
 1958 110 136 144 ZEKGAX
2 'Phase Transition' 1992 38 127 220 PHTRDP
_publ_author_name                  'Frueh, A.J.jr.'
_cell_length_a                     4.23
_cell_length_b                     6.91
_cell_length_c                     7.87
_cell_angle_alpha                  90.
_cell_angle_beta                   99.58
_cell_angle_gamma                  90.
_cell_volume                       226.83
_cell_formula_units_Z              4
_symmetry_space_group_name_H-M     'P 1 21/n 1'
_symmetry_Int_Tables_number        14
_refine_ls_R_factor_all            .27
loop_
_symmetry_equiv_pos_site_id
_symmetry_equiv_pos_as_xyz
  1	'-x+.5, y+.5, -z+.5'
  2	'-x, -y, -z'
  3	'x+.5, -y+.5, z+.5'
  4	'x, y, z'
loop_
_atom_type_symbol
_atom_type_oxidation_number
Ag1+	1
S2-	-2
loop_
_atom_site_label
_atom_site_type_symbol
_atom_site_symmetry_multiplicity
_atom_site_Wyckoff_symbol
_atom_site_fract_x
_atom_site_fract_y
_atom_site_fract_z
_atom_site_occupancy
_atom_site_attached_hydrogens
_atom_site_B_iso_or_equiv
Ag1 Ag1+ 4 e 0.758 0.015 0.305 1. 0 1.01 
Ag2 Ag1+ 4 e 0.285 0.32 0.435 1. 0 1.16 
S1 S2- 4 e 0.359 0.239 0.134 1. 0 0.93 

#End of data_44507-ICSD


