data_186818-ICSD
#?2014 by Fachinformationszentrum Karlsruhe, and the U.S. Secretary of 
#Commerce on behalf of the United States.  All rights reserved.
_database_code_ICSD                186818
_audit_creation_date               2013/08/01
_chemical_name_systematic          'Potassium Dihydrogen Phosphate'
_chemical_formula_structural       'K H2 (P O4)'
_chemical_formula_sum              'H2 K1 O4 P1'
_publ_section_title
;
Crystal structure of high-pressure phases V and VI of potassium 
dihydrogen phosphate
;
loop_
_citation_id
_citation_journal_abbrev
_citation_year
_citation_journal_volume
_citation_journal_issue
_citation_page_first
_citation_page_last
_citation_journal_id_ASTM
primary 'Journal of the Physical Society of Japan' 2012 81 6 064706-1 064706-5 JUPSAU
_publ_author_name
;
Nakamoto, Yuki;Sakata, Masafumi;Fujihisa, Hiroshi;Shimizu, 
Katsuya;Deguchi, Kiyoshi
;
_cell_length_a                     6.153(1)
_cell_length_b                     6.871(1)
_cell_length_c                     7.041(1)
_cell_angle_alpha                  92.83(1)
_cell_angle_beta                   86.51(1)
_cell_angle_gamma                  93.65(1)
_cell_volume                       296.21
_cell_formula_units_Z              4
_symmetry_space_group_name_H-M     'P -1'
_symmetry_Int_Tables_number        2
_refine_ls_R_factor_all            .0044
loop_
_symmetry_equiv_pos_site_id
_symmetry_equiv_pos_as_xyz
  1	'-x, -y, -z'
  2	'x, y, z'
loop_
_atom_type_symbol
_atom_type_oxidation_number
H1+	1
K1+	1
O2-	-2
P5+	5
loop_
_atom_site_label
_atom_site_type_symbol
_atom_site_symmetry_multiplicity
_atom_site_Wyckoff_symbol
_atom_site_fract_x
_atom_site_fract_y
_atom_site_fract_z
_atom_site_occupancy
_atom_site_attached_hydrogens
K1 K1+ 2 i 0.7855 0.1700 0.0835 1. 0 
K2 K1+ 2 i 0.1814 0.6470 0.3875 1. 0 
P1 P5+ 2 i 0.3066 0.1501 0.3652 1. 0 
P2 P5+ 2 i 0.7509 0.6538 0.1352 1. 0 
O1 O2- 2 i 0.4685 0.3146 0.4238 1. 0 
O2 O2- 2 i 0.2570 0.0105 0.5292 1. 0 
O3 O2- 2 i 0.0928 0.2397 0.3269 1. 0 
O4 O2- 2 i 0.3907 0.0353 0.1907 1. 0 
O5 O2- 2 i 0.8103 0.5644 -0.0616 1. 0 
O6 O2- 2 i 0.5154 0.7157 0.1464 1. 0 
O7 O2- 2 i 0.9074 0.8278 0.1830 1. 0 
O8 O2- 2 i 0.7670 0.4948 0.2761 1. 0 
H1 H1+ 2 i 0.6022 0.4104 0.3400 1. 0 
H2 H1+ 2 i 0.1385 0.3374 0.1873 1. 0 
H3 H1+ 2 i 0.4757 0.8687 0.1788 1. 0 
H4 H1+ 2 i 0.8275 0.9234 0.3483 1. 0 

#End of data_186818-ICSD


