data_82713-ICSD
#?2014 by Fachinformationszentrum Karlsruhe, and the U.S. Secretary of 
#Commerce on behalf of the United States.  All rights reserved.
_database_code_ICSD                82713
_audit_creation_date               1998/06/26
_audit_update_record               2009/02/01
_chemical_name_systematic
;
Tetrasodium Trinickel Bis(phosphate(V)) Diphosphate(V)
;
_chemical_formula_structural       'Na4 Ni3 (P O4)2 (P2 O7)'
_chemical_formula_sum              'Na4 Ni3 O15 P4'
_publ_section_title
;
Synthesis and structure of a new phosphate Na4 Ni3 (P O4)2 P2 O7
;
loop_
_citation_id
_citation_journal_abbrev
_citation_year
_citation_journal_volume
_citation_journal_issue
_citation_page_first
_citation_page_last
_citation_journal_id_ASTM
primary Kristallografiya 1996 41 5 835 838 KRISAJ
2 'Crystallography Reports' 1996 41- 793 796 CYSTE3
_publ_author_name
;
Nagornyi, P.G.;Kapshuk, A.A.;Sobolev, A.N.;Golego, N.V.
;
_cell_length_a                     18.0130(40)
_cell_length_b                     10.411(2)
_cell_length_c                     6.496(1)
_cell_angle_alpha                  90.
_cell_angle_beta                   90.
_cell_angle_gamma                  90.
_cell_volume                       1218.22
_cell_formula_units_Z              4
_symmetry_space_group_name_H-M     'P n a 21'
_symmetry_Int_Tables_number        33
_refine_ls_R_factor_all            .026
loop_
_symmetry_equiv_pos_site_id
_symmetry_equiv_pos_as_xyz
  1	'x+.5, -y+.5, z'
  2	'-x+.5, y+.5, z+.5'
  3	'-x, -y, z+.5'
  4	'x, y, z'
loop_
_atom_type_symbol
_atom_type_oxidation_number
Na1+	1
Ni2+	2
O2-	-2
P5+	5
loop_
_atom_site_label
_atom_site_type_symbol
_atom_site_symmetry_multiplicity
_atom_site_Wyckoff_symbol
_atom_site_fract_x
_atom_site_fract_y
_atom_site_fract_z
_atom_site_occupancy
_atom_site_attached_hydrogens
_atom_site_U_iso_or_equiv
Ni1 Ni2+ 4 a 0.36154(5) 0.0048(1) 0 1. 0 0.004(1) 
Ni2 Ni2+ 4 a 0.16928(6) -.0047(1) 0.5113(3) 1. 0 0.004(1) 
Ni3 Ni2+ 4 a 0.24002(6) 0.2560(1) 0.2345(3) 1. 0 0.004(1) 
P1 P5+ 4 a 0.3208(1) 0.0120(2) 0.4929(5) 1. 0 0.004(1) 
P2 P5+ 4 a 0.2103(1) -.0024 0.0043(5) 1. 0 0.004(1) 
P3 P5+ 4 a 0.5500(1) 0.7275(2) 0.5468(5) 1. 0 0.003(1) 
P4 P5+ 4 a 0.4295(1) 0.7337(2) 0.8588(5) 1. 0 0.002(1) 
Na1 Na1+ 4 a 0.2968(2) 0.2514(4) 0.7584(7) 1. 0 0.014(1) 
Na2 Na1+ 4 a 0.4609(2) 0.4600(4) 0.5757(7) 1. 0 0.014(1) 
Na3 Na1+ 4 a 0.3899(2) 0.7376(4) 0.3242(7) 1. 0 0.012(1) 
Na4 Na1+ 4 a 0.4934(2) 0.0264(3) 0.7235(8) 1. 0 0.010(1) 
O1 O2- 4 a 0.3733(4) -.0147(6) 0.3149(13) 1. 0 0.010(2) 
O2 O2- 4 a 0.3648(4) 0.0439(7) 0.6889(12) 1. 0 0.010(2) 
O3 O2- 4 a 0.2679(3) 0.8948(6) 0.5184(13) 1. 0 0.007(2) 
O4 O2- 4 a 0.2654(4) 0.1252(7) 0.4594(11) 1. 0 0.006(2) 
O5 O2- 4 a 0.1638(4) -.0364(6) 0.1946(11) 1. 0 0.005(2) 
O6 O2- 4 a 0.2673(4) 0.8865(7) -.0342(11) 1. 0 0.006(2) 
O7 O2- 4 a 0.2632(3) 0.1143(6) 0.0361(12) 1. 0 0.006(2) 
O8 O2- 4 a 0.1599(4) 0.0234(7) 0.8213(11) 1. 0 0.007(2) 
O9 O2- 4 a 0.5452(3) 0.8730(5) 0.5180(12) 1. 0 0.007(2) 
O10 O2- 4 a 0.5063(4) 0.6530(6) 0.3912(12) 1. 0 0.010(2) 
O11 O2- 4 a 0.6290(3) 0.6838(6) 0.5712(11) 1. 0 0.006(2) 
O12 O2- 4 a 0.5111(3) 0.6957(6) 0.7694(11) 1. 0 0.005(2) 
O13 O2- 4 a 0.3742(4) 0.7411(7) 0.6834(10) 1. 0 0.006(2) 
O14 O2- 4 a 0.4400(4) 0.8606(6) 0.9696(10) 1. 0 0.006(2) 
O15 O2- 4 a 0.4145(3) 0.6259(6) 0.0068(13) 1. 0 0.008(2) 

#End of data_82713-ICSD


