data_49764-ICSD
#?2014 by Fachinformationszentrum Karlsruhe, and the U.S. Secretary of 
#Commerce on behalf of the United States.  All rights reserved.
_database_code_ICSD                49764
_audit_creation_date               1986/04/14
_chemical_name_systematic
;
Dodecacalcium Potassium Fluoride Dioxide Tetrakis(silicate) 
Bis(sulfate)
;
_chemical_formula_structural       'K F (Ca6 (S O4) (Si O4)2 O)2'
_chemical_formula_sum              'Ca12 F1 K1 O26 S2 Si4'
_publ_section_title
;
Structure of Dodecacalcium Potassium Fluoride Dioxide Tetrasilicate 
Bis(sulfate), K F.2 (Ca6 (S O4) (Si O4)2 O) a Fluorine-Containing 
Phase Encountered in Cement Clinker
;
loop_
_citation_id
_citation_journal_abbrev
_citation_year
_citation_journal_volume
_citation_page_first
_citation_page_last
_citation_journal_id_ASTM
primary 'Acta Crystallographica, Section C: Crystal Structure Communications'
 1985 41 814 816 ACSCEE
_publ_author_name
;
Fayos, J.;Glasser, F.P.;Howie, R.A.;Lachowski, E.E.;Perez-Mendez, M.
;
_cell_length_a                     7.197(5)
_cell_length_b                     7.197(5)
_cell_length_c                     41.224(28)
_cell_angle_alpha                  90.
_cell_angle_beta                   90.
_cell_angle_gamma                  120.
_cell_volume                       1849.2
_cell_formula_units_Z              3
_symmetry_space_group_name_H-M     'R -3 m H'
_symmetry_Int_Tables_number        166
_refine_ls_R_factor_all            .046
loop_
_symmetry_equiv_pos_site_id
_symmetry_equiv_pos_as_xyz
  1	'x-y, -y, -z'
  2	'-x, -x+y, -z'
  3	'y, x, -z'
  4	'x-y, x, -z'
  5	'y, -x+y, -z'
  6	'-x, -y, -z'
  7	'-x+y, y, z'
  8	'x, x-y, z'
  9	'-y, -x, z'
 10	'-x+y, -x, z'
 11	'-y, x-y, z'
 12	'x, y, z'
 13	'x-y+.6666, -y+.3333, -z+.3333'
 14	'x-y+.3333, -y+.6666, -z+.6666'
 15	'-x+.6666, -x+y+.3333, -z+.3333'
 16	'-x+.3333, -x+y+.6666, -z+.6666'
 17	'y+.6666, x+.3333, -z+.3333'
 18	'y+.3333, x+.6666, -z+.6666'
 19	'x-y+.6666, x+.3333, -z+.3333'
 20	'x-y+.3333, x+.6666, -z+.6666'
 21	'y+.6666, -x+y+.3333, -z+.3333'
 22	'y+.3333, -x+y+.6666, -z+.6666'
 23	'-x+.6666, -y+.3333, -z+.3333'
 24	'-x+.3333, -y+.6666, -z+.6666'
 25	'-x+y+.6666, y+.3333, z+.3333'
 26	'-x+y+.3333, y+.6666, z+.6666'
 27	'x+.6666, x-y+.3333, z+.3333'
 28	'x+.3333, x-y+.6666, z+.6666'
 29	'-y+.6666, -x+.3333, z+.3333'
 30	'-y+.3333, -x+.6666, z+.6666'
 31	'-x+y+.6666, -x+.3333, z+.3333'
 32	'-x+y+.3333, -x+.6666, z+.6666'
 33	'-y+.6666, x-y+.3333, z+.3333'
 34	'-y+.3333, x-y+.6666, z+.6666'
 35	'x+.6666, y+.3333, z+.3333'
 36	'x+.3333, y+.6666, z+.6666'
loop_
_atom_type_symbol
_atom_type_oxidation_number
Ca2+	2
F1-	-1
K1+	1
O2-	-2
S6+	6
Si4+	4
loop_
_atom_site_label
_atom_site_type_symbol
_atom_site_symmetry_multiplicity
_atom_site_Wyckoff_symbol
_atom_site_fract_x
_atom_site_fract_y
_atom_site_fract_z
_atom_site_occupancy
_atom_site_attached_hydrogens
_atom_site_B_iso_or_equiv
Ca1 Ca2+ 18 h 0.1593(2) 0.8407 0.3979(2) 1. 0 0.89 
Ca2 Ca2+ 18 h 0.1533(2) 0.8467 0.5324(3) 1. 0 0.8 
O1 O2- 18 h 0.5564(6) 0.4436 -.3548(8) 1. 0 1.5(7) 
O2 O2- 18 h 0.1235(6) 0.8765 0.1946(8) 1. 0 1.3(6) 
O3 O2- 18 h 0.1261(5) 0.8739 0.0728(8) 1. 0 1.1(6) 
O4 O2- 6 c 0 1 0.3604(1) 1. 0 1.0(1) 
O5 O2- 6 c 0 1 -.2464(1) 1. 0 1.2(1) 
O6 O2- 6 c 0 1 0.1233(1) 1. 0 0.8(1) 
O7 O2- 6 c 0 1 0.4303(1) 1. 0 0.5(1) 
S1 S6+ 6 c 0 1 -.3243(8) 1. 0 0.73(1) 
Si1 Si4+ 6 c 0 1 0.2064(6) 1. 0 0.71(1) 
Si2 Si4+ 6 c 0 1 0.0832(6) 1. 0 0.78(1) 
K1 K1+ 3 a 0 1 0 1. 0 2.13(1) 
F1 F1- 3 b 0 1 0.5 1. 0 1.4(1) 

#End of data_49764-ICSD


