data_418461-ICSD
#?2014 by Fachinformationszentrum Karlsruhe, and the U.S. Secretary of 
#Commerce on behalf of the United States.  All rights reserved.
_database_code_ICSD                418461
_audit_creation_date               2009/02/01
_chemical_name_systematic          'Potassium Barium Vanadate(V)'
_chemical_formula_structural       'K Ba (V O4)'
_chemical_formula_sum              'Ba1 K1 O4 V1'
_publ_section_title
;
Crystal growth of alkaline earth vanadates from hydroxide fluxes
;
loop_
_citation_id
_citation_journal_abbrev
_citation_year
_citation_journal_volume
_citation_journal_issue
_citation_page_first
_citation_page_last
_citation_journal_id_ASTM
primary 'European Journal of Inorganic Chemistry  (online)'
 2008 2008 4 370 376 EJICFO
_publ_author_name
;
Mugavero III, S.J.;Bharathy, M.;McAlum, J.;zur Loye, H.C.
;
_cell_length_a                     7.802(4)
_cell_length_b                     5.908(3)
_cell_length_c                     10.376(5)
_cell_angle_alpha                  90
_cell_angle_beta                   90
_cell_angle_gamma                  90
_cell_volume                       478.27
_cell_formula_units_Z              4
_symmetry_space_group_name_H-M     'P n m a'
_symmetry_Int_Tables_number        62
_refine_ls_R_factor_all            .0186
loop_
_symmetry_equiv_pos_site_id
_symmetry_equiv_pos_as_xyz
  1	'x+.5, y, -z+.5'
  2	'x, -y+.5, z'
  3	'-x+.5, y+.5, z+.5'
  4	'-x, -y, -z'
  5	'-x+.5, -y, z+.5'
  6	'-x, y+.5, -z'
  7	'x+.5, -y+.5, -z+.5'
  8	'x, y, z'
loop_
_atom_type_symbol
_atom_type_oxidation_number
Ba2+	2
K1+	1
O2-	-2
V5+	5
loop_
_atom_site_label
_atom_site_type_symbol
_atom_site_symmetry_multiplicity
_atom_site_Wyckoff_symbol
_atom_site_fract_x
_atom_site_fract_y
_atom_site_fract_z
_atom_site_occupancy
_atom_site_attached_hydrogens
_atom_site_U_iso_or_equiv
Ba1 Ba2+ 4 c 0.507119(17) 0.2500 0.304904(13) 1 0 0.01206(6) 
V1 V5+ 4 c 0.26907(5) 0.2500 0.58253(4) 1 0 0.00962(8) 
K1 K1+ 4 c 0.83924(8) 0.2500 0.57966(6) 1 0 0.01964(12) 
O1 O2- 4 c 0.4875(3) 0.2500 0.5764(2) 1 0 0.0222(5) 
O2 O2- 4 c 0.1924(3) 0.2500 0.42729(17) 1 0 0.0175(4) 
O3 O2- 8 d 0.2015(2) 0.0112(2) 0.66069(14) 1 0 0.0198(3) 

loop_
_atom_site_aniso_label
_atom_site_aniso_type_symbol
_atom_site_aniso_U_11
_atom_site_aniso_U_22
_atom_site_aniso_U_33
_atom_site_aniso_U_12
_atom_site_aniso_U_13
_atom_site_aniso_U_23
Ba1 Ba2+ 0.00994(8) 0.01613(9) 0.01011(8) 0.000 0.00013(4) 0.000
V1 V5+ 0.00959(18) 0.01012(18) 0.00914(14) 0.000 0.00021(13) 0.000
K1 K1+ 0.0174(3) 0.0193(3) 0.0222(2) 0.000 -0.0030(2) 0.000
O1 O2- 0.0114(9) 0.0373(15) 0.0179(9) 0.000 -0.0008(6) 0.000
O2 O2- 0.0160(9) 0.0246(10) 0.0120(7) 0.000 -0.0032(6) 0.000
O3 O2- 0.0225(7) 0.0142(7) 0.0228(6) -0.0011(5) 0.0054(5) 0.0058(5)
#End of data_418461-ICSD


