data_417276-ICSD
#?2014 by Fachinformationszentrum Karlsruhe, and the U.S. Secretary of 
#Commerce on behalf of the United States.  All rights reserved.
_database_code_ICSD                417276
_audit_creation_date               2008/02/01
_audit_update_record               2011/02/01
_chemical_name_systematic          'Dilithium Oxovanadosilicate'
_chemical_formula_structural       'Li2 (V O) (Si O4)'
_chemical_formula_sum              'Li2 O5 Si1 V1'
_publ_section_title
;
High temperature structural behaviour of Li2 V O Si O4
;
loop_
_citation_id
_citation_journal_abbrev
_citation_year
_citation_journal_volume
_citation_journal_issue
_citation_page_first
_citation_page_last
_citation_journal_id_ASTM
primary 'Zeitschrift fuer Kristallographie (1979-2010)' 2007 222 7 350 355 ZEKRDZ
_publ_author_name
;
Zema, M.;Tarantino, S.C.;Ghigna, P.;Montagna, G.
;
_cell_length_a                     6.3871(4)
_cell_length_b                     6.3871(4)
_cell_length_c                     4.5080(5)
_cell_angle_alpha                  90.
_cell_angle_beta                   90.
_cell_angle_gamma                  90.
_cell_volume                       183.9
_cell_formula_units_Z              2
_symmetry_space_group_name_H-M     'P 4/n m m Z'
_symmetry_Int_Tables_number        129
_refine_ls_R_factor_all            .0314
loop_
_symmetry_equiv_pos_site_id
_symmetry_equiv_pos_as_xyz
  1	'y+.5, x+.5, -z'
  2	'-y, x+.5, -z'
  3	'y+.5, -x, -z'
  4	'-y, -x, -z'
  5	'x+.5, y+.5, -z'
  6	'-x, y+.5, -z'
  7	'x+.5, -y, -z'
  8	'-x, -y, -z'
  9	'-y+.5, -x+.5, z'
 10	'y, -x+.5, z'
 11	'-y+.5, x, z'
 12	'y, x, z'
 13	'-x+.5, -y+.5, z'
 14	'x, -y+.5, z'
 15	'-x+.5, y, z'
 16	'x, y, z'
loop_
_atom_type_symbol
_atom_type_oxidation_number
Li1+	1
O2-	-2
Si4+	4
V4+	4
loop_
_atom_site_label
_atom_site_type_symbol
_atom_site_symmetry_multiplicity
_atom_site_Wyckoff_symbol
_atom_site_fract_x
_atom_site_fract_y
_atom_site_fract_z
_atom_site_occupancy
_atom_site_attached_hydrogens
_atom_site_U_iso_or_equiv
V1 V4+ 2 c 0.2500 0.2500 0.4151(3) 1 0 0.0133(4) 
Si1 Si4+ 2 b 0.7500 0.2500 0.5000 1 0 0.0090(5) 
O1 O2- 8 i 0.5435(2) 0.2500 0.2860(4) 1 0 0.0183(6) 
O2 O2- 2 c 0.2500 0.2500 0.7758(12) 1 0 0.0294(15) 
Li1 Li1+ 4 d 0.5000 0.0000 0.0000 1 0 0.047(3) 

loop_
_atom_site_aniso_label
_atom_site_aniso_type_symbol
_atom_site_aniso_U_11
_atom_site_aniso_U_22
_atom_site_aniso_U_33
_atom_site_aniso_U_12
_atom_site_aniso_U_13
_atom_site_aniso_U_23
V1 V4+ 0.0118(5) 0.0118(5) 0.0162(7) 0.000 0.000 0.000
Si1 Si4+ 0.0066(6) 0.0066(6) 0.0139(10) 0.000 0.000 0.000
O1 O2- 0.0105(13) 0.0242(13) 0.0201(13) 0.000 -0.0011(10) 0.000
O2 O2- 0.035(2) 0.035(2) 0.018(3) 0.000 0.000 0.000
Li1 Li1+ 0.046(4) 0.046(4) 0.050(7) -0.001(7) 0.014(4) -0.014(4)
#End of data_417276-ICSD


