data_170819-ICSD
#?2014 by Fachinformationszentrum Karlsruhe, and the U.S. Secretary of 
#Commerce on behalf of the United States.  All rights reserved.
_database_code_ICSD                170819
_audit_creation_date               2006/04/01
_chemical_name_systematic          'Calcium Copper Germanate'
_chemical_formula_structural       'Ca Cu Ge2 O6'
_chemical_formula_sum              'Ca1 Cu1 Ge2 O6'
_chemical_name_mineral             Clinopyroxene
_publ_section_title
;
Crystal structure of the clinopyroxene-type compound Ca Cu Ge2 O6 
between 15 K and 700 K
;
loop_
_citation_id
_citation_journal_abbrev
_citation_year
_citation_journal_volume
_citation_page_first
_citation_page_last
_citation_journal_id_ASTM
primary 'Acta Crystallographica, Section B: Structural Science'
 2005 61 367 380 ASBSDK
_publ_author_name
;
Redhammer, G.J.;Tippelt, G.;Merz, M.;Roth, G.;Treutmann, W.;Amthauer, 
G.
;
_cell_length_a                     10.2170(12)
_cell_length_b                     9.2515(7)
_cell_length_c                     5.2446(6)
_cell_angle_alpha                  90
_cell_angle_beta                   105.964(12)
_cell_angle_gamma                  90
_cell_volume                       476.62
_cell_formula_units_Z              4
_symmetry_space_group_name_H-M     'P 1 21/c 1'
_symmetry_Int_Tables_number        14
_refine_ls_R_factor_all            .047
loop_
_symmetry_equiv_pos_site_id
_symmetry_equiv_pos_as_xyz
  1	'x, -y+.5, z+.5'
  2	'-x, -y, -z'
  3	'-x, y+.5, -z+.5'
  4	'x, y, z'
loop_
_atom_type_symbol
_atom_type_oxidation_number
Ca2+	2
Cu2+	2
Ge4+	4
O2-	-2
loop_
_atom_site_label
_atom_site_type_symbol
_atom_site_symmetry_multiplicity
_atom_site_Wyckoff_symbol
_atom_site_fract_x
_atom_site_fract_y
_atom_site_fract_z
_atom_site_occupancy
_atom_site_attached_hydrogens
_atom_site_U_iso_or_equiv
Ca1 Ca2+ 4 e 0.2800(2) 0.4521(2) 0.8015(4) 1 0 0.0168(4) 
Cu1 Cu2+ 4 e 0.22967(11) 0.66017(13) 0.2548(2) 1 0 0.0126(3) 
Ge1 Ge4+ 4 e 0.04796(9) 0.34941(11) 0.21112(19) 1 0 0.0089(2) 
Ge2 Ge4+ 4 e 0.48868(9) 0.34967(11) 0.3851(2) 1 0 0.0129(3) 
O1 O2- 4 e -0.1274(6) 0.3595(8) 0.1154(13) 1 0 0.0140(14) 
O2 O2- 4 e 0.6574(6) 0.3206(6) 0.3824(13) 1 0 0.0106(13) 
O3 O2- 4 e 0.1427(8) 0.4920(7) 0.3743(16) 1 0 0.0210(18) 
O4 O2- 4 e 0.4301(8) 0.5180(7) 0.2543(16) 1 0 0.0229(17) 
O5 O2- 4 e 0.1039(7) 0.1973(7) 0.4294(15) 1 0 0.0162(16) 
O6 O2- 4 e 0.3999(7) 0.2542(8) 0.5773(15) 1 0 0.0161(15) 

loop_
_atom_site_aniso_label
_atom_site_aniso_type_symbol
_atom_site_aniso_U_11
_atom_site_aniso_U_22
_atom_site_aniso_U_33
_atom_site_aniso_U_12
_atom_site_aniso_U_13
_atom_site_aniso_U_23
Ca1 Ca2+ 0.0187(9) 0.0144(8) 0.0166(10) 0.0017(8) 0.0037(8) 0.0028(8)
Cu1 Cu2+ 0.0138(5) 0.0108(5) 0.0106(6) -0.0032(5) -0.0010(4) -0.0002(4)
Ge1 Ge4+ 0.0076(4) 0.0081(4) 0.0098(5) -0.0010(4) 0.0003(3) -0.0009(4)
Ge2 Ge4+ 0.0098(5) 0.0091(5) 0.0210(5) 0.0020(4) 0.0059(4) 0.0043(4)
O1 O2- 0.012(3) 0.015(3) 0.014(3) 0.004(3) 0.002(3) -0.002(3)
O2 O2- 0.013(3) 0.007(3) 0.010(3) 0.001(2) 0.001(3) 0.000(2)
O3 O2- 0.030(4) 0.012(3) 0.019(4) -0.014(3) 0.001(3) -0.001(3)
O4 O2- 0.034(4) 0.012(3) 0.021(4) 0.004(3) 0.005(3) 0.002(3)
O5 O2- 0.012(3) 0.020(4) 0.017(4) 0.004(2) 0.005(3) 0.004(3)
O6 O2- 0.014(3) 0.021(4) 0.016(4) -0.007(3) 0.008(3) 0.001(3)
#End of data_170819-ICSD


