data_69381-ICSD
#?2014 by Fachinformationszentrum Karlsruhe, and the U.S. Secretary of 
#Commerce on behalf of the United States.  All rights reserved.
_database_code_ICSD                69381
_audit_creation_date               1992/08/20
_audit_update_record               1999/01/19
_chemical_name_systematic          'Calcium Nickel Catena-disilicate'
_chemical_formula_structural       'Ca Ni (Si2 O6)'
_chemical_formula_sum              'Ca1 Ni1 O6 Si2'
_chemical_name_mineral             Nickeldiopside
_publ_section_title
;
Crystal chemistry of synthetic pyroxenes on the join Ca Ni Si2 O6-Ca 
Mg Si2 O6 (diopside): A Rietveld refinement study
;
loop_
_citation_id
_citation_journal_abbrev
_citation_year
_citation_journal_volume
_citation_page_first
_citation_page_last
_citation_journal_id_ASTM
primary 'American Mineralogist' 1990 75 1274 1281 AMMIAY
_publ_author_name
;
Raudsepp, M.;Hawthorne, F.C.;Turnock, A.C.
;
_cell_length_a                     9.7359(4)
_cell_length_b                     8.8932(4)
_cell_length_c                     5.2284(3)
_cell_angle_alpha                  90.
_cell_angle_beta                   105.830(3)
_cell_angle_gamma                  90.
_cell_volume                       435.52
_cell_formula_units_Z              4
_symmetry_space_group_name_H-M     'C 1 2/c 1'
_symmetry_Int_Tables_number        15
_refine_ls_R_factor_all            .085
loop_
_symmetry_equiv_pos_site_id
_symmetry_equiv_pos_as_xyz
  1	'x, -y, z+.5'
  2	'-x, -y, -z'
  3	'-x, y, -z+.5'
  4	'x, y, z'
  5	'x+.5, -y+.5, z+.5'
  6	'-x+.5, -y+.5, -z'
  7	'-x+.5, y+.5, -z+.5'
  8	'x+.5, y+.5, z'
loop_
_atom_type_symbol
_atom_type_oxidation_number
Ca2+	2
Ni2+	2
O2-	-2
Si4+	4
loop_
_atom_site_label
_atom_site_type_symbol
_atom_site_symmetry_multiplicity
_atom_site_Wyckoff_symbol
_atom_site_fract_x
_atom_site_fract_y
_atom_site_fract_z
_atom_site_occupancy
_atom_site_attached_hydrogens
_atom_site_B_iso_or_equiv
Ni1 Ni2+ 4 e 0 0.9087(5) 0.25 1. 0 0.37 
Ca1 Ca2+ 4 e 0 0.2983(6) 0.25 1. 0 0.635 
Si1 Si4+ 8 f 0.2866(5) 0.0924(6) 0.2252(9) 1. 0 0.349 
O1 O2- 8 f 0.1157(9) 0.0849(13) 0.1403(17) 1. 0 0.51 
O2 O2- 8 f 0.3578(10) 0.2540(11) 0.3230(19) 1. 0 0.65 
O3 O2- 8 f 0.3503(10) 0.0203(10) 0.9921(26) 1. 0 0.56 

#End of data_69381-ICSD


