data_92226-ICSD
#?2014 by Fachinformationszentrum Karlsruhe, and the U.S. Secretary of 
#Commerce on behalf of the United States.  All rights reserved.
_database_code_ICSD                92226
_audit_creation_date               2002/10/01
_chemical_name_systematic
;
Disodium Iron(III) Titanium Tris(phosphate(V))
;
_chemical_formula_structural       'Na2 Fe Ti (P O4)3'
_chemical_formula_sum              'Fe1 Na2 O12 P3 Ti1'
_publ_section_title
;
Synthesis, structure and conductivity study of new monovalent 
phosphates with the langbeinite structure
;
loop_
_citation_id
_citation_journal_abbrev
_citation_year
_citation_journal_volume
_citation_page_first
_citation_page_last
_citation_journal_id_ASTM
primary 'Solid State Ionics' 2000 133 303 313 SSIOD3
_publ_author_name                  'Isasi, J.;Daidouh, A.'
_cell_length_a                     9.837(3)
_cell_length_b                     9.837(3)
_cell_length_c                     9.837(3)
_cell_angle_alpha                  90.
_cell_angle_beta                   90.
_cell_angle_gamma                  90.
_cell_volume                       951.89
_cell_formula_units_Z              4
_symmetry_space_group_name_H-M     'P 21 3'
_symmetry_Int_Tables_number        198
_refine_ls_R_factor_all            .055
loop_
_symmetry_equiv_pos_site_id
_symmetry_equiv_pos_as_xyz
  1	'-z+.5, -x, y+.5'
  2	'-y+.5, -z, x+.5'
  3	'-x+.5, -y, z+.5'
  4	'-z, x+.5, -y+.5'
  5	'-y, z+.5, -x+.5'
  6	'-x, y+.5, -z+.5'
  7	'z+.5, -x+.5, -y'
  8	'y+.5, -z+.5, -x'
  9	'x+.5, -y+.5, -z'
 10	'z, x, y'
 11	'y, z, x'
 12	'x, y, z'
loop_
_atom_type_symbol
_atom_type_oxidation_number
Fe3+	3
Na1+	1
O2-	-2
P5+	5
Ti4+	4
loop_
_atom_site_label
_atom_site_type_symbol
_atom_site_symmetry_multiplicity
_atom_site_Wyckoff_symbol
_atom_site_fract_x
_atom_site_fract_y
_atom_site_fract_z
_atom_site_occupancy
_atom_site_attached_hydrogens
Na1 Na1+ 4 a 0.961(2) 0.961(2) 0.961(2) 1. 0 
Na2 Na1+ 4 a 0.184(2) 0.184(2) 0.184(2) 1. 0 
Fe1 Fe3+ 4 a 0.665(1) 0.665(1) 0.665(1) 1. 0 
Ti1 Ti4+ 4 a 0.394(2) 0.394(2) 0.394(2) 1. 0 
P1 P5+ 12 b 0.477(6) 0.707(6) 0.377(6) 1. 0 
O1 O2- 12 b 0.615(1) 0.835(2) 0.744(5) 1. 0 
O2 O2- 12 b 0.447(6) 0.302(9) 0.230(7) 1. 0 
O3 O2- 12 b 0.490(7) 0.566(2) 0.331(3) 1. 0 
O4 O2- 12 b 0.550(6) 0.741(6) 0.506(6) 1. 0 

#End of data_92226-ICSD


