data_249936-ICSD
#?2014 by Fachinformationszentrum Karlsruhe, and the U.S. Secretary of 
#Commerce on behalf of the United States.  All rights reserved.
_database_code_ICSD                249936
_audit_creation_date               2010/08/01
_chemical_name_systematic
;
Dicesium Potassium Bis(oxouranate(IV/V)) Tetrasilicate
;
_chemical_formula_structural       'Cs2 K (U O)2 Si4 O12'
_chemical_formula_sum              'Cs2 K1 O14 Si4 U2'
_publ_section_title
;
Cs2 K (U O)2 Si4 O12: A mixed-valence uranium(IV/V) silicate
;
loop_
_citation_id
_citation_journal_abbrev
_citation_year
_citation_journal_volume
_citation_journal_issue
_citation_page_first
_citation_page_last
_citation_journal_id_ASTM
primary 'Journal of the American Chemical Society' 2009 131 42 15116 15117 JACSAT
_publ_author_name
;
Lee Cheng shiuan;Wang Sue Lein;Lii Kwanghwa
;
_cell_length_a                     8.4902(5)
_cell_length_b                     11.6888(9)
_cell_length_c                     7.6132(5)
_cell_angle_alpha                  90.00
_cell_angle_beta                   90.00
_cell_angle_gamma                  90.00
_cell_volume                       755.54
_cell_formula_units_Z              2
_symmetry_space_group_name_H-M     'C m m m'
_symmetry_Int_Tables_number        65
_refine_ls_R_factor_all            .0138
loop_
_symmetry_equiv_pos_site_id
_symmetry_equiv_pos_as_xyz
  1	'x, -y, z'
  2	'-x, y, z'
  3	'x, y, -z'
  4	'-x, -y, -z'
  5	'-x, y, -z'
  6	'x, -y, -z'
  7	'-x, -y, z'
  8	'x, y, z'
  9	'x+.5, -y+.5, z'
 10	'-x+.5, y+.5, z'
 11	'x+.5, y+.5, -z'
 12	'-x+.5, -y+.5, -z'
 13	'-x+.5, y+.5, -z'
 14	'x+.5, -y+.5, -z'
 15	'-x+.5, -y+.5, z'
 16	'x+.5, y+.5, z'
loop_
_atom_type_symbol
_atom_type_oxidation_number
Cs1+	1
K1+	1
O2-	-2
Si4+	4
U4.5+	4.5
loop_
_atom_site_label
_atom_site_type_symbol
_atom_site_symmetry_multiplicity
_atom_site_Wyckoff_symbol
_atom_site_fract_x
_atom_site_fract_y
_atom_site_fract_z
_atom_site_occupancy
_atom_site_attached_hydrogens
_atom_site_U_iso_or_equiv
Cs1 Cs1+ 4 i 0.5000 0.28224(5) 0.0000 1 0 0.02298(13) 
K1 K1+ 2 d 1.0000 0.0000 0.5000 1 0 0.0142(4) 
U1 U4.5+ 4 f 0.7500 0.2500 0.5000 1 0 0.00544(10) 
Si1 Si4+ 8 o 0.69013(12) 0.0000 0.20502(13) 1 0 0.0069(2) 
O1 O2- 4 g 0.7520(4) 0.5000 0.0000 1 0 0.0158(11) 
O2 O2- 16 r 0.7577(2) 0.1141(2) 0.7062(3) 1 0 0.0167(5) 
O3 O2- 4 l 0.5000 0.0000 0.2030(5) 1 0 0.0203(10) 
O4 O2- 4 j 1.0000 0.2455(4) 0.5000 1 0 0.0232(13) 

loop_
_atom_site_aniso_label
_atom_site_aniso_type_symbol
_atom_site_aniso_U_11
_atom_site_aniso_U_22
_atom_site_aniso_U_33
_atom_site_aniso_U_12
_atom_site_aniso_U_13
_atom_site_aniso_U_23
Cs1 Cs1+ 0.0209(2) 0.0213(3) 0.0267(2) 0.000 0.000 0.000
K1 K1+ 0.0118(8) 0.0109(9) 0.0199(9) 0.000 0.000 0.000
U1 U4.5+ 0.00512(13) 0.00483(14) 0.00636(13) -0.00003(6) 0.000 0.000
Si1 Si4+ 0.0077(5) 0.0075(5) 0.0056(5) 0.000 -0.0001(4) 0.000
O1 O2- 0.013(2) 0.027(3) 0.006(2) 0.000 0.000 0.000
O2 O2- 0.0215(12) 0.0121(12) 0.0165(12) -0.0031(8) -0.0006(7) 0.0081(11)
O3 O2- 0.0069(18) 0.035(3) 0.019(2) 0.000 0.000 0.000
O4 O2- 0.025(3) 0.017(3) 0.027(3) 0.000 0.000 0.000
#End of data_249936-ICSD


