data_164635-ICSD
#?2014 by Fachinformationszentrum Karlsruhe, and the U.S. Secretary of 
#Commerce on behalf of the United States.  All rights reserved.
_database_code_ICSD                164635
_audit_creation_date               2010/02/01
_audit_update_record               2013/02/01
_chemical_name_systematic          'Dibismuth Zinc Oxide Diborate'
_chemical_formula_structural       'Bi2 Zn O (B2 O6)'
_chemical_formula_sum              'B2 Bi2 O7 Zn1'
_publ_section_title
;
Growth, structure and optical properties of a congruent melting 
oxyborate, Bi2 Zn O B2 O6
;
loop_
_citation_id
_citation_journal_abbrev
_citation_year
_citation_journal_volume
_citation_page_first
_citation_page_last
_citation_journal_id_ASTM
primary 'Chemistry of Materials' 2009 21 2846 2850 CMATEX
_publ_author_name
;
Li Feng;Hou Xueling;Pan Shilie;Wang Xian
;
_cell_length_a                     10.8200(7)
_cell_length_b                     11.0014(7)
_cell_length_c                     4.8896(2)
_cell_angle_alpha                  90
_cell_angle_beta                   90
_cell_angle_gamma                  90
_cell_volume                       582.03
_cell_formula_units_Z              4
_symmetry_space_group_name_H-M     'P b a 2'
_symmetry_Int_Tables_number        32
_refine_ls_R_factor_all            .0128
loop_
_symmetry_equiv_pos_site_id
_symmetry_equiv_pos_as_xyz
  1	'x+.5, -y+.5, z'
  2	'-x+.5, y+.5, z'
  3	'-x, -y, z'
  4	'x, y, z'
loop_
_atom_type_symbol
_atom_type_oxidation_number
B3+	3
Bi3+	3
O2-	-2
Zn2+	2
loop_
_atom_site_label
_atom_site_type_symbol
_atom_site_symmetry_multiplicity
_atom_site_Wyckoff_symbol
_atom_site_fract_x
_atom_site_fract_y
_atom_site_fract_z
_atom_site_occupancy
_atom_site_attached_hydrogens
_atom_site_U_iso_or_equiv
Bi1 Bi3+ 4 c 0.181214(11) 0.033039(11) 0.00661(8) 1 0 0.00279(5) 
Bi2 Bi3+ 4 c -0.015106(12 0.312427(11) 0.00852(5) 1 0 0.00253(5) 
Zn1 Zn2+ 4 c 0.25961(4) 0.25951(4) 0.4976(2) 1 0 0.00285(9) 
O1 O2- 4 c 0.0207(2) 0.1430(2) 0.2558(7) 1 0 0.0045(5) 
O2 O2- 4 c 0.3636(2) 0.0235(2) -0.2323(7) 1 0 0.0066(7) 
O3 O2- 4 c 0.3013(2) 0.1742(2) 0.1645(7) 1 0 0.0047(5) 
O4 O2- 4 c 0.4143(2) 0.2984(2) 0.6810(7) 1 0 0.0038(5) 
O5 O2- 4 c 0.1313(2) 0.1713(2) 0.6960(7) 1 0 0.0041(5) 
O6 O2- 2 b 0.5 0 -0.6124(10) 1 0 0.0040(9) 
B1 B3+ 4 c 0.3832(4) -0.0209(4) -0.493(2) 1 0 0.0046(7) 
B2 B3+ 4 c 0.0147(4) 0.1263(5) 0.5544(11) 1 0 0.0052(11) 
O7 O2- 4 c 0.3030(2) -0.0866(2) -0.6377(7) 1 0 0.0055(5) 
O8 O2- 2 a 0 0 0.6438(10) 1 0 0.0048(9) 

loop_
_atom_site_aniso_label
_atom_site_aniso_type_symbol
_atom_site_aniso_U_11
_atom_site_aniso_U_22
_atom_site_aniso_U_33
_atom_site_aniso_U_12
_atom_site_aniso_U_13
_atom_site_aniso_U_23
Bi1 Bi3+ 0.00335(6) 0.00311(6) 0.00190(6) -0.00016(4) -0.00025(17) 
0.00021(17)
Bi2 Bi3+ 0.00295(6) 0.00323(6) 0.00139(6) -0.00028(4) -0.00009(18) 
-0.00035(14)
Zn1 Zn2+ 0.00329(17) 0.00354(18) 0.0017(2) -0.00017(12) 0.0007(4) 
-0.0003(4)
O1 O2- 0.0060(15) 0.0067(16) 0.0010(15) 0.0015(11) 0.0017(11) 0.0014(11)
O2 O2- 0.0049(15) 0.0090(16) 0.0059(16) -0.0007(11) 0.0021(11) -0.0030(13)
O3 O2- 0.0054(15) 0.0070(16) 0.0016(15) -0.0019(11) 0.0017(11) -0.0006(11)
O4 O2- 0.0043(15) 0.0044(15) 0.0028(14) -0.0029(11) -0.0020(11) 0.0030(11)
O5 O2- 0.0041(15) 0.0058(15) 0.0024(15) -0.0009(11) -0.0016(11) 0.0022(11)
O6 O2- 0.001(2) 0.007(2) 0.004(2) -0.0012(16) 0 0
B1 B3+ 0.0033(15) 0.0046(16) 0.006(2) 0.0024(13) -0.001(4) 0.003(4)
B2 B3+ 0.0020(18) 0.006(2) 0.008(4) 0.0002(15) -0.0007(16) -0.0003(17)
O7 O2- 0.0070(15) 0.0064(15) 0.0031(16) -0.0027(11) -0.0008(11) 0.0030(13)
O8 O2- 0.011(2) 0.001(2) 0.002(2) -0.0029(17) 0 0
#End of data_164635-ICSD


