data_409985-ICSD
#?2014 by Fachinformationszentrum Karlsruhe, and the U.S. Secretary of 
#Commerce on behalf of the United States.  All rights reserved.
_database_code_ICSD                409985
_audit_creation_date               2009/08/01
_chemical_name_systematic
;
Dipotassium Hexaaquazinc(II) Bis(sulfate)
;
_chemical_formula_structural       'K2 (Zn (H2 O)6) (S O4)2'
_chemical_formula_sum              'H12 K2 O14 S2 Zn1'
_publ_section_title
;
Refinement of the crystal structure of potassium hexaaquairon(II) 
sulfate, K2 [Fe (H2 O)6] (S O4)2 and potassium hexaaquazinc(II) 
sulfate, K2 [Zn (H2 O)6] (S O4)2
;
loop_
_citation_id
_citation_journal_abbrev
_citation_year
_citation_journal_volume
_citation_journal_issue
_citation_page_first
_citation_page_last
_citation_journal_id_ASTM
primary 'Zeitschrift fuer Kristallographie - New Crystal Structures'
 2009 224 2 171 173 ZKNSFT
_publ_author_name
;
Euler, H.;Barbier, B.;Meents, A.;Kirfel, A.
;
_cell_length_a                     9.0286(9)
_cell_length_b                     12.2040(10)
_cell_length_c                     6.1470(6)
_cell_angle_alpha                  90.00
_cell_angle_beta                   104.795(9)
_cell_angle_gamma                  90.00
_cell_volume                       654.85
_cell_formula_units_Z              2
_symmetry_space_group_name_H-M     'P 1 21/a 1'
_symmetry_Int_Tables_number        14
_refine_ls_R_factor_all            .0221
loop_
_symmetry_equiv_pos_site_id
_symmetry_equiv_pos_as_xyz
  1	'x+.5, -y+.5, z'
  2	'-x, -y, -z'
  3	'-x+.5, y+.5, -z'
  4	'x, y, z'
loop_
_atom_type_symbol
_atom_type_oxidation_number
H1+	1
K1+	1
O2-	-2
S6+	6
Zn2+	2
loop_
_atom_site_label
_atom_site_type_symbol
_atom_site_symmetry_multiplicity
_atom_site_Wyckoff_symbol
_atom_site_fract_x
_atom_site_fract_y
_atom_site_fract_z
_atom_site_occupancy
_atom_site_attached_hydrogens
_atom_site_U_iso_or_equiv
Zn1 Zn2+ 2 a 0.0000 0.0000 0.0000 1 0 0.01821(11) 
S1 S6+ 4 e 0.41191(3) 0.13521(3) 0.72672(5) 1 0 0.01855(11) 
O1 O2- 4 e 0.40810(14) 0.23012(9) 0.57652(18) 1 0 0.0342(3) 
O2 O2- 4 e 0.55587(13) 0.07586(11) 0.7527(2) 1 0 0.0406(3) 
O3 O2- 4 e 0.28460(11) 0.06157(8) 0.62035(16) 1 0 0.0256(2) 
O4 O2- 4 e 0.39535(13) 0.17298(8) 0.94793(16) 1 0 0.0287(2) 
O5 O2- 4 e 0.17036(12) 0.11274(9) 0.16691(18) 1 0 0.0253(2) 
O6 O2- 4 e -0.17016(12) 0.11483(9) 0.03522(17) 1 0 0.0240(2) 
O7 O2- 4 e -0.00196(13) -0.06800(9) 0.30083(16) 1 0 0.0246(2) 
K1 K1+ 4 e 0.13351(4) 0.34579(3) 0.34307(5) 1 0 0.03080(12) 
H1 H1+ 4 e 0.209(3) 0.0944(18) 0.283(4) 1 0 0.035(5) 
H2 H1+ 4 e 0.243(3) 0.1265(19) 0.104(4) 1 0 0.035(5) 
H3 H1+ 4 e -0.253(3) 0.107(2) -0.045(4) 1 0 0.051(7) 
H4 H1+ 4 e -0.144(2) 0.1774(19) 0.010(3) 1 0 0.031(5) 
H5 H1+ 4 e -0.068(3) -0.060(2) 0.342(4) 1 0 0.049(7) 
H6 H1+ 4 e 0.028(3) -0.134(2) 0.329(4) 1 0 0.045(6) 

loop_
_atom_site_aniso_label
_atom_site_aniso_type_symbol
_atom_site_aniso_U_11
_atom_site_aniso_U_22
_atom_site_aniso_U_33
_atom_site_aniso_U_12
_atom_site_aniso_U_13
_atom_site_aniso_U_23
Zn1 Zn2+ 0.01783(14) 0.01880(15) 0.01768(14) -0.00131(6) 0.00396(9) 
0.00048(6)
S1 S6+ 0.01712(17) 0.01995(18) 0.01839(17) -0.00246(10) 0.00418(11) 
-0.00194(10)
O1 O2- 0.0501(7) 0.0260(5) 0.0256(5) -0.0122(5) 0.0081(4) 0.0024(4)
O2 O2- 0.0209(5) 0.0540(8) 0.0433(6) 0.0093(5) 0.0016(4) -0.0096(5)
O3 O2- 0.0225(5) 0.0266(5) 0.0280(5) -0.0080(4) 0.0068(4) -0.0055(4)
O4 O2- 0.0391(6) 0.0278(5) 0.0206(4) -0.0039(4) 0.0103(4) -0.0049(4)
O5 O2- 0.0233(5) 0.0296(5) 0.0211(5) -0.0070(4) 0.0021(4) -0.0003(4)
O6 O2- 0.0206(5) 0.0229(5) 0.0283(5) 0.0016(4) 0.0062(4) 0.0007(4)
O7 O2- 0.0298(5) 0.0240(5) 0.0228(4) 0.0022(4) 0.0116(4) 0.0028(3)
K1 K1+ 0.0335(2) 0.03150(19) 0.02943(18) -0.00263(12) 0.01178(13) 
-0.00046(11)
#End of data_409985-ICSD


