data_67278-ICSD
#?2014 by Fachinformationszentrum Karlsruhe, and the U.S. Secretary of 
#Commerce on behalf of the United States.  All rights reserved.
_database_code_ICSD                67278
_audit_creation_date               1990/12/27
_chemical_name_systematic          'Potassium Sodium Selenide'
_chemical_formula_structural       'K Na Se'
_chemical_formula_sum              'K1 Na1 Se1'
_publ_section_title
;
Ueber die Interalkalimetallselenide KLiSe und KNaSe
;
loop_
_citation_id
_citation_journal_abbrev
_citation_year
_citation_journal_volume
_citation_page_first
_citation_page_last
_citation_journal_id_ASTM
primary 'Zeitschrift fuer Naturforschung, B: Chemical Sciences'
 1989 44 1607 1609 ZNBSEN
_publ_author_name
;
Hippler, K.;Vogt, P.;Wortmann, R.;Sabrowsky, H.
;
_cell_length_a                     8.063
_cell_length_b                     4.817
_cell_length_c                     8.651
_cell_angle_alpha                  90.
_cell_angle_beta                   90.
_cell_angle_gamma                  90.
_cell_volume                       336
_cell_formula_units_Z              4
_symmetry_space_group_name_H-M     'P n m a'
_symmetry_Int_Tables_number        62
loop_
_symmetry_equiv_pos_site_id
_symmetry_equiv_pos_as_xyz
  1	'x+.5, y, -z+.5'
  2	'x, -y+.5, z'
  3	'-x+.5, y+.5, z+.5'
  4	'-x, -y, -z'
  5	'-x+.5, -y, z+.5'
  6	'-x, y+.5, -z'
  7	'x+.5, -y+.5, -z+.5'
  8	'x, y, z'
loop_
_atom_type_symbol
_atom_type_oxidation_number
K1+	1
Na1+	1
Se2-	-2
loop_
_atom_site_label
_atom_site_type_symbol
_atom_site_symmetry_multiplicity
_atom_site_Wyckoff_symbol
_atom_site_fract_x
_atom_site_fract_y
_atom_site_fract_z
_atom_site_occupancy
_atom_site_attached_hydrogens
K1 K1+ 4 c 0.4867 0.25 0.6847 1. 0 
Na1 Na1+ 4 c 0.353 0.25 0.0757 1. 0 
Se1 Se2- 4 c 0.2214 0.25 0.3956 1. 0 

#End of data_67278-ICSD


