data_84654-ICSD
#?2014 by Fachinformationszentrum Karlsruhe, and the U.S. Secretary of 
#Commerce on behalf of the United States.  All rights reserved.
_database_code_ICSD                84654
_audit_creation_date               1999/01/19
_chemical_name_systematic          'Lithium Manganese Vanadate'
_chemical_formula_structural       'Li Mn (V O4)'
_chemical_formula_sum              'Li1 Mn1 O4 V1'
_publ_section_title
;
Ambient and high-pressure structures of Li Mn V O4 and its 
Mn(3+)/Mn(2+) redox energy
;
loop_
_citation_id
_citation_journal_abbrev
_citation_year
_citation_journal_volume
_citation_page_first
_citation_page_last
_citation_journal_id_ASTM
primary 'Journal of Solid State Chemistry' 1997 128 267 272 JSSCBI
_publ_author_name
;
Padhi, A.K.;Archibald, W.B.;Nanjundaswamy, K.S.;Goodenough, J.B.
;
_cell_length_a                     5.7611(1)
_cell_length_b                     8.7462(1)
_cell_length_c                     6.3502(1)
_cell_angle_alpha                  90.
_cell_angle_beta                   90.
_cell_angle_gamma                  90.
_cell_volume                       319.97
_cell_formula_units_Z              4
_symmetry_space_group_name_H-M     'C m c m'
_symmetry_Int_Tables_number        63
_refine_ls_R_factor_all            .12
loop_
_symmetry_equiv_pos_site_id
_symmetry_equiv_pos_as_xyz
  1	'-x, y, -z+.5'
  2	'-x, -y, z+.5'
  3	'-x, y, z'
  4	'-x, -y, -z'
  5	'x, -y, z+.5'
  6	'x, y, -z+.5'
  7	'x, -y, -z'
  8	'x, y, z'
  9	'-x+.5, y+.5, -z+.5'
 10	'-x+.5, -y+.5, z+.5'
 11	'-x+.5, y+.5, z'
 12	'-x+.5, -y+.5, -z'
 13	'x+.5, -y+.5, z+.5'
 14	'x+.5, y+.5, -z+.5'
 15	'x+.5, -y+.5, -z'
 16	'x+.5, y+.5, z'
loop_
_atom_type_symbol
_atom_type_oxidation_number
Li1+	1
Mn2+	2
O2-	-2
V5+	5
loop_
_atom_site_label
_atom_site_type_symbol
_atom_site_symmetry_multiplicity
_atom_site_Wyckoff_symbol
_atom_site_fract_x
_atom_site_fract_y
_atom_site_fract_z
_atom_site_occupancy
_atom_site_attached_hydrogens
_atom_site_B_iso_or_equiv
Mn1 Mn2+ 4 a 0 0 0 1. 0 0.80(7) 
V1 V5+ 4 c 0 0.3574(3) 0.25 1. 0 0.57(6) 
Li1 Li1+ 4 c 0.5 0.1669(1) 0.25 1. 0 2.30(11) 
O1 O2- 8 g 0.2306(8) 0.4785(6) 0.25 1. 0 1.65(9) 
O2 O2- 8 f 0 0.2568(5) 0.0347(8) 1. 0 1.05(10) 

#End of data_84654-ICSD


