data_200440-ICSD
#?2014 by Fachinformationszentrum Karlsruhe, and the U.S. Secretary of 
#Commerce on behalf of the United States.  All rights reserved.
_database_code_ICSD                200440
_audit_creation_date               1980/01/01
_audit_update_record               1985/06/13
_chemical_name_systematic
;
Disodium Zinc Tecto-octaoxotrisilicate
;
_chemical_formula_structural       'Na2 Zn (Si3 O8)'
_chemical_formula_sum              'Na2 O8 Si3 Zn1'
_publ_section_title
;
Refined crystal structure of 'phase a' Na2 Zn (Si3 O8) crystals and 
its comparison as a sodium zincosilicate with herlbutite and 
orthoclase
;
loop_
_citation_id
_citation_journal_abbrev
_citation_year
_citation_journal_volume
_citation_page_first
_citation_page_last
_citation_journal_id_ASTM
primary 'Doklady Akademii Nauk SSSR' 1977 237 1358 1361 DANKAS
_publ_author_name                  'Plakhov, G.F.;Belov, N.V.'
_cell_length_a                     6.671
_cell_length_b                     6.418
_cell_length_c                     8.65
_cell_angle_alpha                  90.
_cell_angle_beta                   90.
_cell_angle_gamma                  103.8
_cell_volume                       359.65
_cell_formula_units_Z              2
_symmetry_space_group_name_H-M     'P 1 1 21'
_symmetry_Int_Tables_number        4
_refine_ls_R_factor_all            .027
loop_
_symmetry_equiv_pos_site_id
_symmetry_equiv_pos_as_xyz
  1	'-x, -y, z+.5'
  2	'x, y, z'
loop_
_atom_type_symbol
_atom_type_oxidation_number
Na1+	1
O2-	-2
Si4+	4
Zn2+	2
loop_
_atom_site_label
_atom_site_type_symbol
_atom_site_symmetry_multiplicity
_atom_site_Wyckoff_symbol
_atom_site_fract_x
_atom_site_fract_y
_atom_site_fract_z
_atom_site_occupancy
_atom_site_attached_hydrogens
Zn1 Zn2+ 2 a 0.39308(7) 0.03528(7) 0 1. 0 
Si1 Si4+ 2 a 0.2656(2) 0.1441(2) 0.6678(2) 1. 0 
Si2 Si4+ 2 a 0.0125(2) 0.4070(2) 0.5040(2) 1. 0 
Si3 Si4+ 2 a 0.1034(2) 0.2504(2) 0.18621(15) 1. 0 
Na1 Na1+ 2 a 0.2158(3) 0.8300(3) 0.3097(3) 1. 0 
Na2 Na1+ 2 a 0.4667(4) 0.5859(4) 0.8655(3) 1. 0 
O1 O2- 2 a 0.1854(5) 0.3645(5) 0.6249(4) 1. 0 
O2 O2- 2 a 0.9935(5) 0.6541(5) 0.5354(4) 1. 0 
O3 O2- 2 a 0.2052(5) 0.7526(5) 0.0190(5) 1. 0 
O4 O2- 2 a 0.4282(5) 0.2055(5) 0.8076(4) 1. 0 
O5 O2- 2 a 0.3499(5) 0.0618(5) 0.5138(5) 1. 0 
O6 O2- 2 a 0.0552(5) 0.9749(5) 0.7315(4) 1. 0 
O7 O2- 2 a 0.3292(5) 0.2181(5) 0.1600(4) 1. 0 
O8 O2- 2 a 0.1120(5) 0.4266(5) 0.3293(4) 1. 0 

#End of data_200440-ICSD


