data_65740-ICSD
#?2014 by Fachinformationszentrum Karlsruhe, and the U.S. Secretary of 
#Commerce on behalf of the United States.  All rights reserved.
_database_code_ICSD                65740
_audit_creation_date               1990/06/08
_chemical_name_systematic          'Potassium Zinc Catena-digermanate'
_chemical_formula_structural       'K2 Zn (Ge2 O6)'
_chemical_formula_sum              'Ge2 K2 O6 Zn1'
_publ_section_title
;
The crystal structure and ionic conductivity properties of K2 Zn Ge2 
O6
;
loop_
_citation_id
_citation_journal_abbrev
_citation_year
_citation_journal_volume
_citation_page_first
_citation_page_last
_citation_journal_id_ASTM
primary 'Acta Chemica Scandinavica (43,1989-)' 1989 43 11 14 ACHSE7
_publ_author_name                  'Grins, J.;Werner, P.E.'
_cell_length_a                     9.7904(4)
_cell_length_b                     6.3612(2)
_cell_length_c                     10.8078(4)
_cell_angle_alpha                  90.
_cell_angle_beta                   90.
_cell_angle_gamma                  90.
_cell_volume                       673.1
_cell_formula_units_Z              4
_symmetry_space_group_name_H-M     'C 2 2 21'
_symmetry_Int_Tables_number        20
_refine_ls_R_factor_all            .071
loop_
_symmetry_equiv_pos_site_id
_symmetry_equiv_pos_as_xyz
  1	'-x, y, -z+.5'
  2	'-x, -y, z+.5'
  3	'x, -y, -z'
  4	'x, y, z'
  5	'-x+.5, y+.5, -z+.5'
  6	'-x+.5, -y+.5, z+.5'
  7	'x+.5, -y+.5, -z'
  8	'x+.5, y+.5, z'
loop_
_atom_type_symbol
_atom_type_oxidation_number
Ge4+	4
K1+	1
O2-	-2
Zn2+	2
loop_
_atom_site_label
_atom_site_type_symbol
_atom_site_symmetry_multiplicity
_atom_site_Wyckoff_symbol
_atom_site_fract_x
_atom_site_fract_y
_atom_site_fract_z
_atom_site_occupancy
_atom_site_attached_hydrogens
Zn1 Zn2+ 4 a 0.6984(6) 0 0 1. 0 
Ge1 Ge4+ 8 c 0.4884(4) 0.6603(5) 0.6101(3) 1. 0 
K1 K1+ 8 c 0.3276(7) 0.1103(11) 0.6789(6) 1. 0 
O1 O2- 8 c 0.3226(17) 0.2888(26) 0.4224(15) 1. 0 
O2 O2- 8 c 0.5931(17) 0.8824(26) 0.6272(15) 1. 0 
O3 O2- 4 a 0.9299(23) 0 0 1. 0 
O4 O2- 4 b 0 0.0016(39) 0.25 1. 0 

#End of data_65740-ICSD


