data_93013-ICSD
#?2014 by Fachinformationszentrum Karlsruhe, and the U.S. Secretary of 
#Commerce on behalf of the United States.  All rights reserved.
_database_code_ICSD                93013
_audit_creation_date               2003/04/01
_audit_update_record               2010/08/01
_chemical_name_systematic          'Barium Lithium Tecto-nonaborate'
_chemical_formula_structural       'Ba Li (B9 O15)'
_chemical_formula_sum              'B9 Ba1 Li1 O15'
_publ_section_title
;
Synthesis and crystal structure of three M M' B9 O15 borates (M= Ba, 
Sr and M'= Li; M= Ba and M'= Na)
;
loop_
_citation_id
_citation_journal_abbrev
_citation_year
_citation_journal_volume
_citation_page_first
_citation_page_last
_citation_journal_id_ASTM
primary 'International Journal of Inorganic Materials' 2001 3 1015 1023 IJIMCR
_publ_author_name
;
Penin, N.;Seguin, L.;Touboul, M.;Nowogrocki, G.
;
_cell_length_a                     11.0223(19)
_cell_length_b                     11.0223(19)
_cell_length_c                     17.106(4)
_cell_angle_alpha                  90
_cell_angle_beta                   90
_cell_angle_gamma                  120
_cell_volume                       1799.8
_cell_formula_units_Z              6
_symmetry_space_group_name_H-M     'R 3 c H'
_symmetry_Int_Tables_number        161
_refine_ls_R_factor_all            .022
loop_
_symmetry_equiv_pos_site_id
_symmetry_equiv_pos_as_xyz
  1	'-x+y, y, z+.5'
  2	'x, x-y, z+.5'
  3	'-y, -x, z+.5'
  4	'-x+y, -x, z'
  5	'-y, x-y, z'
  6	'x, y, z'
  7	'-x+y+.6666, y+.3333, z+.8333'
  8	'-x+y+.3333, y+.6666, z+.1666'
  9	'x+.6666, x-y+.3333, z+.8333'
 10	'x+.3333, x-y+.6666, z+.1666'
 11	'-y+.6666, -x+.3333, z+.8333'
 12	'-y+.3333, -x+.6666, z+.1666'
 13	'-x+y+.6666, -x+.3333, z+.3333'
 14	'-x+y+.3333, -x+.6666, z+.6666'
 15	'-y+.6666, x-y+.3333, z+.3333'
 16	'-y+.3333, x-y+.6666, z+.6666'
 17	'x+.6666, y+.3333, z+.3333'
 18	'x+.3333, y+.6666, z+.6666'
loop_
_atom_type_symbol
_atom_type_oxidation_number
B3+	3
Ba2+	2
Li1+	1
O2-	-2
loop_
_atom_site_label
_atom_site_type_symbol
_atom_site_symmetry_multiplicity
_atom_site_Wyckoff_symbol
_atom_site_fract_x
_atom_site_fract_y
_atom_site_fract_z
_atom_site_occupancy
_atom_site_attached_hydrogens
_atom_site_U_iso_or_equiv
Ba1 Ba2+ 6 a 0 0 0 1. 0 0.020(1) 
Li1 Li1+ 6 a 0 0 0.2337(6) 1. 0 0.027(3) 
O1 O2- 18 b 0.4949(7) 0.3323(12) 0.0829(8) 1. 0 0.021(1) 
O2 O2- 18 b 0.2691(9) 0.2509(8) 0.0278(6) 1. 0 0.021(2) 
O3 O2- 18 b 0.2175(8) 0.4397(10) 0.0395(5) 1. 0 0.017(2) 
O4 O2- 18 b 0.3480(7) 0.4126(8) 0.1395(6) 1. 0 0.018(2) 
O5 O2- 18 b 0.1128(8) 0.2271(10) 0.1263(4) 1. 0 0.015(2) 
B1 B3+ 18 b 0.3997(12) 0.2694(12) 0.0239(7) 1. 0 0.013(2) 
B2 B3+ 18 b 0.4640(13) 0.3996(13) 0.1468(7) 1. 0 0.018(2) 
B3 B3+ 18 b 0.2368(9) 0.3357(18) 0.0824(11) 1. 0 0.016(1) 

loop_
_atom_site_aniso_label
_atom_site_aniso_type_symbol
_atom_site_aniso_U_11
_atom_site_aniso_U_22
_atom_site_aniso_U_33
_atom_site_aniso_U_12
_atom_site_aniso_U_13
_atom_site_aniso_U_23
Ba1 Ba2+ 0.015(1) 0.015(1) 0.028(1) 0.008(1) 0. 0.
O1 O2- 0.021(4) 0.027(1) 0.018(1) 0.016(4) -0.006(4) -0.009(1)
O2 O2- 0.019(4) 0.026(4) 0.018(4) 0.011(3) -0.002(3) -0.011(3)
O3 O2- 0.017(4) 0.011(4) 0.018(4) 0.004(3) -0.003(3) 0.000(3)
O4 O2- 0.015(3) 0.026(4) 0.018(4) 0.014(3) -0.006(3) -0.008(3)
O5 O2- 0.018(4) 0.017(5) 0.012(4) 0.011(3) 0.003(3) -0.002(3)
B1 B3+ 0.017(5) 0.016(5) 0.011(4) 0.011(4) 0.008(3) 0.001(4)
B2 B3+ 0.023(5) 0.018(5) 0.017(5) 0.012(4) 0.007(4) -0.002(4)
B3 B3+ 0.008(4) 0.020(2) 0.013(2) 0.002(4) 0.002(4) -0.003(1)
#End of data_93013-ICSD


