data_409523-ICSD
#?2014 by Fachinformationszentrum Karlsruhe, and the U.S. Secretary of 
#Commerce on behalf of the United States.  All rights reserved.
_database_code_ICSD                409523
_audit_creation_date               2002/04/01
_chemical_name_systematic
;
Sodium Gallium Trihydroxoheptaoxoborodiphosphate(V)
;
_chemical_formula_structural       'Na Ga (B P2 O7 (O H)3)'
_chemical_formula_sum              'H3 B1 Ga1 Na1 O10 P2'
_publ_section_title
;
Crystal structure of sodium gallium (monohydrogenmonophosphate-
dihydrogenmonoborate-monophosph te), Na Ga (B P2 O7 (O H)3)
;
loop_
_citation_id
_citation_journal_abbrev
_citation_year
_citation_journal_volume
_citation_page_first
_citation_page_last
_citation_journal_id_ASTM
primary 'Zeitschrift fuer Kristallographie - New Crystal Structures'
 2001 216 15 16 ZKNSFT
_publ_author_name
;
Huang, Y.-X.;Mao, S.-Y.;Mi Jinxiao;Wei, Z.-B.;Zhao, J.-T.;Kniep, R.
;
_cell_length_a                     10.408(3)
_cell_length_b                     8.094(2)
_cell_length_c                     9.099(2)
_cell_angle_alpha                  90.
_cell_angle_beta                   116.64(2)
_cell_angle_gamma                  90.
_cell_volume                       685.15
_cell_formula_units_Z              4
_symmetry_space_group_name_H-M     'C 1 2/c 1'
_symmetry_Int_Tables_number        15
_refine_ls_R_factor_all            .0272
loop_
_symmetry_equiv_pos_site_id
_symmetry_equiv_pos_as_xyz
  1	'x, -y, z+.5'
  2	'-x, -y, -z'
  3	'-x, y, -z+.5'
  4	'x, y, z'
  5	'x+.5, -y+.5, z+.5'
  6	'-x+.5, -y+.5, -z'
  7	'-x+.5, y+.5, -z+.5'
  8	'x+.5, y+.5, z'
loop_
_atom_type_symbol
_atom_type_oxidation_number
B3+	3
Ga3+	3
H1+	1
Na1+	1
O2-	-2
P5+	5
loop_
_atom_site_label
_atom_site_type_symbol
_atom_site_symmetry_multiplicity
_atom_site_Wyckoff_symbol
_atom_site_fract_x
_atom_site_fract_y
_atom_site_fract_z
_atom_site_occupancy
_atom_site_attached_hydrogens
_atom_site_U_iso_or_equiv
Ga1 Ga3+ 4 d 0.25 0.25 0.5 1. 0 0 
P1 P5+ 8 f 0.22299(7) -.06616(7) 0.67947(8) 1. 0 0 
Na1 Na1+ 4 e 0 -.1343(2) 0.25 1. 0 0 
O1 O2- 8 f 0.1765(2) 0.0963(2) 0.3123(3) 1. 0 0 
O2 O2- 8 f 0.3897(2) -.07938(19) 0.7526(3) 1. 0 0 
O3 O2- 8 f 0.4378(2) 0.1311(2) 0.5991(3) 1. 0 0 
O4 O2- 8 f 0.1608(2) -.1990(2) 0.5441(3) 1. 0 0 
O5 O2- 8 f 0.1732(2) 0.1066(2) 0.6100(2) 1. 0 0 
B1 B3+ 4 e 0.5 0.0303(4) 0.75 1. 0 0 
H1 H1+ 4 c 0.25 -.25 0.5 1. 0 0.05 
H2 H1+ 8 f 0.485(7) 0.163(6) 0.591(7) 1. 0 0.05 

loop_
_atom_site_aniso_label
_atom_site_aniso_type_symbol
_atom_site_aniso_U_11
_atom_site_aniso_U_22
_atom_site_aniso_U_33
_atom_site_aniso_U_12
_atom_site_aniso_U_13
_atom_site_aniso_U_23
Ga1 Ga3+ 0.0103(2) 0.01146(17) 0.0103(2) 0.00041(12) 0.0048(2) 0.00066(12)
P1 P5+ 0.0085(3) 0.0116(2) 0.0107(3) 0.0003(2) 0.0051(4) 0.0006(2)
Na1 Na1+ 0.0188(8) 0.0221(7) 0.0235(9) 0 0.0097(11) 0
O1 O2- 0.0115(8) 0.0155(7) 0.0142(8) -.0013(7) 0.0073(11) -.0027(7)
O2 O2- 0.0086(7) 0.0138(6) 0.0166(8) -.0003(6) 0.0054(10) 0.0020(7)
O3 O2- 0.0112(8) 0.0157(7) 0.0152(9) 0.0010(6) 0.0047(11) 0.0032(6)
O4 O2- 0.0129(8) 0.0163(7) 0.0148(8) -.0009(7) 0.0076(11) -.0044(7)
O5 O2- 0.0133(8) 0.0128(6) 0.0147(8) 0.0017(7) 0.0108(11) 0.0016(7)
B1 B3+ 0.0081(14) 0.0130(12) 0.0105(14) 0 0.0038(19) 0
#End of data_409523-ICSD


