data_414092-ICSD
#?2014 by Fachinformationszentrum Karlsruhe, and the U.S. Secretary of 
#Commerce on behalf of the United States.  All rights reserved.
_database_code_ICSD                414092
_audit_creation_date               2005/10/01
_chemical_name_systematic
;
Cesium Hexamminesodium Decahydro-closo-decaborate Ammonia
;
_chemical_formula_structural       'Cs (Na (N H3)6)(B10 H10) (N H3)'
_chemical_formula_sum              'H31 B10 Cs1 N7 Na1'
_publ_section_title
;
Synthesis and crystal structure of cesium hexamminesodium decahydro-
closo-decaboranate(10)-ammonia(1/1), Cs [Na (N H3)6](B10 H10) . N H3
;
loop_
_citation_id
_citation_journal_abbrev
_citation_year
_citation_journal_volume
_citation_page_first
_citation_page_last
_citation_journal_id_ASTM
primary 'Zeitschrift fuer Anorganische und Allgemeine Chemie (1950) (DE)'
 2005 631 152 154 ZAACAB
_publ_author_name                  'Kraus, F.;Albert, B.'
_cell_length_a                     8.4787(7)
_cell_length_b                     13.272(1)
_cell_length_c                     17.139(2)
_cell_angle_alpha                  88.564(1)
_cell_angle_beta                   89.773(1)
_cell_angle_gamma                  81.630(1)
_cell_volume                       1907.5
_cell_formula_units_Z              4
_symmetry_space_group_name_H-M     'P -1'
_symmetry_Int_Tables_number        2
_refine_ls_R_factor_all            .0582
loop_
_symmetry_equiv_pos_site_id
_symmetry_equiv_pos_as_xyz
  1	'-x, -y, -z'
  2	'x, y, z'
loop_
_atom_type_symbol
_atom_type_oxidation_number
B.8+	.8
Cs1+	1
H1-	-1
H1+	1
N3-	-3
Na1+	1
loop_
_atom_site_label
_atom_site_type_symbol
_atom_site_symmetry_multiplicity
_atom_site_Wyckoff_symbol
_atom_site_fract_x
_atom_site_fract_y
_atom_site_fract_z
_atom_site_occupancy
_atom_site_attached_hydrogens
_atom_site_U_iso_or_equiv
Cs1 Cs1+ 2 i 0.76011(3) 0.52009(2) 0.113374(15) 1 0 0.01879(8) 
Cs2 Cs1+ 2 i 0.26266(3) 0.48463(2) 0.376760(15) 1 0 0.01705(8) 
Na1 Na1+ 2 i 0.7222(2) 0.84143(14) 0.36058(10) 1 0 0.0245(4) 
N1 N3- 2 i 0.7207(4) 0.6981(3) 0.2690(2) 1 0 0.0255(9) 
H1 H1+ 2 i 0.7320 0.6380 0.2966 1 0 0.038 
H2 H1+ 2 i 0.8028 0.6977 0.2346 1 0 0.038 
H3 H1+ 2 i 0.6267 0.7063 0.2425 1 0 0.038 
N2 N3- 2 i 0.7128(4) 0.7167(3) 0.4720(2) 1 0 0.0284(10) 
H4 H1+ 2 i 0.7213 0.6525 0.4533 1 0 0.043 
H5 H1+ 2 i 0.6187 0.7315 0.4979 1 0 0.043 
H6 H1+ 2 i 0.7950 0.7207 0.5052 1 0 0.043 
N3 N3- 2 i 1.0219(4) 0.7668(3) 0.3678(2) 1 0 0.0302(10) 
H7 H1+ 2 i 1.0321 0.6986 0.3784 1 0 0.045 
H8 H1+ 2 i 1.0695 0.7976 0.4063 1 0 0.045 
H9 H1+ 2 i 1.0694 0.7779 0.3213 1 0 0.045 
N4 N3- 2 i 0.4202(4) 0.8524(3) 0.3577(3) 1 0 0.0331(10) 
H10 H1+ 2 i 0.3881 0.8416 0.3084 1 0 0.050 
H11 H1+ 2 i 0.3748 0.9153 0.3727 1 0 0.050 
H12 H1+ 2 i 0.3897 0.8042 0.3909 1 0 0.050 
N5 N3- 2 i 0.8005(5) 0.9457(3) 0.2455(2) 1 0 0.0332(10) 
H13 H1+ 2 i 0.9033 0.9232 0.2321 1 0 0.050 
H14 H1+ 2 i 0.7911 1.0124 0.2586 1 0 0.050 
H15 H1+ 2 i 0.7354 0.9393 0.2045 1 0 0.050 
N6 N3- 2 i 0.7019(5) 0.9899(3) 0.4499(2) 1 0 0.0381(11) 
H16 H1+ 2 i 0.7392 1.0430 0.4249 1 0 0.057 
H17 H1+ 2 i 0.7609 0.9716 0.4935 1 0 0.057 
H18 H1+ 2 i 0.5981 1.0088 0.4635 1 0 0.057 
Na2 Na1+ 2 i 0.3646(2) 0.14764(14) 0.15331(10) 1 0 0.0244(4) 
N7 N3- 2 i 0.2920(4) 0.3195(3) 0.2147(2) 1 0 0.0263(9) 
H19 H1+ 2 i 0.2112 0.3167 0.2494 1 0 0.039 
H20 H1+ 2 i 0.2603 0.3674 0.1769 1 0 0.039 
H21 H1+ 2 i 0.3785 0.3363 0.2399 1 0 0.039 
N8 N3- 2 i 0.3018(4) 0.2545(3) 0.0281(2) 1 0 0.0288(9) 
H22 H1+ 2 i 0.3753 0.2334 -0.0091 1 0 0.043 
H23 H1+ 2 i 0.3048 0.3213 0.0379 1 0 0.043 
H24 H1+ 2 i 0.2029 0.2470 0.0108 1 0 0.043 
N9 N3- 2 i 0.6389(4) 0.1948(3) 0.1315(2) 1 0 0.0323(10) 
H25 H1+ 2 i 0.7086 0.1378 0.1214 1 0 0.049 
H26 H1+ 2 i 0.6706 0.2243 0.1750 1 0 0.049 
H27 H1+ 2 i 0.6365 0.2394 0.0902 1 0 0.049 
N10 N3- 2 i 0.4402(5) 0.0957(3) 0.2937(2) 1 0 0.0343(10) 
H28 H1+ 2 i 0.3502 0.0964 0.3229 1 0 0.052 
H29 H1+ 2 i 0.5010 0.1402 0.3133 1 0 0.052 
H30 H1+ 2 i 0.4965 0.0318 0.2950 1 0 0.052 
N11 N3- 2 i 0.0725(4) 0.1271(3) 0.1590(2) 1 0 0.0334(10) 
H31 H1+ 2 i 0.0239 0.1517 0.1138 1 0 0.050 
H32 H1+ 2 i 0.0254 0.1622 0.1999 1 0 0.050 
H33 H1+ 2 i 0.0633 0.0599 0.1654 1 0 0.050 
N12 N3- 2 i 0.4529(5) -0.0302(3) 0.1119(3) 1 0 0.0520(14) 
H34 H1+ 2 i 0.3777 -0.0499 0.0802 1 0 0.078 
H35 H1+ 2 i 0.4664 -0.0724 0.1547 1 0 0.078 
H36 H1+ 2 i 0.5468 -0.0331 0.0855 1 0 0.078 
N13 N3- 2 i 1.1041(6) 1.0245(5) 0.3722(4) 1 0 0.0452(13) 
H37 H1+ 2 i 1.109(8) 1.025(5) 0.321(4) 1 0 0.08(3) 
H38 H1+ 2 i 1.063(7) 0.980(5) 0.391(4) 1 0 0.05(2) 
H39 H1+ 2 i 1.047(10) 1.093(7) 0.394(5) 1 0 0.14(4) 
N14 N3- 2 i 0.1712(6) 0.0488(4) -0.0488(3) 1 0 0.0354(11) 
H40 H1+ 2 i 0.075(7) 0.089(4) -0.061(3) 1 0 0.048(18) 
H41 H1+ 2 i 0.211(7) 0.073(5) -0.019(4) 1 0 0.05(2) 
H42 H1+ 2 i 0.152(8) -0.008(5) -0.023(4) 1 0 0.08(3) 
B1 B.8+ 2 i 0.6759(6) 0.3484(4) -0.2123(3) 1 0 0.0192(11) 
H43 H1- 2 i 0.621(5) 0.347(3) -0.274(2) 1 0 0.023(4) 
B2 B.8+ 2 i 0.8727(6) 0.3253(4) -0.0188(3) 1 0 0.0175(10) 
H44 H1- 2 i 0.921(5) 0.320(3) 0.040(3) 1 0 0.023(4) 
B3 B.8+ 2 i 0.8089(6) 0.2516(4) -0.1725(3) 1 0 0.0171(10) 
H45 H1- 2 i 0.851(5) 0.191(3) -0.210(2) 1 0 0.023(4) 
B4 B.8+ 2 i 0.8508(6) 0.3834(4) -0.1845(3) 1 0 0.0189(11) 
H46 H1- 2 i 0.928(5) 0.414(3) -0.226(2) 1 0 0.023(4) 
B5 B.8+ 2 i 0.6610(5) 0.4299(4) -0.1379(3) 1 0 0.0186(11) 
H47 H1- 2 i 0.583(5) 0.498(3) -0.145(2) 1 0 0.023(4) 
B6 B.8+ 2 i 0.6189(5) 0.2989(4) -0.1268(3) 1 0 0.0167(10) 
H48 H1- 2 i 0.493(5) 0.266(3) -0.125(3) 1 0 0.023(4) 
B7 B.8+ 2 i 0.7855(6) 0.2398(4) -0.0686(3) 1 0 0.0176(10) 
H49 H1- 2 i 0.779(5) 0.169(3) -0.044(2) 1 0 0.023(4) 
B8 B.8+ 2 i 0.9489(5) 0.2997(4) -0.1087(3) 1 0 0.0165(10) 
H50 H1- 2 i 1.075(5) 0.270(3) -0.122(2) 1 0 0.023(4) 
B9 B.8+ 2 i 0.8432(5) 0.4250(4) -0.0837(3) 1 0 0.0175(10) 
H51 H1- 2 i 0.881(5) 0.496(3) -0.071(2) 1 0 0.023(4) 
B10 B.8+ 2 i 0.6788(5) 0.3651(4) -0.0437(3) 1 0 0.0169(10) 
H52 H1- 2 i 0.591(5) 0.390(3) 0.002(2) 1 0 0.023(4) 
B11 B.8+ 2 i 1.3022(5) 0.6574(4) 0.5240(3) 1 0 0.0168(10) 
H53 H1- 2 i 1.355(4) 0.660(3) 0.465(2) 1 0 0.007(10) 
B12 B.8+ 2 i 1.1178(6) 0.6517(4) 0.7202(3) 1 0 0.0209(11) 
H54 H1- 2 i 1.064(5) 0.650(3) 0.779(2) 1 0 0.021(4) 
B13 B.8+ 2 i 1.1759(6) 0.7471(4) 0.5699(3) 1 0 0.0164(10) 
H55 H1- 2 i 1.137(5) 0.818(3) 0.541(2) 1 0 0.021(4) 
B14 B.8+ 2 i 1.1271(5) 0.6200(4) 0.5524(3) 1 0 0.0165(10) 
H56 H1- 2 i 1.054(5) 0.595(3) 0.507(2) 1 0 0.021(4) 
B15 B.8+ 2 i 1.3178(5) 0.5616(4) 0.5938(3) 1 0 0.0203(11) 
H57 H1- 2 i 1.397(5) 0.490(3) 0.581(2) 1 0 0.021(4) 
B16 B.8+ 2 i 1.3673(5) 0.6903(4) 0.6112(3) 1 0 0.0176(10) 
H58 H1- 2 i 1.496(5) 0.719(3) 0.612(2) 1 0 0.021(4) 
B17 B.8+ 2 i 1.2052(6) 0.7434(4) 0.6742(3) 1 0 0.0166(10) 
H59 H1- 2 i 1.222(5) 0.811(3) 0.702(2) 1 0 0.021(4) 
B18 B.8+ 2 i 1.0370(5) 0.6934(4) 0.6331(3) 1 0 0.0168(10) 
H60 H1- 2 i 0.905(5) 0.727(3) 0.628(2) 1 0 0.021(4) 
B19 B.8+ 2 i 1.1387(6) 0.5626(4) 0.6497(3) 1 0 0.0215(11) 
H61 H1- 2 i 1.096(5) 0.492(3) 0.659(2) 1 0 0.021(4) 
B20 B.8+ 2 i 1.3074(6) 0.6140(4) 0.6911(3) 1 0 0.0218(11) 
H62 H1- 2 i 1.398(5) 0.582(3) 0.732(2) 1 0 0.021(4) 

loop_
_atom_site_aniso_label
_atom_site_aniso_type_symbol
_atom_site_aniso_U_11
_atom_site_aniso_U_22
_atom_site_aniso_U_33
_atom_site_aniso_U_12
_atom_site_aniso_U_13
_atom_site_aniso_U_23
Cs1 Cs1+ 0.01466(14) 0.02081(17) 0.02157(15) -0.00451(11) 0.00128(11) 
-0.00273(12)
Cs2 Cs1+ 0.01432(13) 0.01753(16) 0.01953(15) -0.00313(11) 0.00000(10) 
-0.00019(11)
Na1 Na1+ 0.0272(10) 0.0230(10) 0.0237(10) -0.0057(8) -0.0042(8) 0.0013(8)
N1 N3- 0.0210(19) 0.029(2) 0.026(2) -0.0030(17) -0.0019(17) -0.0019(18)
N2 N3- 0.021(2) 0.040(3) 0.025(2) -0.0087(18) -0.0007(17) 0.0047(19)
N3 N3- 0.026(2) 0.041(3) 0.023(2) -0.0044(18) -0.0023(17) 0.0027(19)
N4 N3- 0.026(2) 0.026(2) 0.048(3) -0.0047(17) -0.002(2) -0.001(2)
N5 N3- 0.030(2) 0.034(3) 0.036(2) -0.0093(19) -0.0049(19) 0.005(2)
N6 N3- 0.037(2) 0.043(3) 0.038(3) -0.016(2) 0.000(2) -0.010(2)
Na2 Na1+ 0.0208(9) 0.0260(11) 0.0266(10) -0.0037(7) -0.0023(8) -0.0021(8)
N7 N3- 0.025(2) 0.025(2) 0.030(2) -0.0057(17) 0.0043(17) -0.0014(19)
N8 N3- 0.023(2) 0.033(3) 0.029(2) -0.0012(17) -0.0012(17) 0.0049(19)
N9 N3- 0.021(2) 0.050(3) 0.026(2) -0.0069(19) -0.0041(17) 0.006(2)
N10 N3- 0.034(2) 0.029(3) 0.040(3) -0.0099(19) -0.007(2) 0.008(2)
N11 N3- 0.027(2) 0.038(3) 0.037(3) -0.0092(19) 0.0010(19) -0.001(2)
N12 N3- 0.034(3) 0.030(3) 0.092(4) -0.005(2) -0.005(3) -0.014(3)
N13 N3- 0.034(3) 0.038(3) 0.061(4) 0.002(2) -0.002(3) -0.003(3)
N14 N3- 0.035(3) 0.034(3) 0.036(3) -0.002(2) 0.002(2) -0.001(3)
B1 B.8+ 0.018(2) 0.022(3) 0.019(3) -0.008(2) -0.001(2) 0.005(2)
B2 B.8+ 0.015(2) 0.017(3) 0.020(3) -0.0008(19) -0.001(2) 0.001(2)
B3 B.8+ 0.018(2) 0.016(3) 0.018(3) -0.0039(19) 0.004(2) -0.001(2)
B4 B.8+ 0.018(2) 0.020(3) 0.020(3) -0.004(2) 0.000(2) 0.003(2)
B5 B.8+ 0.009(2) 0.024(3) 0.022(3) -0.0029(19) -0.0014(19) 0.004(2)
B6 B.8+ 0.012(2) 0.021(3) 0.018(2) -0.0034(19) -0.0020(19) 0.002(2)
B7 B.8+ 0.016(2) 0.017(3) 0.020(3) -0.0036(19) 0.000(2) 0.004(2)
B8 B.8+ 0.015(2) 0.016(3) 0.018(2) -0.0011(19) -0.0004(19) 0.000(2)
B9 B.8+ 0.010(2) 0.019(3) 0.024(3) -0.0027(19) -0.0014(19) 0.002(2)
B10 B.8+ 0.013(2) 0.019(3) 0.018(3) 0.0008(19) -0.0019(19) -0.001(2)
B11 B.8+ 0.013(2) 0.021(3) 0.017(2) -0.0039(19) 0.0003(19) -0.005(2)
B12 B.8+ 0.018(2) 0.027(3) 0.018(3) -0.003(2) 0.000(2) 0.003(2)
B13 B.8+ 0.018(2) 0.015(3) 0.017(2) -0.0049(19) -0.0019(19) 0.002(2)
B14 B.8+ 0.013(2) 0.017(3) 0.020(3) 0.0003(18) 0.0001(19) -0.004(2)
B15 B.8+ 0.005(2) 0.029(3) 0.024(3) 0.0045(19) -0.0003(19) -0.001(2)
B16 B.8+ 0.016(2) 0.021(3) 0.018(2) -0.008(2) 0.0015(19) -0.005(2)
B17 B.8+ 0.019(2) 0.014(3) 0.016(2) -0.0024(19) -0.003(2) -0.002(2)
B18 B.8+ 0.012(2) 0.020(3) 0.019(3) -0.0039(19) -0.0006(19) 0.002(2)
B19 B.8+ 0.015(2) 0.025(3) 0.026(3) -0.012(2) 0.003(2) 0.000(2)
B20 B.8+ 0.015(2) 0.029(3) 0.021(3) -0.004(2) -0.001(2) 0.004(2)
#End of data_414092-ICSD


