data_62474-ICSD
#?2014 by Fachinformationszentrum Karlsruhe, and the U.S. Secretary of 
#Commerce on behalf of the United States.  All rights reserved.
_database_code_ICSD                62474
_audit_creation_date               1988/12/19
_chemical_name_systematic
;
Dibarium Neodymium Aluminium Pentaoxide
;
_chemical_formula_structural       'Ba2 Nd Al O5'
_chemical_formula_sum              'Al1 Ba2 Nd1 O5'
_publ_section_title                'Kristallstruktur von Ba2 Nd Al O5'
loop_
_citation_id
_citation_journal_abbrev
_citation_year
_citation_journal_volume
_citation_page_first
_citation_page_last
_citation_journal_id_ASTM
primary 'Koordinatsionnaya Khimiya (= Coordination Chemistry (USSR))'
 1985 11 1151 1153 KOKHDC
_publ_author_name
;
Antipov, E.V.;Lykova, L.N.;Korba, L.M.
;
_cell_length_a                     7.314(2)
_cell_length_b                     7.525(2)
_cell_length_c                     6.120(1)
_cell_angle_alpha                  90.
_cell_angle_beta                   90.
_cell_angle_gamma                  117.64(2)
_cell_volume                       298.39
_cell_formula_units_Z              2
_symmetry_space_group_name_H-M     'P 1 1 21'
_symmetry_Int_Tables_number        4
_refine_ls_R_factor_all            .076
loop_
_symmetry_equiv_pos_site_id
_symmetry_equiv_pos_as_xyz
  1	'-x, -y, z+.5'
  2	'x, y, z'
loop_
_atom_type_symbol
_atom_type_oxidation_number
Al3+	3
Ba2+	2
Nd3+	3
O2-	-2
loop_
_atom_site_label
_atom_site_type_symbol
_atom_site_symmetry_multiplicity
_atom_site_Wyckoff_symbol
_atom_site_fract_x
_atom_site_fract_y
_atom_site_fract_z
_atom_site_occupancy
_atom_site_attached_hydrogens
_atom_site_U_iso_or_equiv
Nd1 Nd3+ 2 a 0.5962(3) 0.3380(2) 0.25 1. 0 0.0037(4) 
Ba1 Ba2+ 2 a 0.1293(3) 0.3923(3) 0.25 1. 0 0.0068(5) 
Ba2 Ba2+ 2 a 0.3013(3) 0.1356(3) 0.75 1. 0 0.0095(5) 
Al1 Al3+ 2 a 0.829(2) 0.164(2) 0.75 1. 0 0.011(2) 
O1 O2- 2 a 0.216(5) 0.087(5) 0.25 1. 0 0.022(6) 
O2 O2- 2 a 0.089(5) 0.346(4) 0.75 1. 0 0.017(5) 
O3 O2- 2 a 0.517(5) 0.473(5) 0.962(6) 1. 0 0.009(8) 
O4 O2- 2 a 0.683(6) 0.224(6) 0.928(7) 1. 0 0.018(8) 
O5 O2- 2 a 0.764(7) 0.189(6) 0.462(7) 1. 0 0.019(8) 

#End of data_62474-ICSD


