data_9708-ICSD
#?2014 by Fachinformationszentrum Karlsruhe, and the U.S. Secretary of 
#Commerce on behalf of the United States.  All rights reserved.
_database_code_ICSD                9708
_audit_creation_date               2003/10/01
_chemical_name_systematic
;
Dirubidium Sodium Hexafluoromanganate(III)
;
_chemical_formula_structural       'Rb2 Na (Mn F6)'
_chemical_formula_sum              'F6 Mn1 Na1 Rb2'
_publ_section_title
;
Neue Fluorperowskite mit Cr(III) und Mn(III): A (B.5 Cr.5) F3 und A 
(B.5 Mn.5) F3; A, B = Alkalimetall
;
loop_
_citation_id
_citation_journal_abbrev
_citation_year
_citation_journal_volume
_citation_page_first
_citation_page_last
_citation_journal_id_ASTM
primary 'Zeitschrift fuer Anorganische und Allgemeine Chemie (1950) (DE)'
 1972 391 117 125 ZAACAB
2 'Acta Crystallographica (1,1948-23,1967)' 1963 16 45 45 ACCRA9
_publ_author_name                  'Siebert, G.;Hoppe, R.'
_cell_length_a                     5.915
_cell_length_b                     5.915
_cell_length_c                     8.66
_cell_angle_alpha                  90.
_cell_angle_beta                   90.
_cell_angle_gamma                  90.
_cell_volume                       302.99
_cell_formula_units_Z              2
_symmetry_space_group_name_H-M     'I 4/m m m'
_symmetry_Int_Tables_number        139
loop_
_symmetry_equiv_pos_site_id
_symmetry_equiv_pos_as_xyz
  1	'y, x, -z'
  2	'-y, -x, -z'
  3	'-y, x, -z'
  4	'y, -x, -z'
  5	'-x, y, -z'
  6	'x, -y, -z'
  7	'x, y, -z'
  8	'-x, -y, -z'
  9	'-y, -x, z'
 10	'y, x, z'
 11	'y, -x, z'
 12	'-y, x, z'
 13	'x, -y, z'
 14	'-x, y, z'
 15	'-x, -y, z'
 16	'x, y, z'
 17	'y+.5, x+.5, -z+.5'
 18	'-y+.5, -x+.5, -z+.5'
 19	'-y+.5, x+.5, -z+.5'
 20	'y+.5, -x+.5, -z+.5'
 21	'-x+.5, y+.5, -z+.5'
 22	'x+.5, -y+.5, -z+.5'
 23	'x+.5, y+.5, -z+.5'
 24	'-x+.5, -y+.5, -z+.5'
 25	'-y+.5, -x+.5, z+.5'
 26	'y+.5, x+.5, z+.5'
 27	'y+.5, -x+.5, z+.5'
 28	'-y+.5, x+.5, z+.5'
 29	'x+.5, -y+.5, z+.5'
 30	'-x+.5, y+.5, z+.5'
 31	'-x+.5, -y+.5, z+.5'
 32	'x+.5, y+.5, z+.5'
loop_
_atom_type_symbol
_atom_type_oxidation_number
F1-	-1
Mn3+	3
Na1+	1
Rb1+	1
loop_
_atom_site_label
_atom_site_type_symbol
_atom_site_symmetry_multiplicity
_atom_site_Wyckoff_symbol
_atom_site_fract_x
_atom_site_fract_y
_atom_site_fract_z
_atom_site_occupancy
_atom_site_attached_hydrogens
Rb1 Rb1+ 4 d 0 0.5 0.25 1. 0 
Na1 Na1+ 2 b 0 0 0.5 1. 0 
Mn1 Mn3+ 2 a 0 0 0 1. 0 
F1 F1- 8 h 0.221 0.221 0 1. 0 
F2 F1- 4 e 0 0 0.231 1. 0 

#End of data_9708-ICSD


