data_248204-ICSD
#?2014 by Fachinformationszentrum Karlsruhe, and the U.S. Secretary of 
#Commerce on behalf of the United States.  All rights reserved.
_database_code_ICSD                248204
_audit_creation_date               2011/02/01
_chemical_name_systematic
;
Tripotassium Hexaberyllium Tris(phyllo-heptaoxotriborate)
;
_chemical_formula_structural       'K3 Be6 (B3 O7)3'
_chemical_formula_sum              'B9 Be6 K3 O21'
_publ_section_title
;
Alkaline beryllium borate Na Be B3 O6 and A Be2 B3 O7 (A = K, Rb) as 
UV nonlinear optical crystals
;
loop_
_citation_id
_citation_journal_abbrev
_citation_year
_citation_journal_volume
_citation_journal_issue
_citation_page_first
_citation_page_last
_citation_journal_id_ASTM
primary 'Journal of the American Chemical Society' 2010 132 25 8779 8786 JACSAT
_publ_author_name
;
Wang Shichao;Ye Ning;Li Wei;Zhao Dan
;
_cell_length_a                     7.4766(13)
_cell_length_b                     13.2701(18)
_cell_length_c                     9.3263(17)
_cell_angle_alpha                  90
_cell_angle_beta                   111.272(10)
_cell_angle_gamma                  90
_cell_volume                       862.27
_cell_formula_units_Z              2
_symmetry_space_group_name_H-M     'P 1 21 1'
_symmetry_Int_Tables_number        4
_refine_ls_R_factor_all            .0405
loop_
_symmetry_equiv_pos_site_id
_symmetry_equiv_pos_as_xyz
  1	'-x, y+.5, -z'
  2	'x, y, z'
loop_
_atom_type_symbol
_atom_type_oxidation_number
B3+	3
Be2+	2
K1+	1
O2-	-2
loop_
_atom_site_label
_atom_site_type_symbol
_atom_site_symmetry_multiplicity
_atom_site_Wyckoff_symbol
_atom_site_fract_x
_atom_site_fract_y
_atom_site_fract_z
_atom_site_occupancy
_atom_site_attached_hydrogens
_atom_site_U_iso_or_equiv
K1 K1+ 2 a 0.36980(18) 0.55848(7) 0.76653(12) 1 0 0.0219(3) 
K2 K1+ 2 a 0.37906(17) 0.91092(7) 0.76614(13) 1 0 0.0201(3) 
K3 K1+ 2 a 0.0018(3) 0.48280(13) 1.0054(2) 1 0 0.0364(3) 
Be1 Be2+ 2 a -0.0238(9) 0.3960(3) 0.5867(7) 1 0 0.0075(11) 
Be2 Be2+ 2 a 0.0308(8) 0.5626(4) 0.4230(6) 1 0 0.0081(11) 
Be3 Be2+ 2 a 0.3969(8) 0.5634(4) 0.4157(6) 1 0 0.0081(11) 
Be4 Be2+ 2 a 0.6001(9) 0.3954(3) 0.5781(6) 1 0 0.0092(12) 
Be5 Be2+ 2 a 0.3988(6) 0.2275(5) 0.4084(5) 1 0 0.0082(8) 
Be6 Be2+ 2 a 0.0277(6) 0.2304(5) 0.4107(5) 1 0 0.0074(8) 
B1 B3+ 2 a 0.2361(8) 0.3961(3) 0.4638(6) 1 0 0.0102(11) 
B2 B3+ 2 a 0.2359(5) 0.7289(4) 0.4737(4) 1 0 0.0067(7) 
B3 B3+ 2 a -0.2339(7) 0.5650(3) 0.5389(5) 1 0 0.0058(9) 
B4 B3+ 2 a 0.3445(8) 0.6439(4) 0.1520(6) 1 0 0.0149(10) 
B5 B3+ 2 a 0.1912(5) 0.7375(5) -0.0875(4) 1 0 0.0144(8) 
B6 B3+ 2 a 0.3578(7) 0.8237(4) 0.1575(5) 1 0 0.0105(9) 
B7 B3+ 2 a 0.3111(5) 0.2282(5) 0.0879(4) 1 0 0.0135(8) 
B8 B3+ 2 a 0.1560(8) 0.3227(4) -0.1495(6) 1 0 0.0157(11) 
B9 B3+ 2 a 0.1590(8) 0.1415(4) -0.1569(6) 1 0 0.0188(12) 
O1 O2- 2 a -0.0809(3) 0.5123(2) 0.5271(3) 1 0 0.0090(5) 
O2 O2- 2 a 0.0864(4) 0.34526(19) 0.4822(3) 1 0 0.0091(5) 
O3 O2- 2 a 0.2208(3) 0.16531(18) 0.4306(3) 1 0 0.0087(5) 
O4 O2- 2 a 0.3945(3) 0.34626(19) 0.4625(3) 1 0 0.0085(5) 
O5 O2- 2 a 0.6017(3) 0.5121(2) 0.5169(3) 1 0 0.0087(5) 
O6 O2- 2 a 0.2283(3) 0.49909(18) 0.4528(3) 1 0 0.0084(5) 
O7 O2- 2 a 0.3972(3) 0.67712(19) 0.4821(3) 1 0 0.0077(5) 
O8 O2- 2 a 0.0923(3) 0.67583(19) 0.4966(3) 1 0 0.0075(5) 
O9 O2- 2 a 0.2277(3) 0.83195(19) 0.4534(3) 1 0 0.0089(5) 
O10 O2- 2 a 0.1123(4) 0.7407(3) -0.2358(3) 1 0 0.0187(6) 
O11 O2- 2 a 0.2335(5) 0.6468(2) -0.0059(4) 1 0 0.0168(8) 
O12 O2- 2 a 0.2441(6) 0.8272(3) -0.0002(4) 1 0 0.0195(8) 
O13 O2- 2 a 0.3562(6) 0.5613(2) 0.2331(4) 1 0 0.0131(7) 
O14 O2- 2 a 0.4393(4) 0.7320(3) 0.2146(3) 1 0 0.0194(6) 
O15 O2- 2 a 0.3765(6) 0.9044(2) 0.2445(4) 1 0 0.0148(8) 
O16 O2- 2 a 0.3992(4) 0.2256(3) 0.2367(3) 1 0 0.0154(6) 
O17 O2- 2 a 0.2692(5) 0.1400(3) -0.0005(4) 1 0 0.0181(8) 
O18 O2- 2 a 0.2648(6) 0.3213(2) 0.0076(4) 1 0 0.0202(9) 
O19 O2- 2 a 0.1074(5) 0.0597(2) -0.2426(4) 1 0 0.0127(7) 
O20 O2- 2 a 0.0830(6) 0.2331(4) -0.2145(3) 1 0 0.0630(13) 
O21 O2- 2 a 0.1083(6) 0.4061(2) -0.2311(4) 1 0 0.0132(7) 

loop_
_atom_site_aniso_label
_atom_site_aniso_type_symbol
_atom_site_aniso_U_11
_atom_site_aniso_U_22
_atom_site_aniso_U_33
_atom_site_aniso_U_12
_atom_site_aniso_U_13
_atom_site_aniso_U_23
K1 K1+ 0.0276(6) 0.0169(5) 0.0210(5) -0.0018(4) 0.0086(5) -0.0032(4)
K2 K1+ 0.0256(6) 0.0158(5) 0.0195(5) 0.0005(4) 0.0089(4) 0.0020(4)
K3 K1+ 0.0400(5) 0.0258(4) 0.0543(7) -0.0086(4) 0.0301(5) -0.0151(4)
Be1 Be2+ 0.010(3) 0.003(2) 0.010(2) -0.0018(16) 0.005(2) 0.0000(16)
Be2 Be2+ 0.007(2) 0.006(2) 0.010(2) 0.0034(18) 0.0032(19) 0.0001(18)
Be3 Be2+ 0.007(2) 0.004(2) 0.013(3) -0.0008(18) 0.0035(19) 0.0004(17)
Be4 Be2+ 0.012(3) 0.006(3) 0.009(2) 0.0002(16) 0.003(2) 0.0013(17)
Be5 Be2+ 0.0071(17) 0.007(2) 0.0109(18) -0.002(2) 0.0035(15) 0.002(2)
Be6 Be2+ 0.0092(17) 0.0069(17) 0.0085(17) -0.001(2) 0.0061(15) 0.001(2)
B1 B3+ 0.013(2) 0.010(3) 0.006(2) 0.0016(16) 0.0006(18) 0.0026(15)
B2 B3+ 0.0072(14) 0.0067(16) 0.0058(15) 0.0008(19) 0.0020(13) 0.0005(18)
B3 B3+ 0.005(2) 0.007(2) 0.007(2) 0.0002(16) 0.0046(16) -0.0014(15)
B4 B3+ 0.023(2) 0.010(2) 0.012(2) 0.0033(18) 0.007(2) 0.0000(17)
B5 B3+ 0.0150(17) 0.0150(17) 0.0107(17) -0.001(2) 0.0017(14) -0.004(2)
B6 B3+ 0.012(2) 0.012(2) 0.008(2) -0.0028(16) 0.0046(17) -0.0001(17)
B7 B3+ 0.0132(16) 0.0106(18) 0.0161(18) -0.002(2) 0.0045(15) -0.001(2)
B8 B3+ 0.019(2) 0.014(2) 0.011(2) 0.0005(18) 0.0017(19) -0.0047(18)
B9 B3+ 0.027(3) 0.010(2) 0.015(2) -0.0008(19) 0.001(2) -0.0013(19)
O1 O2- 0.0097(11) 0.0044(11) 0.0145(13) 0.0002(10) 0.0063(10) 0.0008(10)
O2 O2- 0.0109(11) 0.0040(11) 0.0167(12) -0.0009(10) 0.0100(10) -0.0007(10)
O3 O2- 0.0055(11) 0.0080(11) 0.0146(12) 0.0009(9) 0.0059(10) 0.0006(10)
O4 O2- 0.0069(11) 0.0063(11) 0.0134(12) 0.0002(9) 0.0049(10) -0.0004(10)
O5 O2- 0.0047(11) 0.0063(11) 0.0163(13) -0.0015(9) 0.0051(10) -0.0003(10)
O6 O2- 0.0082(11) 0.0056(12) 0.0135(13) -0.0011(9) 0.0064(10) -0.0002(10)
O7 O2- 0.0044(11) 0.0059(11) 0.0142(12) 0.0013(9) 0.0049(10) -0.0014(10)
O8 O2- 0.0076(11) 0.0036(11) 0.0137(12) -0.0011(9) 0.0068(10) -0.0007(10)
O9 O2- 0.0075(11) 0.0050(11) 0.0145(13) 0.0003(10) 0.0044(10) 0.0021(10)
O10 O2- 0.0230(13) 0.0216(15) 0.0091(11) -0.0020(17) 0.0028(11) 0.0018(16)
O11 O2- 0.0264(19) 0.0120(18) 0.0100(16) -0.0048(13) 0.0042(14) -0.0012(11)
O12 O2- 0.035(2) 0.0088(17) 0.0086(15) 0.0009(14) 0.0001(14) -0.0019(12)
O13 O2- 0.0219(18) 0.0084(15) 0.0099(15) -0.0030(12) 0.0070(13) 0.0004(12)
O14 O2- 0.0292(13) 0.0114(11) 0.0118(11) -0.0022(17) 0.0006(10) 0.0031(14)
O15 O2- 0.0195(19) 0.0127(19) 0.0126(16) -0.0059(12) 0.0064(14) 0.0002(11)
O16 O2- 0.0172(12) 0.0188(15) 0.0096(11) 0.0007(15) 0.0043(10) -0.0012(14)
O17 O2- 0.0264(19) 0.0101(16) 0.0132(16) 0.0011(13) 0.0018(14) -0.0017(12)
O18 O2- 0.033(2) 0.0100(17) 0.0094(16) 0.0011(14) -0.0028(14) -0.0006(12)
O19 O2- 0.0164(16) 0.0072(14) 0.0111(15) 0.0023(13) 0.0009(12) 0.0017(12)
O20 O2- 0.113(3) 0.0091(13) 0.0210(15) 0.007(3) -0.0302(18) -0.0012(19)
O21 O2- 0.0139(16) 0.0107(17) 0.0111(16) -0.0006(12) -0.0001(13) 0.0014(12)
#End of data_248204-ICSD


