data_164187-ICSD
#?2014 by Fachinformationszentrum Karlsruhe, and the U.S. Secretary of 
#Commerce on behalf of the United States.  All rights reserved.
_database_code_ICSD                164187
_audit_creation_date               2010/02/01
_chemical_name_systematic          'Calcium Catena-divanadate(III)'
_chemical_formula_structural       'Ca (V2 O4)'
_chemical_formula_sum              'Ca1 O4 V2'
_publ_section_title
;
Single-crystal growth, crystallography, magnetic susceptibility, heat 
capacity and thermal expansion of the antiferromagnetic S=1 chain 
compound Ca V2 O4
;
loop_
_citation_id
_citation_journal_abbrev
_citation_year
_citation_journal_volume
_citation_page_first
_citation_page_last
_citation_journal_id_ASTM
primary 'Physical Review, Serie 3. B - Condensed Matter (18,1978-)'
 2009 79 104432-1 104432-21 PRBMDO
_publ_author_name
;
Niazi, A.;Bud'ko, S.L.;Schlagel, D.L.;Yan, J.-Q.;Lograsso, 
T.A.;Kreyssig, A.;Das, S.;Nandi, S.;Goldman, A.I.;Honecker, 
A.;McCallum, R.W.;Reehuis, M.;Pieper, O.;Lake, B.;Johnston, D.C.
;
_cell_length_a                     9.2054(3)
_cell_length_b                     10.6748(3)
_cell_length_c                     3.0042(1)
_cell_angle_alpha                  90.
_cell_angle_beta                   90.
_cell_angle_gamma                  90.
_cell_volume                       295.21
_cell_formula_units_Z              4
_symmetry_space_group_name_H-M     'P n a m'
_symmetry_Int_Tables_number        62
_refine_ls_R_factor_all            .1095
loop_
_symmetry_equiv_pos_site_id
_symmetry_equiv_pos_as_xyz
  1	'x+.5, -y+.5, z'
  2	'x, y, -z+.5'
  3	'-x+.5, y+.5, z+.5'
  4	'-x, -y, -z'
  5	'-x+.5, y+.5, -z'
  6	'-x, -y, z+.5'
  7	'x+.5, -y+.5, -z+.5'
  8	'x, y, z'
loop_
_atom_type_symbol
_atom_type_oxidation_number
Ca2+	2
O2-	-2
V3+	3
loop_
_atom_site_label
_atom_site_type_symbol
_atom_site_symmetry_multiplicity
_atom_site_Wyckoff_symbol
_atom_site_fract_x
_atom_site_fract_y
_atom_site_fract_z
_atom_site_occupancy
_atom_site_attached_hydrogens
_atom_site_B_iso_or_equiv
Ca1 Ca2+ 4 c 0.7542(4) 0.6544(3) 0.250 1. 0 1.58(5) 
V1 V3+ 4 c 0.4336(3) 0.6120(2) 0.250 1. 0 1.58(5) 
V2 V3+ 4 c 0.4200(3) 0.1043(2) 0.250 1. 0 1.58(5) 
O1 O2- 4 c 0.2049(8) 0.1603(8) 0.250 1. 0 1.58(5) 
O2 O2- 4 c 0.1144(7) 0.4756(8) 0.250 1. 0 1.58(5) 
O3 O2- 4 c 0.5166(0) 0.7806(7) 0.250 1. 0 1.58(5) 
O4 O2- 4 c 0.4244(8) 0.4325(7) 0.250 1. 0 1.58(5) 

#End of data_164187-ICSD


