data_411772-ICSD
#?2014 by Fachinformationszentrum Karlsruhe, and the U.S. Secretary of 
#Commerce on behalf of the United States.  All rights reserved.
_database_code_ICSD                411772
_audit_creation_date               2003/10/01
_chemical_name_systematic          'Silver Mercury Sulfide Iodide'
_chemical_formula_structural       'Ag Hg S I'
_chemical_formula_sum              'Ag1 Hg1 I1 S1'
_publ_section_title
;
Hydrothermalsynthese und Kristallstruktur der Muenzmetall-Quecksilber-
Chalkogenidhalogenide Cu Hg Se Br, Ag Hg S Br und Ag Hg S I
;
loop_
_citation_id
_citation_journal_abbrev
_citation_year
_citation_journal_volume
_citation_page_first
_citation_page_last
_citation_journal_id_ASTM
primary 'Zeitschrift fuer Anorganische und Allgemeine Chemie (1950) (DE)'
 2001 627 2289 2294 ZAACAB
_publ_author_name
;
Beck, J.;Keller, H.L.;Rompel, M.;Wimbert, L.
;
_cell_length_a                     10.1585(12)
_cell_length_b                     4.6477(5)
_cell_length_c                     9.8487(16)
_cell_angle_alpha                  90.
_cell_angle_beta                   90.
_cell_angle_gamma                  90.
_cell_volume                       464.99
_cell_formula_units_Z              4
_symmetry_space_group_name_H-M     'P m m a'
_symmetry_Int_Tables_number        51
_refine_ls_R_factor_all            .041
loop_
_symmetry_equiv_pos_site_id
_symmetry_equiv_pos_as_xyz
  1	'-x+.5, -y, z'
  2	'x+.5, -y, -z'
  3	'x, -y, z'
  4	'-x, -y, -z'
  5	'x+.5, y, -z'
  6	'-x+.5, y, z'
  7	'-x, y, -z'
  8	'x, y, z'
loop_
_atom_type_symbol
_atom_type_oxidation_number
Ag1+	1
Hg2+	2
I1-	-1
S2-	-2
loop_
_atom_site_label
_atom_site_type_symbol
_atom_site_symmetry_multiplicity
_atom_site_Wyckoff_symbol
_atom_site_fract_x
_atom_site_fract_y
_atom_site_fract_z
_atom_site_occupancy
_atom_site_attached_hydrogens
_atom_site_U_iso_or_equiv
Hg1 Hg2+ 2 f 0.25 0.5 0.75868(11) 1. 0 0.0371(4) 
Hg2 Hg2+ 2 d 0 0.5 0.5 1. 0 0.0378(4) 
Ag1 Ag1+ 4 i 0.0685(3) 0 0.2062(3) 1. 0 0.0803(8) 
I1 I1- 2 e 0.25 0 0.47294(16) 1. 0 0.0284(4) 
I2 I1- 2 e 0.25 0 0.99202(15) 1. 0 0.0319(4) 
S1 S2- 4 j 0.0168(4) 0.5 0.7406(4) 1. 0 0.0267(8) 

loop_
_atom_site_aniso_label
_atom_site_aniso_type_symbol
_atom_site_aniso_U_11
_atom_site_aniso_U_22
_atom_site_aniso_U_33
_atom_site_aniso_U_12
_atom_site_aniso_U_13
_atom_site_aniso_U_23
Hg1 Hg2+ 0.0246(5) 0.0415(7) 0.0453(6) 0 0 0
Hg2 Hg2+ 0.0425(6) 0.0402(6) 0.0309(5) 0 -0.0063(4) 0
Ag1 Ag1+ 0.1043(18) 0.0342(11) 0.1023(18) 0 0.0615(15) 0
I1 I1- 0.0256(6) 0.0239(8) 0.0358(8) 0 0 0
I2 I1- 0.0341(7) 0.0371(9) 0.0246(7) 0 0 0
S1 S2- 0.0245(16) 0.025(2) 0.0303(17) 0 0.0020(13) 0
#End of data_411772-ICSD


