data_151883-ICSD
#?2014 by Fachinformationszentrum Karlsruhe, and the U.S. Secretary of 
#Commerce on behalf of the United States.  All rights reserved.
_database_code_ICSD                151883
_audit_creation_date               2006/10/01
_chemical_name_systematic          'Potassium Aluminate - Ht'
_chemical_formula_structural       'K (Al O2)'
_chemical_formula_sum              'Al1 K1 O2'
_publ_section_title
;
Potassium aluminate crystalline structure and electroconduction
;
loop_
_citation_id
_citation_journal_abbrev
_citation_year
_citation_journal_volume
_citation_journal_issue
_citation_page_first
_citation_page_last
_citation_journal_id_ASTM
primary 'Russian journal of electrochemistry (= Elektrokhimiya)'
 2004 40 6 619 625 RJELE3
_publ_author_name
;
Burmakin, E.I.;Voronin, V.I.;Akhtyamova, L.Z.;Berger, I.F.;Shekhtman, 
G.Sh.
;
_cell_length_a                     5.502(3)
_cell_length_b                     5.502(3)
_cell_length_c                     7.806(8)
_cell_angle_alpha                  90.
_cell_angle_beta                   90.
_cell_angle_gamma                  90.
_cell_volume                       236.3
_cell_formula_units_Z              4
_symmetry_space_group_name_H-M     'P 41 21 2'
_symmetry_Int_Tables_number        92
_refine_ls_R_factor_all            .0243
loop_
_symmetry_equiv_pos_site_id
_symmetry_equiv_pos_as_xyz
  1	'x+.5, -y+.5, -z+.75'
  2	'-x+.5, y+.5, -z+.25'
  3	'-y, -x, -z+.5'
  4	'y, x, -z'
  5	'y+.5, -x+.5, z+.75'
  6	'-y+.5, x+.5, z+.25'
  7	'-x, -y, z+.5'
  8	'x, y, z'
loop_
_atom_type_symbol
_atom_type_oxidation_number
Al3+	3
K1+	1
O2-	-2
loop_
_atom_site_label
_atom_site_type_symbol
_atom_site_symmetry_multiplicity
_atom_site_Wyckoff_symbol
_atom_site_fract_x
_atom_site_fract_y
_atom_site_fract_z
_atom_site_occupancy
_atom_site_attached_hydrogens
_atom_site_B_iso_or_equiv
Al1 Al3+ 4 a 0.257(1) 0.257(1) 0 1. 0 2.3(3) 
K1 K1+ 4 a 0.757(1) 0.757(1) 0 1. 0 2.7(4) 
O1 O2- 8 b 0.191(1) 0.008(1) 0.120(1) 1. 0 3.5(3) 

#End of data_151883-ICSD


