data_63052-ICSD
#?2014 by Fachinformationszentrum Karlsruhe, and the U.S. Secretary of 
#Commerce on behalf of the United States.  All rights reserved.
_database_code_ICSD                63052
_audit_creation_date               1989/06/19
_chemical_name_systematic          'Calcium Gallate (5/6)'
_chemical_formula_structural       'Ca5 Ga6 O14'
_chemical_formula_sum              'Ca5 Ga6 O14'
_publ_section_title
;
Crystal structure of Ca5 Ga6 O14 (5 Ca O * 3 Ga2 O3)
;
loop_
_citation_id
_citation_journal_abbrev
_citation_year
_citation_journal_volume
_citation_journal_issue
_citation_page_first
_citation_page_last
_citation_journal_id_ASTM
primary Kristallografiya 1988 33- 242 244 KRISAJ
2 'Soviet Physics, Crystallography (= Kristallografiya)'
 1988 33 1 142 144 SPHCA6
_publ_author_name
;
Merinov, B.V.;Londar, S.L.;Zakharko, Ya.M.
;
_cell_length_a                     11.495(6)
_cell_length_b                     11.270(6)
_cell_length_c                     10.479(3)
_cell_angle_alpha                  90.
_cell_angle_beta                   90.
_cell_angle_gamma                  90.
_cell_volume                       1357.54
_cell_formula_units_Z              4
_symmetry_space_group_name_H-M     'C m c 21'
_symmetry_Int_Tables_number        36
_refine_ls_R_factor_all            .043
loop_
_symmetry_equiv_pos_site_id
_symmetry_equiv_pos_as_xyz
  1	'x, -y, z+.5'
  2	'-x, -y, z+.5'
  3	'-x, y, z'
  4	'x, y, z'
  5	'x+.5, -y+.5, z+.5'
  6	'-x+.5, -y+.5, z+.5'
  7	'-x+.5, y+.5, z'
  8	'x+.5, y+.5, z'
loop_
_atom_type_symbol
_atom_type_oxidation_number
Ca2+	2
Ga3+	3
O2-	-2
loop_
_atom_site_label
_atom_site_type_symbol
_atom_site_symmetry_multiplicity
_atom_site_Wyckoff_symbol
_atom_site_fract_x
_atom_site_fract_y
_atom_site_fract_z
_atom_site_occupancy
_atom_site_attached_hydrogens
_atom_site_B_iso_or_equiv
Ca1 Ca2+ 8 b 0.1587(1) 0.1012(1) 0.25 1. 0 0.81(1) 
Ca2 Ca2+ 8 b 0.3570(1) 0.3166(1) 0.2023(1) 1. 0 0.79(1) 
Ca3 Ca2+ 4 a 0 0.5264(1) 0.2449(1) 1. 0 0.94(1) 
Ga1 Ga3+ 8 b 0.3567(1) 0.1461(1) 0.5088(1) 1. 0 0.551(6) 
Ga2 Ga3+ 4 a 0 0.2998(1) 0.4401(1) 1. 0 0.573(6) 
Ga3 Ga3+ 4 a 0 -.0005(1) 0.4651(1) 1. 0 0.545(5) 
Ga4 Ga3+ 8 b 0.2438(1) 0.4027(1) 0.4766(1) 1. 0 0.572(6) 
O1 O2- 8 b 0.2865(4) 0.2784(4) 0.5852(3) 1. 0 0.83(4) 
O2 O2- 4 a 0 0.6161(5) 0.5748(4) 1. 0 1.09(5) 
O3 O2- 8 b 0.2680(5) 0.0274(5) 0.5947(4) 1. 0 0.99(5) 
O4 O2- 8 b 0.3734(5) 0.4344(4) 0.3821(3) 1. 0 0.80(4) 
O5 O2- 4 a 0 0.1456(4) 0.3814(3) 1. 0 0.89(5) 
O6 O2- 8 b 0.3388(5) 0.1486(5) 0.3382(4) 1. 0 1.00(5) 
O7 O2- 4 a 0 0.0096(5) 0.6399(4) 1. 0 1.06(5) 
O8 O2- 8 b 0.1257(5) 0.3738(5) 0.3691(4) 1. 0 1.25(5) 
O9 O2- 4 a 0 0.2993(4) 0.6164(3) 1. 0 0.90(4) 

#End of data_63052-ICSD


