data_200169-ICSD
#?2014 by Fachinformationszentrum Karlsruhe, and the U.S. Secretary of 
#Commerce on behalf of the United States.  All rights reserved.
_database_code_ICSD                200169
_audit_creation_date               1980/01/01
_audit_update_record               2007/08/01
_chemical_name_systematic
;
Pentasodium Dititanodisilicate Phosphate(V)
;
_chemical_formula_structural       'Na5 (Ti2 Si2 O9) (P O4)'
_chemical_formula_sum              'Na5 O13 P1 Si2 Ti2'
_chemical_name_mineral             Lomonosovite
_publ_section_title
;
The refined structure of lomonosovite
;
loop_
_citation_id
_citation_journal_abbrev
_citation_year
_citation_journal_volume
_citation_page_first
_citation_page_last
_citation_journal_id_ASTM
primary 'Doklady Akademii Nauk SSSR' 1977 235 1064 1067 DANKAS
2 'Doklady Akademii Nauk SSSR' 1971 197 81 84 DANKAS
_publ_author_name
;
Belov, N.V.;Gavrilova, G.S.;Solov'eva, L.P.;Khalilov, A.D.
;
_cell_length_a                     5.49
_cell_length_b                     7.11
_cell_length_c                     14.5
_cell_angle_alpha                  101.
_cell_angle_beta                   96.
_cell_angle_gamma                  90.
_cell_volume                       552.43
_cell_formula_units_Z              2
_symmetry_space_group_name_H-M     'P -1'
_symmetry_Int_Tables_number        2
_refine_ls_R_factor_all            .14
loop_
_symmetry_equiv_pos_site_id
_symmetry_equiv_pos_as_xyz
  1	'-x, -y, -z'
  2	'x, y, z'
loop_
_atom_type_symbol
_atom_type_oxidation_number
Na1+	1
O2-	-2
P5+	5
Si4+	4
Ti4+	4
loop_
_atom_site_label
_atom_site_type_symbol
_atom_site_symmetry_multiplicity
_atom_site_Wyckoff_symbol
_atom_site_fract_x
_atom_site_fract_y
_atom_site_fract_z
_atom_site_occupancy
_atom_site_attached_hydrogens
_atom_site_B_iso_or_equiv
Ti1 Ti4+ 2 i 0.1658(9) 0.9271(4) 0.2178(2) 1. 0 0.06(5) 
Ti2 Ti4+ 2 i 0.7698(9) 0.3865(5) -.0076(2) 1. 0 0.43(6) 
Si1 Si4+ 2 i 0.6671(15) 0.2031(8) 0.1764(4) 1. 0 0.63(10) 
Si2 Si4+ 2 i 0.6487(15) 0.6387(8) 0.1985(4) 1. 0 0.56(9) 
P1 P5+ 2 i 0.1801(15) 0.2242(8) 0.4327(4) 1. 0 0.78(10) 
Na1 Na1+ 2 i 0.169(2) 0.418(1) 0.2349(6) 1. 0 1.65(17) 
Na2 Na1+ 2 i 0.757(2) 0.882(1) -.0037(7) 1. 0 2.11(19) 
Na3 Na1+ 2 i 0.682(2) 0.973(1) 0.3597(6) 1. 0 0.94(15) 
Na4 Na1+ 2 i 0.677(2) 0.459(1) 0.3975(7) 1. 0 1.91(19) 
Na5 Na1+ 2 i 0.239(2) 0.738(1) 0.4148(7) 1. 0 1.76(18) 
O1 O2- 2 i 0.671(3) 0.430(2) 0.232(1) 1. 0 0.97(26) 
O2 O2- 2 i 0.642(4) 0.197(2) 0.066(1) 1. 0 1.42(19) 
O3 O2- 2 i 0.925(4) 0.120(2) 0.213(11) 1. 0 1.92(33) 
O4 O2- 2 i 0.432(4) 0.103(2) 0.209(1) 1. 0 2.03(32) 
O5 O2- 2 i 0.598(4) 0.609(2) 0.084(1) 1. 0 1.11(26) 
O6 O2- 2 i 0.904(3) 0.753(2) 0.247(1) 1. 0 1.38(27) 
O7 O2- 2 i 0.413(4) 0.734(2) 0.250(1) 1. 0 1.22(29) 
O8 O2- 2 i 0.132(4) 0.831(2) 0.091(1) 1. 0 1.38(31) 
O9 O2- 2 i 0.235(4) 0.034(2) 0.368(1) 1. 0 1.32(31) 
O10 O2- 2 i 0.092(4) 0.426(2) 0.071(1) 1. 0 1.13(28) 
O11 O2- 2 i 0.901(4) 0.225(2) 0.443(1) 1. 0 1.91(32) 
O12 O2- 2 i 0.250(4) 0.400(2) 0.391(1) 1. 0 1.65(30) 
O13 O2- 2 i 0.326(4) 0.228(2) 0.530(1) 1. 0 1.42(29) 

#End of data_200169-ICSD


