data_290738-ICSD
#?2014 by Fachinformationszentrum Karlsruhe, and the U.S. Secretary of 
#Commerce on behalf of the United States.  All rights reserved.
_database_code_ICSD                290738
_audit_creation_date               2014/08/01
_chemical_name_systematic          'Lithium Copper Vanadate(V)'
_chemical_formula_structural       'Li Cu V O4'
_chemical_formula_sum              'Cu1 Li1 O4 V1'
_publ_section_title
;
Structural and magnetic properties of quasi-one-dimensional doped Li 
Cu V O4
;
loop_
_citation_id
_citation_journal_abbrev
_citation_year
_citation_journal_volume
_citation_page_first
_citation_page_last
_citation_journal_id_ASTM
primary 'Journal of Solid State Chemistry' 2013 208 120 126 JSSCBI
_publ_author_name
;
Kumar, Abhishek;Kumari, Poonam;Das, A.;Dwivedi, G.D.;Shahi, 
P.;Shukla, K.K.;Ghosh, A.K.;Nigam, A.K.;Chattopadhyay, 
K.K.;Chatterjee, Sandip
;
_cell_length_a                     5.6517(5)
_cell_length_b                     5.8001(5)
_cell_length_c                     8.7453(7)
_cell_angle_alpha                  90.
_cell_angle_beta                   90.
_cell_angle_gamma                  90.
_cell_volume                       286.67
_cell_formula_units_Z              4
_symmetry_space_group_name_H-M     'I m m a'
_symmetry_Int_Tables_number        74
loop_
_symmetry_equiv_pos_site_id
_symmetry_equiv_pos_as_xyz
  1	'-x, y+.5, -z'
  2	'-x, -y+.5, z'
  3	'-x, y, z'
  4	'-x, -y, -z'
  5	'x, -y+.5, z'
  6	'x, y+.5, -z'
  7	'x, -y, -z'
  8	'x, y, z'
  9	'-x+.5, y, -z+.5'
 10	'-x+.5, -y, z+.5'
 11	'-x+.5, y+.5, z+.5'
 12	'-x+.5, -y+.5, -z+.5'
 13	'x+.5, -y, z+.5'
 14	'x+.5, y, -z+.5'
 15	'x+.5, -y+.5, -z+.5'
 16	'x+.5, y+.5, z+.5'
loop_
_atom_type_symbol
_atom_type_oxidation_number
Cu2+	2
Li1+	1
O2-	-2
V5+	5
loop_
_atom_site_label
_atom_site_type_symbol
_atom_site_symmetry_multiplicity
_atom_site_Wyckoff_symbol
_atom_site_fract_x
_atom_site_fract_y
_atom_site_fract_z
_atom_site_occupancy
_atom_site_attached_hydrogens
Li1 Li1+ 4 d 0.25 0.25 0.75 1. 0 
Cu1 Cu2+ 4 a 0 0 0 1. 0 
V1 V5+ 4 e 0 0.25 0.6121(4) 1. 0 
O1 O2- 8 h 0 0.5151(9) 0.2744(3) 1. 0 
O2 O2- 8 i 0.2356(5) 0.25 -0.0005(13) 1. 0 

#End of data_290738-ICSD


