data_163567-ICSD
#?2014 by Fachinformationszentrum Karlsruhe, and the U.S. Secretary of 
#Commerce on behalf of the United States.  All rights reserved.
_database_code_ICSD                163567
_audit_creation_date               2009/08/01
_audit_update_record               2013/02/01
_chemical_name_systematic
;
Dipotassium Decaoxocobaltotungstodiphosphate(V)
;
_chemical_formula_structural       'K2 (Co W P2 O10)'
_chemical_formula_sum              'Co1 K2 O10 P2 W1'
_publ_section_title
;
K2 M(II) W (O P O4)2  (M(II) is Mg, Ni, or Co)  tungsten-containing 
complex phosphate which are mixed-valency substituted analysis of K 
Ti O P O4
;
loop_
_citation_id
_citation_journal_abbrev
_citation_year
_citation_journal_volume
_citation_journal_issue
_citation_page_first
_citation_page_last
_citation_journal_id_ASTM
primary 'Ukrains`kii Khimicheskii Zhurnal (Russian Edition)'
 2008 74 1 27 31 UKZHAU
_publ_author_name
;
Zatovskii, I.V.;Ivanenko, V.I.;Slobodyanik, M.S.;Baumer, 
V.M.;Sharkina, N.O.
;
_cell_length_a                     9.1899(1)
_cell_length_b                     9.1899(1)
_cell_length_c                     10.7461(2)
_cell_angle_alpha                  90.
_cell_angle_beta                   90.
_cell_angle_gamma                  90.
_cell_volume                       907.55
_cell_formula_units_Z              4
_symmetry_space_group_name_H-M     'P 41 21 2'
_symmetry_Int_Tables_number        92
_refine_ls_R_factor_all            .0104
loop_
_symmetry_equiv_pos_site_id
_symmetry_equiv_pos_as_xyz
  1	'x+.5, -y+.5, -z+.75'
  2	'-x+.5, y+.5, -z+.25'
  3	'-y, -x, -z+.5'
  4	'y, x, -z'
  5	'y+.5, -x+.5, z+.75'
  6	'-y+.5, x+.5, z+.25'
  7	'-x, -y, z+.5'
  8	'x, y, z'
loop_
_atom_type_symbol
_atom_type_oxidation_number
Co2+	2
K1+	1
O2-	-2
P5+	5
W6+	6
loop_
_atom_site_label
_atom_site_type_symbol
_atom_site_symmetry_multiplicity
_atom_site_Wyckoff_symbol
_atom_site_fract_x
_atom_site_fract_y
_atom_site_fract_z
_atom_site_occupancy
_atom_site_attached_hydrogens
_atom_site_U_iso_or_equiv
W1 W6+ 4 a 0.10780 0.10780 0 1. 0 0.0016(4) 
Co1 Co2+ 4 a 0.6440(4) 0.6440(4) 0 1. 0 0.0010(18) 
P1 P5+ 8 b 0.3272(6) 0.8226(6) -0.0092(8) 1. 0 0.0500(18) 
K1 K1+ 8 b 0.0019(8) 0.6988(6) 0.0760(6) 1. 0 0.063(3) 
O1 O2- 8 b 0.21900 0.23980 0.12780 1. 0 0.0080 
O2 O2- 8 b 0.28390 -0.01380 0.02790 1. 0 0.0073 
O3 O2- 8 b 0.76140 0.24480 0.10750 1. 0 0.0087 
O4 O2- 8 b 0.81530 0.49340 0.01740 1. 0 0.0077 
O5 O2- 8 b -0.00590 0.04470 0.11790 1. 0 0.0087 

#End of data_163567-ICSD


