data_154899-ICSD
#?2014 by Fachinformationszentrum Karlsruhe, and the U.S. Secretary of 
#Commerce on behalf of the United States.  All rights reserved.
_database_code_ICSD                154899
_audit_creation_date               2007/04/01
_chemical_name_systematic
;
Potassium Dysprosium Cyclo-tetraphosphate(V)
;
_chemical_formula_structural       'K Dy (P4 O12)'
_chemical_formula_sum              'Dy1 K1 O12 P4'
_publ_section_title
;
Crystal structure and conductivity investigation of K Dy P4 O12: a 
new potassium dysprosium cyclotetraphosphate
;
loop_
_citation_id
_citation_journal_abbrev
_citation_year
_citation_journal_volume
_citation_page_first
_citation_page_last
_citation_journal_id_ASTM
primary 'Journal of Molecular Structure' 2006 782 16 23 JMOSB4
_publ_author_name
;
Amri, M.;Zouari, N.;Mhiri, T.;Daoud, A.;Gravereau, P.
;
_cell_length_a                     7.812(2)
_cell_length_b                     12.318(3)
_cell_length_c                     10.441(2)
_cell_angle_alpha                  90.
_cell_angle_beta                   111.09(2)
_cell_angle_gamma                  90.
_cell_volume                       937.42
_cell_formula_units_Z              4
_symmetry_space_group_name_H-M     'C 1 2/c 1'
_symmetry_Int_Tables_number        15
_refine_ls_R_factor_all            .022
loop_
_symmetry_equiv_pos_site_id
_symmetry_equiv_pos_as_xyz
  1	'x, -y, z+.5'
  2	'-x, -y, -z'
  3	'-x, y, -z+.5'
  4	'x, y, z'
  5	'x+.5, -y+.5, z+.5'
  6	'-x+.5, -y+.5, -z'
  7	'-x+.5, y+.5, -z+.5'
  8	'x+.5, y+.5, z'
loop_
_atom_type_symbol
_atom_type_oxidation_number
Dy3+	3
K1+	1
O2-	-2
P5+	5
loop_
_atom_site_label
_atom_site_type_symbol
_atom_site_symmetry_multiplicity
_atom_site_Wyckoff_symbol
_atom_site_fract_x
_atom_site_fract_y
_atom_site_fract_z
_atom_site_occupancy
_atom_site_attached_hydrogens
_atom_site_U_iso_or_equiv
Dy1 Dy3+ 4 e 0 0.11949(1) 0.250 1. 0 0.00622(3) 
K1 K1+ 4 e 0 0.18411(8) 0.750 1. 0 0.0416(3) 
P1 P5+ 8 f 0.28154(7) 0.02321(4) 0.05978(5) 1. 0 0.00729(9) 
P2 P5+ 8 f 0.45802(7) 0.17103(4) 0.50240(6) 1. 0 0.00749(9) 
O1 O2- 8 f 0.2192(2) 0.0283(1) 0.1772(2) 1. 0 0.0116(3) 
O2 O2- 8 f 0.1471(2) 0.0112(1) -0.0827(2) 1. 0 0.0128(3) 
O3 O2- 8 f 0.4029(2) 0.1284(3) 0.0677(2) 1. 0 0.0125(3) 
O4 O2- 8 f 0.4313(2) 0.0715(1) 0.5894(2) 1. 0 0.0108(3) 
O5 O2- 8 f 0.2882(2) 0.1998(1) 0.3858(2) 1. 0 0.0116(3) 
O6 O2- 8 f 0.5575(2) 0.2570(1) 0.6009(2) 1. 0 0.0130(3) 

loop_
_atom_site_aniso_label
_atom_site_aniso_type_symbol
_atom_site_aniso_U_11
_atom_site_aniso_U_22
_atom_site_aniso_U_33
_atom_site_aniso_U_12
_atom_site_aniso_U_13
_atom_site_aniso_U_23
Dy1 Dy3+ 0.00585(5) 0.00658(5) 0.00612(5) 0.00000 0.00201(4) 0.00000
K1 K1+ 0.08916(10) 0.01611(4) 0.02148(4) 0.00000 0.02238(5) 0.00000
P1 P5+ 0.00683(2) 0.00847(2) 0.00762(2) -0.00041(2) 0.00387(2) -0.00096(2)
P2 P5+ 0.00679(2) 0.00745(2) 0.00858(2) -0.00044(2) 0.00321(2) -0.00129(2)
O1 O2- 0.01254(7) 0.01420(7) 0.0115(6) 0.00179(5) 0.00784(6) 0.00027(5)
O2 O2- 0.01166(7) 0.01440(7) 0.00951(6) 0.00156(5) 0.00053(5) -0.00159(5)
O3 O2- 0.01359(6) 0.01043(7) 0.01748(7) -0.00364(6) 0.01057(5) -0.00323(6)
O4 O2- 0.01039(6) 0.01153(6) 0.00988(6) -0.00319(5) 0.00305(5) 0.00158(5)
O5 O2- 0.00891(6) 0.01244(7) 0.01163(7) 0.00048(5) 0.00134(5) -0.00040(5)
O6 O2- 0.01103(6) 0.01244(7) 0.01580(7) -0.00345(5) 0.00521(6) -0.00704(6)
#End of data_154899-ICSD


