data_82146-ICSD
#?2014 by Fachinformationszentrum Karlsruhe, and the U.S. Secretary of 
#Commerce on behalf of the United States.  All rights reserved.
_database_code_ICSD                82146
_audit_creation_date               1997/11/10
_audit_update_record               2000/07/15
_chemical_name_systematic
;
Dirubidium Phyllo-tetrathioargentoantimonate
;
_chemical_formula_structural       'Rb2 (Ag Sb S4)'
_chemical_formula_sum              'Ag1 Rb2 S4 Sb1'
_publ_section_title
;
Supercritical ammonia synthesis and characterization of four new 
alkali metal silver antimony sulfides: M Ag2 Sb S4 and M2 Ag Sb S4 
(M=K, Rb)
;
loop_
_citation_id
_citation_journal_abbrev
_citation_year
_citation_journal_volume
_citation_page_first
_citation_page_last
_citation_journal_id_ASTM
primary 'Journal of Solid State Chemistry' 1996 123 277 284 JSSCBI
_publ_author_name
;
Schimek, G.L.;Pennington, W.T.;Wood, P.T.;Kolis, J.W.
;
_cell_length_a                     8.229(3)
_cell_length_b                     10.857(12)
_cell_length_c                     10.346(2)
_cell_angle_alpha                  90.
_cell_angle_beta                   91.55(2)
_cell_angle_gamma                  90.
_cell_volume                       924
_cell_formula_units_Z              4
_symmetry_space_group_name_H-M     'P 1 21/n 1'
_symmetry_Int_Tables_number        14
_refine_ls_R_factor_all            .038
loop_
_symmetry_equiv_pos_site_id
_symmetry_equiv_pos_as_xyz
  1	'-x+.5, y+.5, -z+.5'
  2	'-x, -y, -z'
  3	'x+.5, -y+.5, z+.5'
  4	'x, y, z'
loop_
_atom_type_symbol
_atom_type_oxidation_number
Ag1+	1
Rb1+	1
S2-	-2
Sb5+	5
loop_
_atom_site_label
_atom_site_type_symbol
_atom_site_symmetry_multiplicity
_atom_site_Wyckoff_symbol
_atom_site_fract_x
_atom_site_fract_y
_atom_site_fract_z
_atom_site_occupancy
_atom_site_attached_hydrogens
_atom_site_U_iso_or_equiv
Rb1 Rb1+ 4 e 0.8583(2) 0.2281(1) 0.4934(1) 1. 0 0.0369(7) 
Rb2 Rb1+ 4 e 0.3718(2) 0.9910(1) 0.2626(1) 1. 0 0.0395(8) 
Ag1 Ag1+ 4 e 0.8715(1) 0.9671(1) 0.2184(1) 1. 0 0.0405(7) 
Sb1 Sb5+ 4 e 0.14266(9) 0.77329(7) 0.96164(7) 1. 0 0.0161(4) 
S1 S2- 4 e 0.0162(4) 0.7721(3) 0.1613(3) 1. 0 0.025(1) 
S2 S2- 4 e 0.2578(4) 0.5770(3) 0.9419(3) 1. 0 0.027(1) 
S3 S2- 4 e 0.9560(4) 0.8117(3) 0.7932(3) 1. 0 0.024(1) 
S4 S2- 4 e 0.3375(4) 0.9286(3) 0.9496(3) 1. 0 0.023(1) 

#End of data_82146-ICSD


