data_173236-ICSD
#?2014 by Fachinformationszentrum Karlsruhe, and the U.S. Secretary of 
#Commerce on behalf of the United States.  All rights reserved.
_database_code_ICSD                173236
_audit_creation_date               2008/08/01
_chemical_name_systematic
;
Lithium Potassium Bis(tetrahydridoborate)
;
_chemical_formula_structural       'Li K (B H4)2'
_chemical_formula_sum              'H8 B2 K1 Li1'
_publ_section_title
;
Tuning the decomposition temperature in complex hydrides: synthesis 
of a mixed alkali metal borohydride
;
loop_
_citation_id
_citation_journal_abbrev
_citation_year
_citation_journal_volume
_citation_journal_issue
_citation_page_first
_citation_page_last
_citation_journal_id_ASTM
primary 'Angewandte Chemie. International Edition' 2008 47 15 2817 2819 ACIEF5
_publ_author_name
;
Nickels, E.A.;Jones, M.O.;David, W.I.F.;Johnson, S.R.;Lowton, 
R.L.;Sommariva, M.;Edwards, P.P.
;
_cell_length_a                     7.91337(5)
_cell_length_b                     4.49067(3)
_cell_length_c                     13.84396(11)
_cell_angle_alpha                  90.
_cell_angle_beta                   90.
_cell_angle_gamma                  90.
_cell_volume                       491.96
_cell_formula_units_Z              4
_symmetry_space_group_name_H-M     'P n m a'
_symmetry_Int_Tables_number        62
_refine_ls_R_factor_all            .0647
loop_
_symmetry_equiv_pos_site_id
_symmetry_equiv_pos_as_xyz
  1	'x+.5, y, -z+.5'
  2	'x, -y+.5, z'
  3	'-x+.5, y+.5, z+.5'
  4	'-x, -y, -z'
  5	'-x+.5, -y, z+.5'
  6	'-x, y+.5, -z'
  7	'x+.5, -y+.5, -z+.5'
  8	'x, y, z'
loop_
_atom_type_symbol
_atom_type_oxidation_number
B3+	3
H1-	-1
K1+	1
Li1+	1
loop_
_atom_site_label
_atom_site_type_symbol
_atom_site_symmetry_multiplicity
_atom_site_Wyckoff_symbol
_atom_site_fract_x
_atom_site_fract_y
_atom_site_fract_z
_atom_site_occupancy
_atom_site_attached_hydrogens
_atom_site_B_iso_or_equiv
K1 K1+ 4 c 0.33814(12) 0.25 0.86851(7) 1. 0 3.42(2) 
Li1 Li1+ 4 c 0.1885(9) 0.25 0.1349(6) 1. 0 3.42(2) 
B1 B3+ 4 c 0.2508(7) 0.25 0.5460(4) 1. 0 2.38(6) 
H1 H1- 8 d 0.324(2) 0.456(4) 0.5288(13) 1. 0 2.38(6) 
H2 H1- 4 c 0.206(4) 0.25 0.614(2) 1. 0 2.38(6) 
H3 H1- 4 c 0.140(4) 0.25 0.498(2) 1. 0 2.38(6) 
B2 B3+ 4 c 0.9292(7) 0.25 0.2397(4) 1. 0 2.38(6) 
H4 H1- 8 d 0.976(2) 0.452(4) 0.2057(15) 1. 0 2.38(6) 
H5 H1- 4 c 0.789(4) 0.25 0.218(2) 1. 0 2.38(6) 
H6 H1- 4 c 0.960(4) 0.25 0.316(2) 1. 0 2.38(6) 

#End of data_173236-ICSD


