data_78840-ICSD
#?2014 by Fachinformationszentrum Karlsruhe, and the U.S. Secretary of 
#Commerce on behalf of the United States.  All rights reserved.
_database_code_ICSD                78840
_audit_creation_date               1999/11/30
_chemical_name_systematic          'Potassium Manganese Phosphate(V)'
_chemical_formula_structural       'K Mn (P O4)'
_chemical_formula_sum              'K1 Mn1 O4 P1'
_publ_section_title
;
Crystal growth, room temperature crystal structure and phase 
transition of K Mn P O4
;
loop_
_citation_id
_citation_journal_abbrev
_citation_year
_citation_journal_volume
_citation_page_first
_citation_page_last
_citation_journal_id_ASTM
primary 'Zeitschrift fuer Naturforschung, B: Chemical Sciences'
 1995 50 1210 1214 ZNBSEN
_publ_author_name                  'Lujan, M.;Kubel, F.;Schmid, H.'
_cell_length_a                     5.4813(5)
_cell_length_b                     8.6274(10)
_cell_length_c                     8.8865(13)
_cell_angle_alpha                  87.728(10)
_cell_angle_beta                   89.101(10)
_cell_angle_gamma                  88.009(10)
_cell_volume                       419.61
_cell_formula_units_Z              4
_symmetry_space_group_name_H-M     'P -1'
_symmetry_Int_Tables_number        2
_refine_ls_R_factor_all            .029
loop_
_symmetry_equiv_pos_site_id
_symmetry_equiv_pos_as_xyz
  1	'-x, -y, -z'
  2	'x, y, z'
loop_
_atom_type_symbol
_atom_type_oxidation_number
K1+	1
Mn2+	2
O2-	-2
P5+	5
loop_
_atom_site_label
_atom_site_type_symbol
_atom_site_symmetry_multiplicity
_atom_site_Wyckoff_symbol
_atom_site_fract_x
_atom_site_fract_y
_atom_site_fract_z
_atom_site_occupancy
_atom_site_attached_hydrogens
_atom_site_U_iso_or_equiv
Mn1 Mn2+ 2 i 0.6912(1) 0.34279(8) 0.41973(8) 1. 0 0.0163(2) 
Mn2 Mn2+ 2 i 0.7270(1) -.17634(8) 0.10544(7) 1. 0 0.0153(2) 
K1 K1+ 2 i 0.7606(2) -.0018(1) 0.6827(1) 1. 0 0.0238(3) 
K2 K1+ 2 i 0.7821(2) 0.4951(1) 0.8264(1) 1. 0 0.0251(3) 
P1 P5+ 2 i 0.7672(2) 0.2024(1) 0.0924(1) 1. 0 0.0127(3) 
P2 P5+ 2 i 0.7823(2) -.2963(1) 0.4444(1) 1. 0 0.0131(3) 
O1 O2- 2 i 0.6317(6) 0.2041(4) 0.9419(3) 1. 0 0.022(1) 
O2 O2- 2 i 0.2649(6) 0.4533(3) 0.4712(3) 1. 0 0.019(1) 
O3 O2- 2 i 0.6546(6) 0.3262(4) 0.1927(3) 1. 0 0.026(1) 
O4 O2- 2 i 0.4495(6) 0.1948(3) 0.5347(3) 1. 0 0.020(1) 
O5 O2- 2 i 0.0006(6) 0.2195(3) 0.4878(4) 1. 0 0.026(1) 
O6 O2- 2 i 0.1702(7) 0.3243(4) 0.7227(3) 1. 0 0.030(1) 
O7 O2- 2 i 0.0367(6) 0.2411(4) 0.0608(3) 1. 0 0.025(1) 
O8 O2- 2 i 0.7548(7) 0.0430(4) 0.1723(4) 1. 0 0.029(1) 

#End of data_78840-ICSD


