data_62412-ICSD
#?2014 by Fachinformationszentrum Karlsruhe, and the U.S. Secretary of 
#Commerce on behalf of the United States.  All rights reserved.
_database_code_ICSD                62412
_audit_creation_date               1988/12/19
_audit_update_record               2007/08/01
_chemical_name_systematic
;
Calcium Iron(III) Diiron Bis(silicate) Hydroxide
;
_chemical_formula_structural       'Ca Fe3 (Si O4)2 (O H)'
_chemical_formula_sum              'H1 Ca1 Fe3 O9 Si2'
_chemical_name_mineral             Ilvaite
_publ_section_title
;
Crystal structure of monoclinic ilvaite and the nature of the 
monoclinic-orthorhombic transition at high pressure
;
loop_
_citation_id
_citation_journal_abbrev
_citation_year
_citation_journal_volume
_citation_page_first
_citation_page_last
_citation_journal_id_ASTM
primary 'Zeitschrift fuer Kristallographie (1979-2010)' 1987 179 415 430 ZEKRDZ
_publ_author_name                  'Finger, L.W.;Hazen, R.M.'
_cell_length_a                     13.0103(5)
_cell_length_b                     8.8039(4)
_cell_length_c                     5.8517(3)
_cell_angle_alpha                  90.
_cell_angle_beta                   90.209(5)
_cell_angle_gamma                  90.
_cell_volume                       670.26
_cell_formula_units_Z              4
_symmetry_space_group_name_H-M     'P 1 21/a 1'
_symmetry_Int_Tables_number        14
_refine_ls_R_factor_all            .032
loop_
_symmetry_equiv_pos_site_id
_symmetry_equiv_pos_as_xyz
  1	'x+.5, -y+.5, z'
  2	'-x, -y, -z'
  3	'-x+.5, y+.5, -z'
  4	'x, y, z'
loop_
_atom_type_symbol
_atom_type_oxidation_number
Ca2+	2
Fe2.33+	2.33
H1+	1
O2-	-2
Si4+	4
loop_
_atom_site_label
_atom_site_type_symbol
_atom_site_symmetry_multiplicity
_atom_site_Wyckoff_symbol
_atom_site_fract_x
_atom_site_fract_y
_atom_site_fract_z
_atom_site_occupancy
_atom_site_attached_hydrogens
_atom_site_B_iso_or_equiv
Fe1 Fe2.33+ 4 e 0.89013(3) 0.05000(5) 0.00784(8) 1. 0 0 
Fe2 Fe2.33+ 4 e 0.88998(3) 0.05172(5) 0.49229(8) 1. 0 0 
Fe3 Fe2.33+ 4 e 0.94089(4) 0.74010(5) 0.24895(8) 1. 0 0 
Ca1 Ca2+ 4 e 0.81281(5) 0.37031(7) 0.75233(11) 1. 0 0 
Si1 Si4+ 4 e 0.95957(7) 0.3688(1) 0.2494(2) 1. 0 0 
Si2 Si4+ 4 e 0.67938(6) 0.2273(1) 0.2516(2) 1. 0 0 
O1 O2- 4 e 0.0098(2) 0.0295(3) 0.7397(4) 1. 0 0 
O2 O2- 4 e 0.9370(2) 0.2726(3) 0.0164(4) 1. 0 0 
O3 O2- 4 e 0.9356(2) 0.2728(3) 0.4826(4) 1. 0 0 
O4 O2- 4 e 0.7775(2) 0.1096(3) 0.2544(4) 1. 0 0 
O5 O2- 4 e 0.6709(2) 0.3281(3) 0.0188(4) 1. 0 0 
O6 O2- 4 e 0.6703(2) 0.3309(3) 0.4819(4) 1. 0 0 
O7 O2- 4 e 0.5852(2) 0.1007(3) 0.2528(4) 1. 0 0 
O8 O2- 4 e 0.6020(2) 0.0260(3) 0.7515(4) 1. 0 0 
O9 O2- 4 e 0.7978(2) 0.1097(3) 0.7453(4) 1. 0 0 
H1 H1+ 4 e 0.753(4) 0.090(7) 0.754(10) 1. 0 0.60(12) 

#End of data_62412-ICSD


