data_73080-ICSD
#?2014 by Fachinformationszentrum Karlsruhe, and the U.S. Secretary of 
#Commerce on behalf of the United States.  All rights reserved.
_database_code_ICSD                73080
_audit_creation_date               1994/06/30
_chemical_name_systematic          'Potassium Tetrachloroaurate'
_chemical_formula_structural       'K (Au Cl4)'
_chemical_formula_sum              'Au1 Cl4 K1'
_publ_section_title
;
Low-temperature redetermination of the structures of three gold 
compounds
;
loop_
_citation_id
_citation_journal_abbrev
_citation_year
_citation_journal_volume
_citation_journal_issue
_citation_page_first
_citation_page_last
_citation_journal_id_ASTM
primary 'Journal of Crystallographic and Spectroscopic Research'
 1992 22 4 397 401 JCREDB
_publ_author_name                  'Jones, P.G.;Bembenek, E.'
_cell_length_a                     8.619(2)
_cell_length_b                     6.350(1)
_cell_length_c                     12.169(2)
_cell_angle_alpha                  90.
_cell_angle_beta                   95.72(2)
_cell_angle_gamma                  90.
_cell_volume                       662.7
_cell_formula_units_Z              4
_symmetry_space_group_name_H-M     'P 1 21/c 1'
_symmetry_Int_Tables_number        14
_refine_ls_R_factor_all            .025
loop_
_symmetry_equiv_pos_site_id
_symmetry_equiv_pos_as_xyz
  1	'x, -y+.5, z+.5'
  2	'-x, -y, -z'
  3	'-x, y+.5, -z+.5'
  4	'x, y, z'
loop_
_atom_type_symbol
_atom_type_oxidation_number
Au3+	3
Cl1-	-1
K1+	1
loop_
_atom_site_label
_atom_site_type_symbol
_atom_site_symmetry_multiplicity
_atom_site_Wyckoff_symbol
_atom_site_fract_x
_atom_site_fract_y
_atom_site_fract_z
_atom_site_occupancy
_atom_site_attached_hydrogens
_atom_site_U_iso_or_equiv
Au1 Au3+ 2 c 0 0.5 0 1. 0 0.0152(2) 
Au2 Au3+ 2 d 0.5 0.5 0 1. 0 0.0167(2) 
K1 K1+ 4 e 0.78687(26) 0.45331(36) 0.31727(19) 1. 0 0.0297(7) 
Cl1 Cl1- 4 e 0.87162(29) 0.79495(39) 0.04868(18) 1. 0 0.0286(7) 
Cl2 Cl1- 4 e 0.09697(29) 0.45301(41) 0.18017(18) 1. 0 0.0267(7) 
Cl3 Cl1- 4 e 0.50661(29) 0.65392(44) 0.16987(19) 1. 0 0.0345(8) 
Cl4 Cl1- 4 e 0.66787(29) 0.24381(39) 0.06909(20) 1. 0 0.0310(8) 

#End of data_73080-ICSD


