data_72174-ICSD
#?2014 by Fachinformationszentrum Karlsruhe, and the U.S. Secretary of 
#Commerce on behalf of the United States.  All rights reserved.
_database_code_ICSD                72174
_audit_creation_date               1993/08/22
_chemical_name_systematic          'Aluminium Trifluoride - T'
_chemical_formula_structural       'Al F3'
_chemical_formula_sum              'Al1 F3'
_publ_section_title
;
t-AlF3: crystal structure determination from X-ray powder diffraction 
data. A new MX3 corner-sharing octahedra 3D network
;
loop_
_citation_id
_citation_journal_abbrev
_citation_year
_citation_journal_volume
_citation_page_first
_citation_page_last
_citation_journal_id_ASTM
primary 'Journal of Solid State Chemistry' 1992 100 151 159 JSSCBI
_publ_author_name
;
Le Bail, A.;Fourquet, J.L.;Bentrup, U.
;
_cell_length_a                     10.1843(3)
_cell_length_b                     10.1843(3)
_cell_length_c                     7.1738(2)
_cell_angle_alpha                  90.
_cell_angle_beta                   90.
_cell_angle_gamma                  90.
_cell_volume                       744.07
_cell_formula_units_Z              16
_symmetry_space_group_name_H-M     'P 4/n m m Z'
_symmetry_Int_Tables_number        129
_refine_ls_R_factor_all            .024
loop_
_symmetry_equiv_pos_site_id
_symmetry_equiv_pos_as_xyz
  1	'y+.5, x+.5, -z'
  2	'-y, x+.5, -z'
  3	'y+.5, -x, -z'
  4	'-y, -x, -z'
  5	'x+.5, y+.5, -z'
  6	'-x, y+.5, -z'
  7	'x+.5, -y, -z'
  8	'-x, -y, -z'
  9	'-y+.5, -x+.5, z'
 10	'y, -x+.5, z'
 11	'-y+.5, x, z'
 12	'y, x, z'
 13	'-x+.5, -y+.5, z'
 14	'x, -y+.5, z'
 15	'-x+.5, y, z'
 16	'x, y, z'
loop_
_atom_type_symbol
_atom_type_oxidation_number
Al3+	3
F1-	-1
loop_
_atom_site_label
_atom_site_type_symbol
_atom_site_symmetry_multiplicity
_atom_site_Wyckoff_symbol
_atom_site_fract_x
_atom_site_fract_y
_atom_site_fract_z
_atom_site_occupancy
_atom_site_attached_hydrogens
Al1 Al3+ 4 d 0 0 0 1. 0 
Al2 Al3+ 8 i 0.25 0.9135(2) 0.3287(3) 1. 0 
Al3 Al3+ 2 c 0.25 0.25 0.4121(4) 1. 0 
Al4 Al3+ 2 c 0.25 0.25 0.9082(4) 1. 0 
F1 F1- 16 k 0.6216(2) 0.0524(2) 0.8390(3) 1. 0 
F2 F1- 8 i 0.25 0.0781(3) 0.4105(4) 1. 0 
F3 F1- 8 j 0.1215(2) 0.1215(2) 0.9089(3) 1. 0 
F4 F1- 8 h 0.1267(2) 0.8733(2) 0.5 1. 0 
F5 F1- 4 f 0.75 0.25 0.2442(7) 1. 0 
F6 F1- 2 c 0.25 0.25 0.6633(7) 1. 0 
F7 F1- 2 c 0.25 0.25 0.1606(8) 1. 0 

loop_
_atom_site_aniso_label
_atom_site_aniso_type_symbol
_atom_site_aniso_U_11
_atom_site_aniso_U_22
_atom_site_aniso_U_33
_atom_site_aniso_U_12
_atom_site_aniso_U_13
_atom_site_aniso_U_23
Al1 Al3+ 0.0131(9) 0.0131(9) 0.0163(15) 0.0043(15) -.0008(8) -.0008(8)
Al2 Al3+ 0.0159(10) 0.0184(12) 0.0178(10) 0 0 0.0029(10)
Al3 Al3+ 0.0137(15) 0.0137(15) 0.0138(20) 0 0 0
Al4 Al3+ 0.0124(11) 0.0124(11) 0.0051(17) 0 0 0
F1 F1- 0.0182(15) 0.0174(14) 0.0154(12) 0.002(1) -.0001(11) 0.0044(11)
F2 F1- 0.0315(21) 0.0275(23) 0.0176(20) 0 0 -.0006(18)
F3 F1- 0.0205(14) 0.0205(14) 0.0143(19) -.0006(14) 0.0027(10) 0.0027(10)
F4 F1- 0.0261(18) 0.0261(18) 0.0124(18) -.0069(18) 0.0014(10) 0.0014(10)
F5 F1- 0.0083(30) 0.0184(32) 0.0186(24) 0 0 0
F6 F1- 0.0112(23) 0.0112(23) 0.0301(33) 0 0 0
F7 F1- 0.0142(23) 0.0142(23) 0.0327(36) 0 0 0
#End of data_72174-ICSD


