data_38109-ICSD
#?2014 by Fachinformationszentrum Karlsruhe, and the U.S. Secretary of 
#Commerce on behalf of the United States.  All rights reserved.
_database_code_ICSD                38109
_audit_creation_date               1986/10/15
_audit_update_record               2000/12/16
_chemical_name_systematic          'Dipotassium Mercury Chloride - Ht'
_chemical_formula_structural       'K2 Hg Cl4'
_chemical_formula_sum              'Cl4 Hg1 K2'
_publ_section_title
;
Dielectric behaviour of hydrated crystals. II. Potassium mercury(II) 
chloride monohydrate and ammonium mercury(II) chloride monohydrate
;
loop_
_citation_id
_citation_journal_abbrev
_citation_year
_citation_journal_volume
_citation_page_first
_citation_page_last
_citation_journal_id_ASTM
primary 'Bulletin of the Chemical Society of Japan' 1954 27 317 322 BCSJA8
_publ_author_name                  'Kiriyama, R.;Ibamoto, H.'
_cell_length_a                     8.3
_cell_length_b                     11.6
_cell_length_c                     8.9
_cell_angle_alpha                  90.
_cell_angle_beta                   90.
_cell_angle_gamma                  90.
_cell_volume                       856.89
_cell_formula_units_Z              4
_symmetry_space_group_name_H-M     'P b n m'
_symmetry_Int_Tables_number        62
loop_
_symmetry_equiv_pos_site_id
_symmetry_equiv_pos_as_xyz
  1	'-x+.5, y+.5, z'
  2	'x, y, -z+.5'
  3	'x+.5, -y+.5, z+.5'
  4	'-x, -y, -z'
  5	'x+.5, -y+.5, -z'
  6	'-x, -y, z+.5'
  7	'-x+.5, y+.5, -z+.5'
  8	'x, y, z'
loop_
_atom_type_symbol
_atom_type_oxidation_number
Cl1-	-1
Hg2+	2
K1+	1
loop_
_atom_site_label
_atom_site_type_symbol
_atom_site_symmetry_multiplicity
_atom_site_Wyckoff_symbol
_atom_site_fract_x
_atom_site_fract_y
_atom_site_fract_z
_atom_site_occupancy
_atom_site_attached_hydrogens
Hg1 Hg2+ 4 c 0.4 0.22 0.25 1. 0 
K1 K1+ 4 a 0 0 0 1. 0 
K2 K1+ 4 b 0.5 0 0 1. 0 
Cl1 Cl1- 4 c 0.75 0.06 0.25 1. 0 
Cl2 Cl1- 4 c 0.25 0.44 0.25 1. 0 
Cl3 Cl1- 8 d 0.25 0.19 0 1. 0 

#End of data_38109-ICSD


