data_158143-ICSD
#?2014 by Fachinformationszentrum Karlsruhe, and the U.S. Secretary of 
#Commerce on behalf of the United States.  All rights reserved.
_database_code_ICSD                158143
_audit_creation_date               2008/02/01
_chemical_name_systematic          'Calcium Zinc Catena-disilicate'
_chemical_formula_structural       'Ca Zn (Si2 O6)'
_chemical_formula_sum              'Ca1 O6 Si2 Zn1'
_chemical_name_mineral             Petedunnite
_publ_section_title
;
Characterization of synthetic hedenbergite (Ca Fe Si2 O6)-petedunnite 
(Ca Zn Si2 O6) solid solution series by X-ray single crystal 
diffraction
;
loop_
_citation_id
_citation_journal_abbrev
_citation_year
_citation_journal_volume
_citation_page_first
_citation_page_last
_citation_journal_id_ASTM
primary 'Physics and Chemistry of Minerals' 2005 32 552 563 PCMIDU
_publ_author_name
;
Heuer, M.;Huber, A.L.;Bromiley, G.D.;Fehr, K.T.;Bente, K.
;
_cell_length_a                     9.8243(17)
_cell_length_b                     8.9939(15)
_cell_length_c                     5.2608(8)
_cell_angle_alpha                  90
_cell_angle_beta                   105.794(10)
_cell_angle_gamma                  90
_cell_volume                       447.29
_cell_formula_units_Z              4
_symmetry_space_group_name_H-M     'C 1 2/c 1'
_symmetry_Int_Tables_number        15
_refine_ls_R_factor_all            .0321
loop_
_symmetry_equiv_pos_site_id
_symmetry_equiv_pos_as_xyz
  1	'x, -y, z+.5'
  2	'-x, -y, -z'
  3	'-x, y, -z+.5'
  4	'x, y, z'
  5	'x+.5, -y+.5, z+.5'
  6	'-x+.5, -y+.5, -z'
  7	'-x+.5, y+.5, -z+.5'
  8	'x+.5, y+.5, z'
loop_
_atom_type_symbol
_atom_type_oxidation_number
Ca2+	2
O2-	-2
Si4+	4
Zn2+	2
loop_
_atom_site_label
_atom_site_type_symbol
_atom_site_symmetry_multiplicity
_atom_site_Wyckoff_symbol
_atom_site_fract_x
_atom_site_fract_y
_atom_site_fract_z
_atom_site_occupancy
_atom_site_attached_hydrogens
Ca1 Ca2+ 4 e 0.00000 0.30002(6) 0.25000 1. 0 
Zn1 Zn2+ 4 e 0.00000 0.90578(3) 0.25000 1. 0 
Si1 Si4+ 8 f 0.28641(5) 0.09253(5) 0.22926(9) 1. 0 
O1 O2- 8 f 0.11631(14) 0.08909(13) 0.14432(24) 1. 0 
O2 O2- 8 f 0.36023(14) 0.24824(14) 0.32158(23) 1. 0 
O3 O2- 8 f 0.34991(14) 0.01895(14) 0.99359(23) 1. 0 

loop_
_atom_site_aniso_label
_atom_site_aniso_type_symbol
_atom_site_aniso_U_11
_atom_site_aniso_U_22
_atom_site_aniso_U_33
_atom_site_aniso_U_12
_atom_site_aniso_U_13
_atom_site_aniso_U_23
Ca1 Ca2+ 0.01122(20) 0.00946(17) 0.00867(17) 0.00000 -0.00002(14) 0.00000
Zn1 Zn2+ 0.00806(12) 0.00874(12) 0.00762(11) 0.00000 0.00132(8) 0.00000
Si1 Si4+ 0.00549(18) 0.00702(18) 0.00656(17) -0.00003(14) 0.00125(14) 
-0.00019(13)
O1 O2- 0.00532(43) 0.00993(45) 0.00717(40) 0.00041(37) 0.00029(34) 
0.00105(35)
O2 O2- 0.01013(51) 0.00828(44) 0.01002(43) -0.00251(40) 0.00135(39) 
-0.00069(36)
O3 O2- 0.00762(46) 0.01077(45) 0.00798(42) -0.00052(39) 0.00173(37) 
-0.00215(37)
#End of data_158143-ICSD


