data_414461-ICSD
#?2014 by Fachinformationszentrum Karlsruhe, and the U.S. Secretary of 
#Commerce on behalf of the United States.  All rights reserved.
_database_code_ICSD                414461
_audit_creation_date               2007/08/01
_chemical_name_systematic
;
Heptacalcium Nonanitridoniobodisilicate
;
_chemical_formula_structural       'Ca7 (Nb Si2 N9)'
_chemical_formula_sum              'Ca7 N9 Nb1 Si2'
_publ_section_title
;
Syntheses and crystal tructure of the nitridosilicates Ca5 (Si2 N6) 
and Ca7 (Nb Si2 N9).
;
loop_
_citation_id
_citation_journal_abbrev
_citation_year
_citation_journal_volume
_citation_page_first
_citation_page_last
_citation_journal_id_ASTM
primary 'Zeitschrift fuer Anorganische und Allgemeine Chemie (1950) (DE)'
 2005 631 1597 1602 ZAACAB
_publ_author_name                  'Ottinger, F.;Nesper, R.'
_cell_length_a                     6.0505(11)
_cell_length_b                     9.9463(17)
_cell_length_c                     8.9969(16)
_cell_angle_alpha                  90.00
_cell_angle_beta                   92.101(6)
_cell_angle_gamma                  90.00
_cell_volume                       541.07
_cell_formula_units_Z              2
_symmetry_space_group_name_H-M     'P 1 21/m 1'
_symmetry_Int_Tables_number        11
_refine_ls_R_factor_all            .0639
loop_
_symmetry_equiv_pos_site_id
_symmetry_equiv_pos_as_xyz
  1	'x, -y+.5, z'
  2	'-x, -y, -z'
  3	'-x, y+.5, -z'
  4	'x, y, z'
loop_
_atom_type_symbol
_atom_type_oxidation_number
Ca2+	2
N3-	-3
Nb5+	5
Si4+	4
loop_
_atom_site_label
_atom_site_type_symbol
_atom_site_symmetry_multiplicity
_atom_site_Wyckoff_symbol
_atom_site_fract_x
_atom_site_fract_y
_atom_site_fract_z
_atom_site_occupancy
_atom_site_attached_hydrogens
_atom_site_U_iso_or_equiv
Nb1 Nb5+ 2 e 0.27848(8) 0.2500 0.56153(6) 1 0 0.00759(14) 
Ca1 Ca2+ 4 f 0.07008(12) 0.07809(8) 0.16958(8) 1 0 0.00695(16) 
Ca2 Ca2+ 4 f 0.24972(12) 0.57797(7) 0.50529(8) 1 0 0.00641(16) 
Ca3 Ca2+ 4 f 0.56946(13) 0.55666(9) 0.16544(8) 1 0 0.00972(18) 
Ca4 Ca2+ 2 e 0.90971(17) 0.2500 0.80072(12) 1 0 0.0055(2) 
Si1 Si4+ 2 e 0.4593(2) 0.2500 0.27726(16) 1 0 0.0045(3) 
Si2 Si4+ 2 e 0.6764(2) 0.2500 0.06204(16) 1 0 0.0045(3) 
N1 N3- 4 f 0.1135(5) 0.0984(3) 0.6586(3) 1 0 0.0093(6) 
N2 N3- 4 f 0.2320(5) 0.6016(3) 0.0180(4) 1 0 0.0071(6) 
N3 N3- 4 f 0.3664(5) 0.1101(3) 0.3682(4) 1 0 0.0079(6) 
N4 N3- 2 e 0.3801(7) 0.2500 0.0845(5) 1 0 0.0059(8) 
N5 N3- 2 e 0.5579(8) 0.2500 0.6669(5) 1 0 0.0079(9) 
N6 N3- 2 e 0.7533(8) 0.2500 0.2593(5) 1 0 0.0064(8) 

loop_
_atom_site_aniso_label
_atom_site_aniso_type_symbol
_atom_site_aniso_U_11
_atom_site_aniso_U_22
_atom_site_aniso_U_33
_atom_site_aniso_U_12
_atom_site_aniso_U_13
_atom_site_aniso_U_23
Nb1 Nb5+ 0.0075(2) 0.0074(2) 0.0080(2) 0.000 0.00187(17) 0.000
Ca1 Ca2+ 0.0069(4) 0.0065(4) 0.0075(3) 0.0002(2) -0.0002(3) -0.0003(2)
Ca2 Ca2+ 0.0074(4) 0.0055(3) 0.0064(3) -0.0006(2) 0.0010(3) 0.0000(2)
Ca3 Ca2+ 0.0074(4) 0.0125(4) 0.0091(4) 0.0024(3) -0.0017(3) -0.0043(3)
Ca4 Ca2+ 0.0067(5) 0.0031(4) 0.0069(5) 0.000 0.0048(4) 0.000
Si1 Si4+ 0.0047(6) 0.0043(6) 0.0045(6) 0.000 0.0011(5) 0.000
Si2 Si4+ 0.0061(7) 0.0038(6) 0.0037(6) 0.000 0.0003(5) 0.000
N1 N3- 0.0096(15) 0.0094(16) 0.0089(15) 0.0012(12) -0.0012(12) -0.0021(12)
N2 N3- 0.0067(14) 0.0044(14) 0.0102(15) 0.0002(11) 0.0006(11) 0.0008(12)
N3 N3- 0.0070(14) 0.0075(15) 0.0093(14) -0.0014(12) 0.0002(12) 0.0005(12)
N4 N3- 0.004(2) 0.009(2) 0.0056(19) 0.000 0.0008(15) 0.000
N5 N3- 0.011(2) 0.005(2) 0.007(2) 0.000 -0.0001(17) 0.000
N6 N3- 0.007(2) 0.007(2) 0.0056(19) 0.000 -0.0009(16) 0.000
#End of data_414461-ICSD


