data_188057-ICSD
#?2014 by Fachinformationszentrum Karlsruhe, and the U.S. Secretary of 
#Commerce on behalf of the United States.  All rights reserved.
_database_code_ICSD                188057
_audit_creation_date               2014/02/01
_chemical_name_systematic          'Distrontium Zinc Molybdate'
_chemical_formula_structural       'Sr2 Zn (Mo O6)'
_chemical_formula_sum              'Mo1 O6 Sr2 Zn1'
_publ_section_title
;
Crystal structure and thermal properties of Sr2 Zn Mo O6
;
loop_
_citation_id
_citation_journal_abbrev
_citation_year
_citation_journal_volume
_citation_journal_issue
_citation_page_first
_citation_page_last
_citation_journal_id_ASTM
primary 'Inorganic Materials' 2013 49 6 602 605 INOMAF
_publ_author_name                  'Filonova, E.A.;Dmitriev, A.S.'
_cell_length_a                     5.5821(4)
_cell_length_b                     5.5821(4)
_cell_length_c                     7.9812(7)
_cell_angle_alpha                  90.
_cell_angle_beta                   90.
_cell_angle_gamma                  90.
_cell_volume                       248.69
_cell_formula_units_Z              2
_symmetry_space_group_name_H-M     'I 4/m'
_symmetry_Int_Tables_number        87
loop_
_symmetry_equiv_pos_site_id
_symmetry_equiv_pos_as_xyz
  1	'-y, x, -z'
  2	'y, -x, -z'
  3	'x, y, -z'
  4	'-x, -y, -z'
  5	'y, -x, z'
  6	'-y, x, z'
  7	'-x, -y, z'
  8	'x, y, z'
  9	'-y+.5, x+.5, -z+.5'
 10	'y+.5, -x+.5, -z+.5'
 11	'x+.5, y+.5, -z+.5'
 12	'-x+.5, -y+.5, -z+.5'
 13	'y+.5, -x+.5, z+.5'
 14	'-y+.5, x+.5, z+.5'
 15	'-x+.5, -y+.5, z+.5'
 16	'x+.5, y+.5, z+.5'
loop_
_atom_type_symbol
_atom_type_oxidation_number
Mo6+	6
O2-	-2
Sr2+	2
Zn2+	2
loop_
_atom_site_label
_atom_site_type_symbol
_atom_site_symmetry_multiplicity
_atom_site_Wyckoff_symbol
_atom_site_fract_x
_atom_site_fract_y
_atom_site_fract_z
_atom_site_occupancy
_atom_site_attached_hydrogens
Sr1 Sr2+ 4 d 0 0.5 0.250 1. 0 
Zn1 Zn2+ 2 b 0 0 0.5 1. 0 
Mo1 Mo6+ 2 a 0 0 0 1. 0 
O1 O2- 8 h 0.2744(59) 0.2058(8) 0 1. 0 
O2 O2- 4 e 0 0 0.239(1) 1. 0 

#End of data_188057-ICSD


