data_167788-ICSD
#?2014 by Fachinformationszentrum Karlsruhe, and the U.S. Secretary of 
#Commerce on behalf of the United States.  All rights reserved.
_database_code_ICSD                167788
_audit_creation_date               2011/02/01
_audit_update_record               2013/08/01
_chemical_name_systematic
;
Undecacalcium Hexanitride Bis(carbodiimide)
;
_chemical_formula_structural       'Ca11 N6 (C N2)2'
_chemical_formula_sum              'C2 Ca11 N10'
_publ_section_title
;
3D nitride frameworks with variable channel sizes; synthesis and 
powder neutron diffraction study of the nitride carbodiimides, Ca4 N2 
(C N2) and Ca11 N6 (C N2)2
;
loop_
_citation_id
_citation_journal_abbrev
_citation_year
_citation_journal_volume
_citation_page_first
_citation_page_last
_citation_journal_id_ASTM
primary 'Topics in Catalysis, Springer' 2009 52 1598 1603 TOCAFI
_publ_author_name
;
Bowman, A.;Smith, R.I.;Gregory, D.H.
;
_cell_length_a                     14.5283(2)
_cell_length_b                     14.5283(2)
_cell_length_c                     3.6072(1)
_cell_angle_alpha                  90.
_cell_angle_beta                   90.
_cell_angle_gamma                  90.
_cell_volume                       761.38
_cell_formula_units_Z              2
_symmetry_space_group_name_H-M     'P 42/m n m'
_symmetry_Int_Tables_number        136
_refine_ls_R_factor_all            .0204
loop_
_symmetry_equiv_pos_site_id
_symmetry_equiv_pos_as_xyz
  1	'-y+.5, x+.5, -z+.5'
  2	'y+.5, -x+.5, -z+.5'
  3	'y, x, -z'
  4	'-y, -x, -z'
  5	'y+.5, -x+.5, z+.5'
  6	'-y+.5, x+.5, z+.5'
  7	'-y, -x, z'
  8	'y, x, z'
  9	'x+.5, -y+.5, -z+.5'
 10	'-x+.5, y+.5, -z+.5'
 11	'x, y, -z'
 12	'-x, -y, -z'
 13	'-x+.5, y+.5, z+.5'
 14	'x+.5, -y+.5, z+.5'
 15	'-x, -y, z'
 16	'x, y, z'
loop_
_atom_type_symbol
_atom_type_oxidation_number
C4+	4
Ca2+	2
N3-	-3
loop_
_atom_site_label
_atom_site_type_symbol
_atom_site_symmetry_multiplicity
_atom_site_Wyckoff_symbol
_atom_site_fract_x
_atom_site_fract_y
_atom_site_fract_z
_atom_site_occupancy
_atom_site_attached_hydrogens
_atom_site_B_iso_or_equiv
Ca1 Ca2+ 2 a 0 0 0 1. 0 0.79 
Ca2 Ca2+ 8 i 0.29360(30) 0.52023(32) 0 1. 0 0.96 
Ca3 Ca2+ 4 g 0.16841(29) -0.16841(29) 0 1. 0 0.76 
Ca4 Ca2+ 8 i 0.39477(39) 0.11686(44) 0 1. 0 1.25 
N1 N3- 4 f 0.41063(20) 0.41063(20) 0 1. 0 0.82 
N2 N3- 8 i 0.69020(18) 0.02822(16) 0 1. 0 0.46 
N3 N3- 4 f 0.24288(17) 0.24288(17) 0 1. 0 1.74 
N4 N3- 4 f 0.12433(18) 0.12433(18) 0 1. 0 1.05 
C1 C4+ 4 f 0.18368(25) 0.18368(25) 0 1. 0 0.56 

#End of data_167788-ICSD


