data_29384-ICSD
#?2014 by Fachinformationszentrum Karlsruhe, and the U.S. Secretary of 
#Commerce on behalf of the United States.  All rights reserved.
_database_code_ICSD                29384
_audit_creation_date               1984/12/31
_audit_update_record               2007/08/01
_chemical_name_systematic          'Magnesium Sulfate(VI) Heptahydrate'
_chemical_formula_structural       'Mg (S O4) (H2 O)7'
_chemical_formula_sum              'H14 Mg1 O11 S1'
_chemical_name_mineral             Epsomite
_publ_section_title
;
Synthetic epsomite, Mg S O4 (H2 O)7: Absolute configuration and 
surface features of the complementary (111) forms
;
loop_
_citation_id
_citation_journal_abbrev
_citation_year
_citation_journal_volume
_citation_page_first
_citation_page_last
_citation_journal_id_ASTM
primary 'Acta Crystallographica, Section B: Structural Science'
 1984 40 218 222 ASBSDK
_publ_author_name
;
Calleri, M.;Gavetti, A.;Ivaldi, G.;Rubbo, M.
;
_cell_length_a                     11.887(2)
_cell_length_b                     12.013(2)
_cell_length_c                     6.861(1)
_cell_angle_alpha                  90.
_cell_angle_beta                   90.
_cell_angle_gamma                  90.
_cell_volume                       979.74
_cell_formula_units_Z              4
_symmetry_space_group_name_H-M     'P 21 21 21'
_symmetry_Int_Tables_number        19
_refine_ls_R_factor_all            .03
loop_
_symmetry_equiv_pos_site_id
_symmetry_equiv_pos_as_xyz
  1	'-x, y+.5, -z+.5'
  2	'x+.5, -y+.5, -z'
  3	'-x+.5, -y, z+.5'
  4	'x, y, z'
loop_
_atom_type_symbol
_atom_type_oxidation_number
H1+	1
Mg2+	2
O2-	-2
S6+	6
loop_
_atom_site_label
_atom_site_type_symbol
_atom_site_symmetry_multiplicity
_atom_site_Wyckoff_symbol
_atom_site_fract_x
_atom_site_fract_y
_atom_site_fract_z
_atom_site_occupancy
_atom_site_attached_hydrogens
_atom_site_U_iso_or_equiv
Mg1 Mg2+ 4 a 0.42279(3) 0.10616(3) 0.04023(6) 1. 0 0 
S1 S6+ 4 a 0.72658(2) 0.18391(2) 0.49046(3) 1. 0 0 
O1 O2- 4 a 0.68483(12) 0.07519(8) 0.42752(18) 1. 0 0 
O2 O2- 4 a 0.85049(7) 0.18643(9) 0.48316(15) 1. 0 0 
O3 O2- 4 a 0.68864(8) 0.20604(10) 0.69088(14) 1. 0 0 
O4 O2- 4 a 0.68056(8) 0.27242(8) 0.36211(15) 1. 0 0 
O5 O2- 4 a 0.26513(7) 0.17375(9) 0.00335(14) 1. 0 0 
O6 O2- 4 a 0.47188(7) 0.24819(7) 0.19796(14) 1. 0 0 
O7 O2- 4 a 0.46916(8) 0.17613(9) 0.77947(14) 1. 0 0 
O8 O2- 4 a 0.58271(8) 0.04587(9) 0.07720(16) 1. 0 0 
O9 O2- 4 a 0.37616(9) 0.96138(7) 0.88932(14) 1. 0 0 
O10 O2- 4 a 0.36233(9) 0.03435(9) 0.29140(15) 1. 0 0 
O11 O2- 4 a 0.49164(10) 0.43790(8) 0.93903(19) 1. 0 0 
H1 H1+ 4 a 0.2343(18) 0.2274(16) 0.075(3) 1. 0 0.036 
H2 H1+ 4 a 0.2395(19) 0.1864(17) -.1179(28) 1. 0 0.036 
H3 H1+ 4 a 0.4263(15) 0.2639(17) 0.2947(30) 1. 0 0.028 
H4 H1+ 4 a 0.5407(14) 0.2442(17) 0.2528(28) 1. 0 0.028 
H5 H1+ 4 a 0.4397(18) 0.2367(17) 0.7072(34) 1. 0 0.035 
H6 H1+ 4 a 0.5416(15) 0.1857(16) 0.7393(33) 1. 0 0.035 
H7 H1+ 4 a 0.6257(19) 0.0665(19) 0.1858(33) 1. 0 0.041 
H8 H1+ 4 a 0.6100(21) -.0223(16) 0.0401(34) 1. 0 0.041 
H9 H1+ 4 a 0.3613(18) 0.8905(15) 0.9316(32) 1. 0 0.032 
H10 H1+ 4 a 0.4117(18) 0.9540(18) 0.7849(29) 1. 0 0.032 
H11 H1+ 4 a 0.2896(15) 0.0333(19) 0.3358(35) 1. 0 0.039 
H12 H1+ 4 a 0.4045(18) -.0009(18) 0.3946(33) 1. 0 0.039 
H13 H1+ 4 a 0.4241(18) 0.4791(17) 0.9345(37) 1. 0 0.041 
H14 H1+ 4 a 0.4746(17) 0.3777(14) 0.9894(33) 1. 0 0.041 

loop_
_atom_site_aniso_label
_atom_site_aniso_type_symbol
_atom_site_aniso_U_11
_atom_site_aniso_U_22
_atom_site_aniso_U_33
_atom_site_aniso_U_12
_atom_site_aniso_U_13
_atom_site_aniso_U_23
Mg1 Mg2+ 0.017(1) 0.019(1) 0.018(1) 0.000(1) 0.000(1) 0.000(1)
S1 S6+ 0.016(1) 0.020(1) 0.017(1) -.001(1) -.001(1) 0.000(1)
O1 O2- 0.055(1) 0.024(1) 0.037(1) -.011(1) -.011(1) -.002(1)
O2 O2- 0.017(1) 0.046(1) 0.029(1) 0.004(1) 0.000(1) 0.003(1)
O3 O2- 0.028(1) 0.053(1) 0.021(1) -.010(1) 0.005(1) -.007(1)
O4 O2- 0.026(1) 0.030(1) 0.031(1) 0.003(1) -.005(1) 0.007(1)
O5 O2- 0.023(1) 0.042(1) 0.024(1) 0.010(1) -.002(1) -.003(1)
O6 O2- 0.020(1) 0.027(1) 0.024(1) -.001(1) 0.000(1) -.005(1)
O7 O2- 0.023(1) 0.040(1) 0.025(1) 0.001(1) 0.004(1) 0.011(1)
O8 O2- 0.028(1) 0.042(1) 0.033(1) 0.017(1) -.008(1) -.011(1)
O9 O2- 0.032(1) 0.023(1) 0.026(1) -.004(1) 0.000(1) -.004(1)
O10 O2- 0.030(1) 0.040(1) 0.026(1) -.002(1) 0.004(1) 0.010(1)
O11 O2- 0.041(1) 0.027(1) 0.034(1) 0.001(1) 0.005(1) 0.003(1)
#End of data_29384-ICSD


