data_150286-ICSD
#?2014 by Fachinformationszentrum Karlsruhe, and the U.S. Secretary of 
#Commerce on behalf of the United States.  All rights reserved.
_database_code_ICSD                150286
_audit_creation_date               2006/04/01
_chemical_name_systematic          'Dicesium Silver Chloride'
_chemical_formula_structural       'Cs2 Ag Cl3'
_chemical_formula_sum              'Ag1 Cl3 Cs2'
_publ_section_title
;
Crystal structures and ionic conductivities of ternary derivatives of 
the silver and copper monohalides - II: ordered phases within the (Ag 
X)x - (MX)1-x and (CuX)x - (MX)1-x (M = K, Rb and Cs; X = Cl, Br and 
I) systems
;
loop_
_citation_id
_citation_journal_abbrev
_citation_year
_citation_journal_volume
_citation_page_first
_citation_page_last
_citation_journal_id_ASTM
primary 'Journal of Solid State Chemistry' 2004 177 3156 3173 JSSCBI
_publ_author_name                  'Hull, S.;Berastegui, P.'
_cell_length_a                     13.2098(6)
_cell_length_b                     4.5514(2)
_cell_length_c                     13.7580(7)
_cell_angle_alpha                  90.
_cell_angle_beta                   90.
_cell_angle_gamma                  90.
_cell_volume                       827.17
_cell_formula_units_Z              4
_symmetry_space_group_name_H-M     'P n m a'
_symmetry_Int_Tables_number        62
_refine_ls_R_factor_all            .031
loop_
_symmetry_equiv_pos_site_id
_symmetry_equiv_pos_as_xyz
  1	'x+.5, y, -z+.5'
  2	'x, -y+.5, z'
  3	'-x+.5, y+.5, z+.5'
  4	'-x, -y, -z'
  5	'-x+.5, -y, z+.5'
  6	'-x, y+.5, -z'
  7	'x+.5, -y+.5, -z+.5'
  8	'x, y, z'
loop_
_atom_type_symbol
_atom_type_oxidation_number
Ag1+	1
Cl1-	-1
Cs1+	1
loop_
_atom_site_label
_atom_site_type_symbol
_atom_site_symmetry_multiplicity
_atom_site_Wyckoff_symbol
_atom_site_fract_x
_atom_site_fract_y
_atom_site_fract_z
_atom_site_occupancy
_atom_site_attached_hydrogens
_atom_site_B_iso_or_equiv
Cs1 Cs1+ 4 c 0.1716(3) 0.250 0.4819(4) 1. 0 4.0(1) 
Cs2 Cs1+ 4 c 0.5118(4) 0.250 0.6738(4) 1. 0 3.9(1) 
Ag1 Ag1+ 4 c 0.2558(4) 0.250 0.1996(5) 1. 0 4.8(1) 
Cl1 Cl1- 4 c 0.137(1) 0.250 0.0044(1) 1. 0 3.9(2) 
Cl2 Cl1- 4 c 0.442(1) 0.250 0.134(1) 1. 0 2.5(2) 
Cl3 Cl1- 4 c 0.274(1) 0.250 0.791(2) 1. 0 7.0(2) 

#End of data_150286-ICSD


