data_710026-ICSD
#?2014 by Fachinformationszentrum Karlsruhe, and the U.S. Secretary of 
#Commerce on behalf of the United States.  All rights reserved.
_database_code_ICSD                710026
_audit_creation_date               2010/08/01
_audit_update_record               2012/02/01
_chemical_name_systematic
;
Trilithium Divanadium(III) Borotriphosphate Hydrogenphosphate
;
_chemical_formula_structural       'Li3 V2 (B P3 O12 (O H)) (H P O4)'
_chemical_formula_sum              'H2 B1 Li3 O17 P4 V2'
_publ_section_title
;
Crystal structure of trilithium divanadium(III) borophosphate 
hydrogenphosphate: Li3 V2 [B P3 O12 (O H)] [H P O4]
;
loop_
_citation_id
_citation_journal_abbrev
_citation_year
_citation_journal_volume
_citation_journal_issue
_citation_page_first
_citation_page_last
_citation_journal_id_ASTM
primary 'Zeitschrift fuer Kristallographie - New Crystal Structures'
 2010 225 1 3 4 ZKNSFT
_publ_author_name
;
Lin Zhisheng;Hoffmann, S.;Huang Ya Xi;Prots', Yu.;Zhao Jing 
Tai;Kniep, R.
;
_cell_length_a                     9.3783(5)
_cell_length_b                     8.2313(4)
_cell_length_c                     17.7504(9)
_cell_angle_alpha                  90.00
_cell_angle_beta                   119.394(3)
_cell_angle_gamma                  90.00
_cell_volume                       1193.85
_cell_formula_units_Z              4
_symmetry_space_group_name_H-M     'P 1 21/c 1'
_symmetry_Int_Tables_number        14
_refine_ls_R_factor_all            .0334
loop_
_symmetry_equiv_pos_site_id
_symmetry_equiv_pos_as_xyz
  1	'x, -y+.5, z+.5'
  2	'-x, -y, -z'
  3	'-x, y+.5, -z+.5'
  4	'x, y, z'
loop_
_atom_type_symbol
_atom_type_oxidation_number
B3+	3
H1+	1
Li1+	1
O2-	-2
P5+	5
V3+	3
loop_
_atom_site_label
_atom_site_type_symbol
_atom_site_symmetry_multiplicity
_atom_site_Wyckoff_symbol
_atom_site_fract_x
_atom_site_fract_y
_atom_site_fract_z
_atom_site_occupancy
_atom_site_attached_hydrogens
_atom_site_U_iso_or_equiv
V1 V3+ 4 e 0.28844(5) 0.97946(5) 0.20706(2) 1 0 0.00817(9) 
V2 V3+ 4 e 0.24534(5) 0.01388(5) 0.49758(2) 1 0 0.00830(9) 
P1 P5+ 4 e 0.93383(7) 0.15379(7) 0.10162(4) 1 0 0.00843(12) 
P2 P5+ 4 e 0.49532(7) 0.21766(7) 0.14161(4) 1 0 0.00795(11) 
P3 P5+ 4 e 0.13208(7) 0.64242(7) 0.12095(4) 1 0 0.00809(11) 
P4 P5+ 4 e 0.38655(7) 0.17008(7) 0.38238(4) 1 0 0.00900(12) 
B1 B3+ 4 e 0.8229(3) 0.2043(3) 0.21562(16) 1 0 0.0088(4) 
Li1 Li1+ 4 e 0.8511(5) 0.8466(5) 0.9844(3) 1 0 0.0157(8) 
Li2 Li1+ 4 e 0.6552(6) 0.1356(6) 0.9398(3) 1 0 0.0235(10) 
Li3 Li1+ 4 e 0.6578(7) 0.8988(7) 0.2626(4) 1 0 0.0298(12) 
O1 O2- 4 e 0.1104(2) 0.8212(2) 0.43723(11) 1 0 0.0145(3) 
O2 O2- 4 e 0.8123(2) 0.0260(2) 0.04236(11) 1 0 0.0142(3) 
O3 O2- 4 e 0.1078(2) 0.1134(2) 0.11783(10) 1 0 0.0116(3) 
O4 O2- 4 e 0.9435(2) 0.1510(2) 0.19246(11) 1 0 0.0113(3) 
O5 O2- 4 e 0.3628(2) 0.2271(2) 0.55289(10) 1 0 0.0112(3) 
O6 O2- 4 e 0.4772(2) 0.8441(2) 0.28859(11) 1 0 0.0111(3) 
O7 O2- 4 e 0.4440(2) 0.0521(2) 0.16186(11) 1 0 0.0118(3) 
O8 O2- 4 e 0.65710(19) 0.1949(2) 0.13946(10) 1 0 0.0099(3) 
O9 O2- 4 e 0.0503(2) 0.1643(2) 0.43894(11) 1 0 0.0115(3) 
O10 O2- 4 e 0.2053(2) 0.99970(19) 0.59702(11) 1 0 0.0114(3) 
O11 O2- 4 e 0.2196(2) 0.8012(2) 0.12250(10) 1 0 0.0106(3) 
O12 O2- 4 e 0.1715(2) 0.5962(2) 0.21531(10) 1 0 0.0110(3) 
O13 O2- 4 e 0.2792(2) 0.0561(2) 0.39873(11) 1 0 0.0139(3) 
O14 O2- 4 e 0.4319(2) 0.8588(2) 0.55724(11) 1 0 0.0149(3) 
O15 O2- 4 e 0.3478(2) 0.1641(2) 0.28756(10) 1 0 0.0121(3) 
O16 O2- 4 e 0.3594(3) 0.3545(2) 0.39365(13) 1 0 0.0203(4) 
H1 H1+ 4 e 0.316(5) 0.400(5) 0.424(3) 1 0 0.064(14) 
O17 O2- 4 e 0.1423(2) 0.8702(2) 0.24859(11) 1 0 0.0107(3) 
H2 H1+ 4 e 0.117(5) 0.921(6) 0.273(3) 1 0 0.054(14) 

loop_
_atom_site_aniso_label
_atom_site_aniso_type_symbol
_atom_site_aniso_U_11
_atom_site_aniso_U_22
_atom_site_aniso_U_33
_atom_site_aniso_U_12
_atom_site_aniso_U_13
_atom_site_aniso_U_23
V1 V3+ 0.00837(17) 0.00772(17) 0.00805(17) 0.00033(13) 0.00375(14) 
0.00034(13)
V2 V3+ 0.00839(18) 0.00876(17) 0.00762(18) -0.00021(13) 0.00383(14) 
0.00036(13)
P1 P5+ 0.0085(3) 0.0088(3) 0.0079(3) 0.00076(19) 0.0040(2) 0.00007(19)
P2 P5+ 0.0081(3) 0.0076(3) 0.0079(2) -0.00024(19) 0.0037(2) -0.00022(19)
P3 P5+ 0.0084(3) 0.0081(2) 0.0073(3) -0.00007(19) 0.0035(2) -0.00023(19)
P4 P5+ 0.0097(3) 0.0087(3) 0.0090(3) -0.0002(2) 0.0048(2) 0.00009(19)
B1 B3+ 0.0098(11) 0.0092(10) 0.0065(10) -0.0002(8) 0.0034(9) -0.0004(8)
Li1 Li1+ 0.014(2) 0.013(2) 0.017(2) 0.0032(16) 0.0046(17) 0.0022(16)
Li2 Li1+ 0.025(3) 0.021(2) 0.023(2) 0.0082(19) 0.010(2) 0.0053(19)
Li3 Li1+ 0.032(3) 0.025(3) 0.040(3) -0.011(2) 0.023(3) -0.009(2)
O1 O2- 0.0157(8) 0.0105(8) 0.0172(8) -0.0040(6) 0.0080(7) -0.0049(6)
O2 O2- 0.0145(8) 0.0138(8) 0.0129(8) -0.0020(6) 0.0056(7) -0.0032(6)
O3 O2- 0.0104(8) 0.0146(8) 0.0111(8) 0.0039(6) 0.0063(6) 0.0034(6)
O4 O2- 0.0103(7) 0.0154(8) 0.0089(7) 0.0023(6) 0.0054(6) 0.0009(6)
O5 O2- 0.0118(8) 0.0107(8) 0.0092(7) -0.0021(6) 0.0036(6) -0.0009(6)
O6 O2- 0.0112(8) 0.0111(7) 0.0099(7) 0.0013(6) 0.0043(6) 0.0030(6)
O7 O2- 0.0146(8) 0.0087(7) 0.0152(8) -0.0016(6) 0.0098(7) -0.0001(6)
O8 O2- 0.0089(7) 0.0131(8) 0.0084(7) -0.0009(6) 0.0048(6) -0.0003(6)
O9 O2- 0.0087(7) 0.0116(8) 0.0113(8) 0.0002(6) 0.0027(6) -0.0010(6)
O10 O2- 0.0152(8) 0.0100(7) 0.0110(8) -0.0025(6) 0.0081(7) -0.0001(6)
O11 O2- 0.0129(8) 0.0098(7) 0.0090(7) -0.0022(6) 0.0053(6) -0.0014(6)
O12 O2- 0.0161(8) 0.0102(8) 0.0090(7) -0.0006(6) 0.0080(6) -0.0005(6)
O13 O2- 0.0165(8) 0.0160(8) 0.0131(8) -0.0061(7) 0.0103(7) -0.0026(6)
O14 O2- 0.0113(8) 0.0167(9) 0.0144(8) 0.0020(6) 0.0045(7) 0.0024(7)
O15 O2- 0.0167(8) 0.0123(8) 0.0092(7) -0.0026(6) 0.0077(7) -0.0015(6)
O16 O2- 0.0331(11) 0.0100(8) 0.0279(10) 0.0017(7) 0.0229(9) -0.0008(7)
O17 O2- 0.0124(8) 0.0088(8) 0.0129(8) 0.0019(6) 0.0078(7) 0.0003(6)
#End of data_710026-ICSD


