data_163631-ICSD
#?2014 by Fachinformationszentrum Karlsruhe, and the U.S. Secretary of 
#Commerce on behalf of the United States.  All rights reserved.
_database_code_ICSD                163631
_audit_creation_date               2009/08/01
_chemical_name_systematic
;
Sodium Silicon Oxide Hydroxide Hydrate (4/32/64/4/12)
;
_chemical_formula_structural       'Na4 (Si32 O64 (O H)4) (H2 O)12'
_chemical_formula_sum              'H28 Na4 O80 Si32'
_chemical_name_mineral             'Zeolite RUB-18'
_publ_section_title
;
Structural changes induced by dehydration in the crystalline layered 
silicate Na-RUB-18: a computational/experimental combined study
;
loop_
_citation_id
_citation_journal_abbrev
_citation_year
_citation_journal_volume
_citation_page_first
_citation_page_last
_citation_journal_id_ASTM
primary 'Journal of Materials Chemistry' 2009 19 2610 2617 JMACEP
_publ_author_name
;
Iozzi, M.F.;Bisio, C.;Regi-Macedo, T.;Airoldi, C.;Cossi, M.;Marchese, 
L.
;
_cell_length_a                     7.625640
_cell_length_b                     15.381577
_cell_length_c                     50.000000
_cell_angle_alpha                  90.000000
_cell_angle_beta                   90.000000
_cell_angle_gamma                  90.130185
_cell_volume                       5864.7
_cell_formula_units_Z              1
_symmetry_space_group_name_H-M     'P 1'
_symmetry_Int_Tables_number        1
loop_
_symmetry_equiv_pos_site_id
_symmetry_equiv_pos_as_xyz
  1	'x, y, z'
loop_
_atom_type_symbol
_atom_type_oxidation_number
H1+	1
Na1+	1
O2-	-2
Si4+	4
loop_
_atom_site_label
_atom_site_type_symbol
_atom_site_symmetry_multiplicity
_atom_site_Wyckoff_symbol
_atom_site_fract_x
_atom_site_fract_y
_atom_site_fract_z
_atom_site_occupancy
_atom_site_attached_hydrogens
O1 O2- 1 a -0.427002 0.028120 0.399284 1. 0 
O2 O2- 1 a 0.516983 0.198062 0.401074 1. 0 
O3 O2- 1 a 0.531175 0.363827 0.379000 1. 0 
Si1 Si4+ 1 a 0.521340 0.257049 0.373388 1. 0 
Si2 Si4+ 1 a 0.530995 0.462841 0.365937 1. 0 
O4 O2- 1 a 0.343754 0.245125 0.354249 1. 0 
O5 O2- 1 a -0.306682 0.233572 0.354091 1. 0 
O6 O2- 1 a 0.354477 -0.513526 0.347488 1. 0 
O7 O2- 1 a -0.300348 -0.522432 0.346027 1. 0 
O8 O2- 1 a 0.032504 0.008010 0.331977 1. 0 
O9 O2- 1 a 0.020095 0.232721 0.330222 1. 0 
Si3 Si4+ 1 a 0.248040 0.019383 0.329028 1. 0 
Si4 Si4+ 1 a 0.235933 0.223953 0.326448 1. 0 
Si5 Si4+ 1 a -0.178720 0.011382 0.323899 1. 0 
Si6 Si4+ 1 a -0.194619 0.217960 0.326300 1. 0 
O10 O2- 1 a 0.285235 0.120749 0.318734 1. 0 
O11 O2- 1 a -0.228758 0.114428 0.317343 1. 0 
O12 O2- 1 a 0.310862 0.280046 0.300983 1. 0 
O13 O2- 1 a -0.276624 0.276205 0.301768 1. 0 
O14 O2- 1 a 0.290169 0.451040 0.294674 1. 0 
O15 O2- 1 a -0.223016 0.445831 0.293643 1. 0 
Si7 Si4+ 1 a 0.316826 0.358391 0.277046 1. 0 
Si8 Si4+ 1 a -0.267180 0.352570 0.277141 1. 0 
O16 O2- 1 a 0.524734 0.353751 0.267348 1. 0 
O17 O2- 1 a 0.179943 0.329662 0.253330 1. 0 
O18 O2- 1 a -0.130029 0.316635 0.254425 1. 0 
H1 H1+ 1 a 0.235827 0.086043 0.190903 1. 0 
H2 H1+ 1 a -0.152840 -0.047003 0.225585 1. 0 
H3 H1+ 1 a 0.290556 -0.004259 0.205908 1. 0 
H4 H1+ 1 a -0.012429 0.018477 0.211454 1. 0 
Na1 Na1+ 1 a 0.016079 0.052087 0.262019 1. 0 
O19 O2- 1 a 0.230003 0.053693 0.207688 1. 0 
O20 O2- 1 a 0.264059 0.146692 0.252988 1. 0 
O21 O2- 1 a -0.122969 0.014410 0.221613 1. 0 
O22 O2- 1 a -0.223365 0.148962 0.253628 1. 0 
Na2 Na1+ 1 a 0.517775 0.161042 0.282268 1. 0 
H5 H1+ 1 a 0.233317 0.208761 0.249945 1. 0 
H6 H1+ 1 a -0.225861 0.114856 0.236844 1. 0 
H7 H1+ 1 a 0.268860 0.114984 0.235481 1. 0 
H8 H1+ 1 a -0.187492 0.211302 0.250384 1. 0 
O23 O2- 1 a 0.350682 0.449468 0.187173 1. 0 
O24 O2- 1 a -0.336384 0.430886 0.188757 1. 0 
O25 O2- 1 a 0.005075 0.409104 0.174855 1. 0 
Si9 Si4+ 1 a 0.214780 0.406144 0.165493 1. 0 
Si10 Si4+ 1 a -0.201918 0.397241 0.165333 1. 0 
O26 O2- 1 a 0.256004 0.307891 0.151541 1. 0 
O27 O2- 1 a 0.205903 0.474432 0.138614 1. 0 
O28 O2- 1 a -0.226968 0.298456 0.151263 1. 0 
O29 O2- 1 a -0.214792 0.465900 0.138843 1. 0 
O30 O2- 1 a 0.259437 0.138968 0.132266 1. 0 
O31 O2- 1 a -0.246667 0.132769 0.130323 1. 0 
Si11 Si4+ 1 a 0.285133 0.036454 0.122193 1. 0 
Si12 Si4+ 1 a 0.299459 0.244233 0.125641 1. 0 
Si13 Si4+ 1 a -0.288976 0.029539 0.122889 1. 0 
Si14 Si4+ 1 a -0.277506 0.238745 0.124775 1. 0 
O32 O2- 1 a -0.502780 0.019720 0.116947 1. 0 
O33 O2- 1 a -0.488967 0.252560 0.118499 1. 0 
O34 O2- 1 a 0.183653 0.271733 0.098995 1. 0 
O35 O2- 1 a -0.160406 0.268182 0.098334 1. 0 
O36 O2- 1 a 0.174554 0.522882 0.086958 1. 0 
O37 O2- 1 a -0.175771 0.511077 0.086045 1. 0 
Si15 Si4+ 1 a 0.013245 0.279794 0.078216 1. 0 
Si16 Si4+ 1 a 0.005035 0.486731 0.069319 1. 0 
O38 O2- 1 a 0.016505 0.380597 0.065913 1. 0 
O39 O2- 1 a -0.013689 0.050216 0.048183 1. 0 
O40 O2- 1 a 0.017120 0.214712 0.052271 1. 0 
H9 H1+ 1 a -0.478831 0.435376 0.189476 1. 0 
H10 H1+ 1 a 0.027976 0.328360 0.252604 1. 0 
H11 H1+ 1 a -0.001094 0.151313 0.049796 1. 0 
H12 H1+ 1 a 0.023215 0.026847 0.031059 1. 0 
H13 H1+ 1 a 0.534074 0.134194 0.401947 1. 0 
H14 H1+ 1 a -0.375453 0.003613 0.415399 1. 0 
O41 O2- 1 a -0.461804 -0.468967 0.392932 1. 0 
O42 O2- 1 a 0.494403 -0.305320 0.394540 1. 0 
O43 O2- 1 a 0.524708 -0.138525 0.378779 1. 0 
Si17 Si4+ 1 a 0.513612 -0.241608 0.368219 1. 0 
Si18 Si4+ 1 a 0.537952 -0.034256 0.371526 1. 0 
O44 O2- 1 a 0.345975 -0.246560 0.346786 1. 0 
O45 O2- 1 a -0.310002 -0.260455 0.349318 1. 0 
O46 O2- 1 a 0.356239 0.003731 0.357463 1. 0 
O47 O2- 1 a -0.301742 -0.020063 0.349431 1. 0 
O48 O2- 1 a 0.027042 -0.500015 0.327316 1. 0 
O49 O2- 1 a 0.016577 -0.267828 0.327105 1. 0 
Si19 Si4+ 1 a 0.237840 -0.486764 0.320495 1. 0 
Si20 Si4+ 1 a 0.228844 -0.277717 0.320667 1. 0 
Si21 Si4+ 1 a -0.183462 -0.491215 0.319636 1. 0 
Si22 Si4+ 1 a -0.196416 -0.282502 0.321952 1. 0 
O50 O2- 1 a 0.270895 -0.381779 0.314108 1. 0 
O51 O2- 1 a -0.225917 -0.386706 0.313858 1. 0 
O52 O2- 1 a 0.276034 -0.215640 0.294448 1. 0 
O53 O2- 1 a -0.257890 -0.217099 0.297448 1. 0 
O54 O2- 1 a 0.325310 -0.046321 0.306069 1. 0 
O55 O2- 1 a -0.205376 -0.044512 0.295893 1. 0 
Si23 Si4+ 1 a 0.316780 -0.117838 0.280870 1. 0 
Si24 Si4+ 1 a -0.265270 -0.131057 0.276745 1. 0 
O56 O2- 1 a 0.521370 -0.119631 0.268946 1. 0 
O57 O2- 1 a 0.155673 -0.084964 0.261255 1. 0 
O58 O2- 1 a -0.136520 -0.140388 0.250252 1. 0 
H15 H1+ 1 a 0.285433 -0.448882 0.192072 1. 0 
H16 H1+ 1 a -0.169283 -0.352890 0.202648 1. 0 
H17 H1+ 1 a 0.184746 -0.361055 0.204352 1. 0 
H18 H1+ 1 a -0.269524 -0.441685 0.193316 1. 0 
Na3 Na1+ 1 a 0.005616 -0.404451 0.157106 1. 0 
O59 O2- 1 a 0.246840 -0.386484 0.188932 1. 0 
O60 O2- 1 a -0.002927 -0.284261 0.218260 1. 0 
O61 O2- 1 a -0.227177 -0.383775 0.187562 1. 0 
O62 O2- 1 a -0.425077 -0.276937 0.230499 1. 0 
Na4 Na1+ 1 a -0.492858 -0.295484 0.186515 1. 0 
H19 H1+ 1 a -0.037644 -0.272162 0.236738 1. 0 
H20 H1+ 1 a -0.362393 -0.221249 0.229648 1. 0 
H21 H1+ 1 a -0.001123 -0.227951 0.209002 1. 0 
H22 H1+ 1 a 0.515990 -0.283677 0.247607 1. 0 
O63 O2- 1 a 0.350584 -0.098347 0.191944 1. 0 
O64 O2- 1 a -0.359853 -0.155408 0.186230 1. 0 
O65 O2- 1 a 0.004097 -0.129589 0.176895 1. 0 
Si25 Si4+ 1 a 0.213007 -0.115953 0.166825 1. 0 
Si26 Si4+ 1 a -0.203955 -0.130111 0.164843 1. 0 
O66 O2- 1 a 0.273745 -0.204536 0.149023 1. 0 
O67 O2- 1 a 0.215279 -0.031596 0.145524 1. 0 
O68 O2- 1 a -0.191896 -0.208445 0.141404 1. 0 
O69 O2- 1 a -0.234310 -0.037792 0.147290 1. 0 
O70 O2- 1 a 0.248852 -0.362814 0.125382 1. 0 
O71 O2- 1 a -0.227983 -0.371334 0.123690 1. 0 
Si27 Si4+ 1 a 0.286022 -0.464447 0.114853 1. 0 
Si28 Si4+ 1 a 0.304549 -0.259012 0.120737 1. 0 
Si29 Si4+ 1 a -0.282499 0.528103 0.114382 1. 0 
Si30 Si4+ 1 a -0.267018 -0.267255 0.116523 1. 0 
O72 O2- 1 a -0.498032 0.523296 0.109879 1. 0 
O73 O2- 1 a -0.482762 -0.255572 0.113791 1. 0 
O74 O2- 1 a 0.183327 -0.223648 0.095686 1. 0 
O75 O2- 1 a -0.160086 -0.244264 0.088685 1. 0 
O76 O2- 1 a 0.170129 0.018577 0.094417 1. 0 
O77 O2- 1 a -0.177164 0.004546 0.095271 1. 0 
Si31 Si4+ 1 a 0.024688 -0.218297 0.072705 1. 0 
Si32 Si4+ 1 a -0.002132 -0.011528 0.076303 1. 0 
O78 O2- 1 a 0.013568 -0.112889 0.065445 1. 0 
O79 O2- 1 a 0.002620 -0.457017 0.040120 1. 0 
O80 O2- 1 a 0.057827 -0.278010 0.045670 1. 0 
H23 H1+ 1 a -0.503627 -0.120091 0.190537 1. 0 
H24 H1+ 1 a 0.036978 -0.116171 0.254603 1. 0 
H25 H1+ 1 a 0.034817 -0.340014 0.042603 1. 0 
H26 H1+ 1 a 0.046927 -0.480668 0.023444 1. 0 
H27 H1+ 1 a 0.507368 -0.369779 0.394789 1. 0 
H28 H1+ 1 a -0.419103 -0.492261 0.409815 1. 0 

#End of data_163631-ICSD


