data_412201-ICSD
#?2014 by Fachinformationszentrum Karlsruhe, and the U.S. Secretary of 
#Commerce on behalf of the United States.  All rights reserved.
_database_code_ICSD                412201
_audit_creation_date               2004/04/01
_audit_update_record               2014/08/01
_chemical_name_systematic
;
Undecapotassium Heptauranium Tridecakis(tetrathio- Phosphate(V))
;
_chemical_formula_structural       'K11 U7 (P S4)13'
_chemical_formula_sum              'K11 P13 S52 U7'
_publ_section_title
;
Interlocking inorganic screw helices: synthesis, structure  and 
magnetism of the novel framework uranium orthothiophosphates A11 U7 
(P S4)13 (A = K, Rb)
;
loop_
_citation_id
_citation_journal_abbrev
_citation_year
_citation_journal_volume
_citation_journal_issue
_citation_page_first
_citation_page_last
_citation_journal_id_ASTM
primary 'Chemistry - A European Journal' 2002 8 13 2980 2987 CEUJED
_publ_author_name                  'Gieck, C.;Tremel, W.'
_cell_length_a                     32.0481(16)
_cell_length_b                     32.0481(16)
_cell_length_c                     17.3208(13)
_cell_angle_alpha                  90.
_cell_angle_beta                   90.
_cell_angle_gamma                  90.
_cell_volume                       17789.86
_cell_formula_units_Z              8
_symmetry_space_group_name_H-M     'I -4 2 d'
_symmetry_Int_Tables_number        122
_refine_ls_R_factor_all            .0535
loop_
_symmetry_equiv_pos_site_id
_symmetry_equiv_pos_as_xyz
  1	'-y, -x+.5, z+.25'
  2	'y, -x, -z'
  3	'y, x+.5, z+.25'
  4	'-y, x, -z'
  5	'x, -y+.5, -z+.25'
  6	'-x, -y, z'
  7	'-x, y+.5, -z+.25'
  8	'x, y, z'
  9	'-y+.5, -x, z+.75'
 10	'y+.5, -x+.5, -z+.5'
 11	'y+.5, x, z+.75'
 12	'-y+.5, x+.5, -z+.5'
 13	'x+.5, -y, -z+.75'
 14	'-x+.5, -y+.5, z+.5'
 15	'-x+.5, y, -z+.75'
 16	'x+.5, y+.5, z+.5'
loop_
_atom_type_symbol
_atom_type_oxidation_number
K1+	1
P5+	5
S2-	-2
U4+	4
loop_
_atom_site_label
_atom_site_type_symbol
_atom_site_symmetry_multiplicity
_atom_site_Wyckoff_symbol
_atom_site_fract_x
_atom_site_fract_y
_atom_site_fract_z
_atom_site_occupancy
_atom_site_attached_hydrogens
_atom_site_U_iso_or_equiv
S1 S2- 16 e 0.00170(15) 0.09759(17) 0.0849(3) 1. 0 0.0385(14) 
S2 S2- 16 e 0.00584(18) 0.0945(2) 0.4525(3) 1. 0 0.0607(17) 
U1 U4+ 16 e 0.01192(2) 0.15187(2) 0.21178(4) 1. 0 0.02634(18) 
K1 K1+ 16 e 0.01242(18) 0.31126(17) 0.3210(3) 1. 0 0.0681(17) 
S3 S2- 16 e 0.02669(14) 0.26333(13) 0.4940(3) 1. 0 0.0297(11) 
S4 S2- 16 e 0.03051(15) 0.06824(15) 0.2637(3) 1. 0 0.0358(12) 
P1 P5+ 16 e 0.04789(16) 0.0916(2) 0.3730(3) 1. 0 0.0578(18) 
S5 S2- 16 e 0.05006(14) 0.26639(14) 0.0331(3) 1. 0 0.0291(11) 
P2 P5+ 16 e 0.06454(15) 0.09990(15) 0.0609(3) 1. 0 0.0281(12) 
S6 S2- 16 e 0.07169(14) 0.62315(15) 0.0347(3) 1. 0 0.0318(12) 
S7 S2- 16 e 0.07279(15) 0.15200(16) 0.3295(3) 1. 0 0.0336(12) 
S8 S2- 16 e 0.07559(18) 0.38895(18) 0.2999(3) 1. 0 0.0506(16) 
S9 S2- 16 e 0.08770(13) 0.14569(14) 0.1318(3) 1. 0 0.0302(11) 
S10 S2- 16 e 0.09224(15) 0.04675(15) 0.1018(3) 1. 0 0.0324(12) 
S11 S2- 16 e 0.10245(14) 0.06123(14) 0.3936(2) 1. 0 0.0301(12) 
U2 U4+ 16 e 0.12219(2) 0.08441(2) 0.23867(4) 1. 0 0.01998(15) 
S12 S2- 16 e 0.13442(13) 0.50339(13) 0.0247(3) 1. 0 0.0244(11) 
S13 S2- 16 e 0.15733(19) 0.25970(17) 0.3621(3) 1. 0 0.0583(17) 
S14 S2- 16 e 0.16763(13) 0.15847(13) 0.2649(3) 1. 0 0.0274(11) 
K2 K1+ 16 e 0.17646(18) 0.37269(18) 0.3108(3) 1. 0 0.0745(18) 
S15 S2- 16 e 0.18553(13) 0.09255(12) 0.1251(3) 1. 0 0.0254(10) 
S16 S2- 16 e 0.19590(14) 0.05917(13) 0.3200(3) 1. 0 0.0249(11) 
S17 S2- 16 e 0.20096(18) 0.47712(16) 0.3483(3) 1. 0 0.0487(15) 
P3 P5+ 16 e 0.20919(14) 0.14259(14) 0.1803(3) 1. 0 0.0244(12) 
S18 S2- 16 e 0.21973(13) 0.19059(14) 0.1049(3) 1. 0 0.0298(12) 
S19 S2- 16 e 0.26679(13) 0.13169(13) 0.2304(3) 1. 0 0.0282(11) 
S20 S2- 16 e 0.28710(12) 0.24943(14) 0.0229(2) 1. 0 0.0241(10) 
S21 S2- 16 e 0.28995(15) 0.12893(15) 0.0023(3) 1. 0 0.0348(12) 
S22 S2- 16 e 0.30099(16) 0.03348(14) 0.0667(3) 1. 0 0.0356(13) 
U3 U4+ 16 e 0.306451(19) 0.180776(18) 0.12515(4) 1. 0 0.02050(15) 
K3 K1+ 16 e 0.31249(14) 0.04229(12) 0.2475(2) 1. 0 0.0419(12) 
P4 P5+ 16 e 0.33261(14) 0.08591(14) 0.0430(3) 1. 0 0.0228(11) 
P5 P5+ 16 e 0.34541(14) 0.25330(15) 0.2769(3) 1. 0 0.0278(11) 
S23 S2- 16 e 0.35984(13) 0.11205(13) 0.1378(3) 1. 0 0.0245(11) 
S24 S2- 16 e 0.37409(13) 0.30015(13) 0.0164(3) 1. 0 0.0259(11) 
S25 S2- 16 e 0.37426(15) 0.19846(15) 0.0273(3) 1. 0 0.0361(13) 
K4 K1+ 16 e 0.45651(13) 0.07193(14) 0.1172(3) 1. 0 0.0544(14) 
S26 S2- 16 e 0.46296(14) 0.17350(14) 0.1412(3) 1. 0 0.0284(11) 
P6 P5+ 16 e 0.49836(13) 0.18506(14) 0.0457(3) 1. 0 0.0207(11) 
P7 P5+ 8 d 0.01447(19) 0.25 0.125 1. 0 0.0224(14) 
K5 K1+ 8 d 0.1365(2) 0.25 0.125 1. 0 0.085(3) 
U4 U4+ 8 d 0.42375(3) 0.25 0.125 1. 0 0.0214(2) 
K6 K1+ 8 d 0.69652(19) 0.25 0.125 1. 0 0.0418(15) 
K7 K1+ 8 c 0 0 0.1273(10) 1. 0 0.333(14) 

loop_
_atom_site_aniso_label
_atom_site_aniso_type_symbol
_atom_site_aniso_U_11
_atom_site_aniso_U_22
_atom_site_aniso_U_33
_atom_site_aniso_U_12
_atom_site_aniso_U_13
_atom_site_aniso_U_23
S1 S2- 0.025(3) 0.057(4) 0.034(3) 0.009(2) -0.004(2) -0.009(3)
S2 S2- 0.052(4) 0.071(5) 0.060(4) 0.008(3) 0.016(3) 0.002(3)
U1 U4+ 0.0200(4) 0.0254(4) 0.0336(4) 0.0056(3) 0.0034(3) 0.0034(3)
K1 K1+ 0.087(4) 0.070(4) 0.048(3) -0.013(3) 0.025(3) -0.023(3)
S3 S2- 0.035(3) 0.020(2) 0.035(3) 0.015(2) -0.008(2) -0.007(2)
S4 S2- 0.041(3) 0.032(3) 0.034(3) 0.000(2) -0.006(2) -0.003(2)
P1 P5+ 0.027(3) 0.116(6) 0.031(3) 0.019(3) -0.003(3) -0.007(4)
S5 S2- 0.029(3) 0.027(3) 0.030(3) 0.000(2) -0.001(2) 0.001(2)
P2 P5+ 0.027(3) 0.033(3) 0.024(3) 0.008(2) 0.006(2) -0.002(2)
S6 S2- 0.024(3) 0.039(3) 0.033(3) 0.003(2) 0.007(2) 0.013(3)
S7 S2- 0.038(3) 0.042(3) 0.021(3) 0.012(3) -0.005(2) -0.004(2)
S8 S2- 0.060(4) 0.062(4) 0.030(3) -0.013(3) -0.006(3) 0.004(3)
S9 S2- 0.025(3) 0.029(3) 0.036(3) 0.003(2) 0.002(2) -0.005(2)
S10 S2- 0.033(3) 0.034(3) 0.030(3) 0.011(2) -0.003(2) -0.006(2)
S11 S2- 0.028(3) 0.035(3) 0.026(3) 0.020(2) 0.005(2) 0.008(2)
U2 U4+ 0.0187(4) 0.0177(4) 0.0235(3) 0.0025(3) 0.0000(3) -0.0006(3)
S12 S2- 0.020(3) 0.018(2) 0.035(3) -0.0021(18) 0.006(2) -0.002(2)
S13 S2- 0.080(4) 0.050(4) 0.045(4) -0.006(3) -0.019(3) 0.001(3)
S14 S2- 0.022(2) 0.022(3) 0.038(3) 0.000(2) 0.011(2) -0.005(2)
K2 K1+ 0.087(4) 0.089(4) 0.048(3) 0.013(4) -0.014(3) -0.010(3)
S15 S2- 0.029(3) 0.016(2) 0.031(2) -0.0027(19) 0.009(2) -0.003(2)
S16 S2- 0.024(3) 0.019(2) 0.031(3) -0.004(2) -0.004(2) 0.001(2)
S17 S2- 0.047(4) 0.042(3) 0.058(4) -0.010(3) 0.009(3) -0.013(3)
P3 P5+ 0.019(3) 0.023(3) 0.031(3) 0.001(2) 0.001(2) 0.000(2)
S18 S2- 0.021(2) 0.021(3) 0.047(3) 0.003(2) 0.000(2) 0.009(2)
S19 S2- 0.021(2) 0.023(3) 0.040(3) 0.0015(19) 0.003(2) 0.008(2)
S20 S2- 0.022(2) 0.019(2) 0.031(3) -0.004(2) -0.002(2) 0.000(2)
S21 S2- 0.036(3) 0.030(3) 0.038(3) 0.007(2) -0.015(2) -0.008(2)
S22 S2- 0.050(3) 0.023(3) 0.034(3) -0.012(2) 0.009(3) -0.009(2)
U3 U4+ 0.0201(4) 0.0152(3) 0.0262(3) 0.0010(3) 0.0003(3) -0.0005(3)
K3 K1+ 0.067(3) 0.028(2) 0.031(2) -0.001(2) 0.003(2) 0.003(2)
P4 P5+ 0.025(3) 0.017(2) 0.027(3) 0.002(2) 0.002(2) -0.004(2)
P5 P5+ 0.030(3) 0.022(3) 0.032(3) 0.000(2) -0.002(2) 0.001(2)
S23 S2- 0.020(2) 0.021(2) 0.032(3) 0.0078(19) -0.003(2) -0.002(2)
S24 S2- 0.021(2) 0.019(2) 0.038(3) -0.005(2) -0.002(2) 0.006(2)
S25 S2- 0.030(3) 0.032(3) 0.045(3) 0.000(2) 0.004(3) 0.009(3)
K4 K1+ 0.029(3) 0.042(3) 0.092(4) -0.004(2) 0.005(3) 0.000(3)
S26 S2- 0.022(2) 0.023(3) 0.039(3) 0.000(2) 0.004(2) 0.000(2)
P6 P5+ 0.018(2) 0.017(2) 0.026(2) 0.0039(19) 0.000(2) 0.000(2)
P7 P5+ 0.024(4) 0.023(4) 0.020(3) 0 0 0.001(3)
K5 K1+ 0.023(4) 0.063(5) 0.169(9) 0 0 -0.001(6)
U4 U4+ 0.0178(5) 0.0173(5) 0.0291(5) 0 0 -0.0009(5)
K6 K1+ 0.048(4) 0.049(4) 0.028(3) 0 0 0.017(3)
K7 K1+ 0.59(4) 0.220(17) 0.193(14) -0.30(2) 0 0
#End of data_412201-ICSD


