data_81706-ICSD
#?2014 by Fachinformationszentrum Karlsruhe, and the U.S. Secretary of 
#Commerce on behalf of the United States.  All rights reserved.
_database_code_ICSD                81706
_audit_creation_date               1997/05/13
_audit_update_record               1997/11/10
_chemical_name_systematic
;
Barium Dizinc Hydrogendiarsenate(V) Arsenate(V)
;
_chemical_formula_structural       'Ba Zn2 (H As2 O7) (As O4)'
_chemical_formula_sum              'H1 As3 Ba1 O11 Zn2'
_publ_section_title
;
Ba Zn2 (H As2 O7) As O4: a novel barium zinc arsenate containing Zn4 
O16 clusters and hydrogen diarsenate groups
;
loop_
_citation_id
_citation_journal_abbrev
_citation_year
_citation_journal_volume
_citation_page_first
_citation_page_last
_citation_journal_id_ASTM
primary 'Inorganic Chemistry' 1996 35 4708 4712 INOCAJ
_publ_author_name                  'Fan, N.-Y.;Wang, S.-L.'
_cell_length_a                     11.5773(3)
_cell_length_b                     8.0975(2)
_cell_length_c                     10.0511(3)
_cell_angle_alpha                  90.
_cell_angle_beta                   93.862(2)
_cell_angle_gamma                  90.
_cell_volume                       940.12
_cell_formula_units_Z              4
_symmetry_space_group_name_H-M     'P 1 21/c 1'
_symmetry_Int_Tables_number        14
_refine_ls_R_factor_all            .024
loop_
_symmetry_equiv_pos_site_id
_symmetry_equiv_pos_as_xyz
  1	'x, -y+.5, z+.5'
  2	'-x, -y, -z'
  3	'-x, y+.5, -z+.5'
  4	'x, y, z'
loop_
_atom_type_symbol
_atom_type_oxidation_number
As5+	5
Ba2+	2
H1+	1
O2-	-2
Zn2+	2
loop_
_atom_site_label
_atom_site_type_symbol
_atom_site_symmetry_multiplicity
_atom_site_Wyckoff_symbol
_atom_site_fract_x
_atom_site_fract_y
_atom_site_fract_z
_atom_site_occupancy
_atom_site_attached_hydrogens
_atom_site_U_iso_or_equiv
Ba1 Ba2+ 4 e 0.80009(4) 0.47359(5) 0.50402(4) 1. 0 0.0125(2) 
Zn1 Zn2+ 4 e 0.70492(7) 0.81435(9) 0.30709(8) 1. 0 0.0131(3) 
Zn2 Zn2+ 4 e 0.45242(7) 0.81311(9) 0.49839(8) 1. 0 0.0019(3) 
As1 As5+ 4 e 0.77480(6) 0.52613(8) 0.10273(7) 1. 0 0.0098(2) 
As2 As5+ 4 e 0.00389(6) 0.33291(9) 0.17743(7) 1. 0 0.0127(2) 
As3 As5+ 4 e 0.49271(6) 0.01315(9) 0.20306(7) 1. 0 0.0091(2) 
O1 O2- 4 e 0.7551(3) 0.5869(6) 0.2579(5) 1. 0 0.011(1) 
O2 O2- 4 e 0.7216(4) 0.3445(6) 0.0513(5) 1. 0 0.015(1) 
O3 O2- 4 e 0.7505(4) 0.6821(6) 0.0000(5) 1. 0 0.016(2) 
O4 O2- 4 e 0.9253(4) 0.4986(6) 0.1041(5) 1. 0 0.014(1) 
O5 O2- 4 e 0.1268(4) 0.4159(7) 0.2389(6) 1. 0 0.024(2) 
O6 O2- 4 e 0.9118(5) 0.2835(6) 0.3018(5) 1. 0 0.022(2) 
O7 O2- 4 e 0.0099(4) 0.1743(6) 0.0777(5) 1. 0 0.019(2) 
O8 O2- 4 e 0.4729(4) 0.0255(6) 0.3692(5) 1. 0 0.013(1) 
O9 O2- 4 e 0.6356(4) -.0232(6) 0.1872(5) 1. 0 0.012(1) 
O10 O2- 4 e 0.4108(4) 0.8679(6) 0.1226(5) 1. 0 0.015(1) 
O11 O2- 4 e 0.4549(4) 0.1984(5) 0.1339(5) 1. 0 0.011(1) 
H1 H1+ 4 e 0.9016 0.1826 0.05 1. 0 0.05(1) 

#End of data_81706-ICSD


