data_66582-ICSD
#?2014 by Fachinformationszentrum Karlsruhe, and the U.S. Secretary of 
#Commerce on behalf of the United States.  All rights reserved.
_database_code_ICSD                66582
_audit_creation_date               1994/01/19
_audit_update_record               2006/04/01
_chemical_name_systematic          'Copper(I) Silver Sulfide'
_chemical_formula_structural       'Cu Ag S'
_chemical_formula_sum              'Ag1 Cu1 S1'
_chemical_name_mineral             'Stromeyerite low'
_publ_section_title
;
A low-temperature structural phase transformation in Cu Ag S
;
loop_
_citation_id
_citation_journal_abbrev
_citation_year
_citation_journal_volume
_citation_page_first
_citation_page_last
_citation_journal_id_ASTM
primary 'Acta Crystallographica, Section B: Structural Science'
 1991 47 891 899 ASBSDK
2 'Golden Book of Phase Transitions, Wroclaw' 2002 1 1 123 GBOPT5
_publ_author_name
;
Baker, C.L.;Lincoln, F.J.;Johnson, A.W.S.
;
_cell_length_a                     4.0431(2)
_cell_length_b                     6.5910(3)
_cell_length_c                     7.9149(4)
_cell_angle_alpha                  90.
_cell_angle_beta                   90.
_cell_angle_gamma                  90.
_cell_volume                       210.92
_cell_formula_units_Z              4
_symmetry_space_group_name_H-M     'P m c 21'
_symmetry_Int_Tables_number        26
_refine_ls_R_factor_all            .0574
loop_
_symmetry_equiv_pos_site_id
_symmetry_equiv_pos_as_xyz
  1	'x, -y, z+.5'
  2	'-x, -y, z+.5'
  3	'-x, y, z'
  4	'x, y, z'
loop_
_atom_type_symbol
_atom_type_oxidation_number
Ag1+	1
Cu1+	1
S2-	-2
loop_
_atom_site_label
_atom_site_type_symbol
_atom_site_symmetry_multiplicity
_atom_site_Wyckoff_symbol
_atom_site_fract_x
_atom_site_fract_y
_atom_site_fract_z
_atom_site_occupancy
_atom_site_attached_hydrogens
_atom_site_U_iso_or_equiv
Ag1 Ag1+ 2 a 0 -.056(1) 0.5 1. 0 0.018 
Ag2 Ag1+ 2 b 0.5 0.427(1) 0.9636(8) 1. 0 0.015 
Cu1 Cu1+ 2 a 0 0.569(3) 0.720(5) 1. 0 0.0095 
Cu2 Cu1+ 2 b 0.5 0.075(3) 0.738(5) 1. 0 0.0081 
S1 S2- 2 a 0 0.202(5) 0.712(6) 1. 0 0.006 
S2 S2- 2 b 0.5 0.722(5) 0.768(6) 1. 0 0.074 

#End of data_66582-ICSD


