data_1282-ICSD
#?2014 by Fachinformationszentrum Karlsruhe, and the U.S. Secretary of 
#Commerce on behalf of the United States.  All rights reserved.
_database_code_ICSD                1282
_audit_creation_date               1980/01/01
_audit_update_record               2010/02/01
_chemical_name_systematic          'Barium Tecto-dialumodigermanate'
_chemical_formula_structural       'Ba (Al2 Ge2 O8)'
_chemical_formula_sum              'Al2 Ba1 Ge2 O8'
_publ_section_title
;
The structures of (Sr, Ba) (Al, Ga)2 (Si, Ge)2 O8. V. The crystal 
structure of the synthetic feldspar Ba Al2 Ge2 O8
;
loop_
_citation_id
_citation_journal_abbrev
_citation_year
_citation_journal_volume
_citation_page_first
_citation_page_last
_citation_journal_id_ASTM
primary 'Acta Crystallographica B (24,1968-38,1982)' 1977 33 3275 3282 ACBCAR
2 'Golden Book of Phase Transitions, Wroclaw' 2002 1 1 123 GBOPT5
_publ_author_name                  'Calleri, M.;Gazzoni, G.'
_cell_length_a                     8.799(5)
_cell_length_b                     13.371(6)
_cell_length_c                     14.727(6)
_cell_angle_alpha                  90.
_cell_angle_beta                   114.93(6)
_cell_angle_gamma                  90.
_cell_volume                       1571.21
_cell_formula_units_Z              8
_symmetry_space_group_name_H-M     'I 1 2/c 1'
_symmetry_Int_Tables_number        15
_refine_ls_R_factor_all            .036
loop_
_symmetry_equiv_pos_site_id
_symmetry_equiv_pos_as_xyz
  1	'-x, y, -z+.5'
  2	'-x, -y, -z'
  3	'x, -y, z+.5'
  4	'x, y, z'
  5	'-x+.5, y+.5, -z'
  6	'-x+.5, -y+.5, -z+.5'
  7	'x+.5, -y+.5, z'
  8	'x+.5, y+.5, z+.5'
loop_
_atom_type_symbol
_atom_type_oxidation_number
Al3+	3
Ba2+	2
Ge4+	4
O2-	-2
loop_
_atom_site_label
_atom_site_type_symbol
_atom_site_symmetry_multiplicity
_atom_site_Wyckoff_symbol
_atom_site_fract_x
_atom_site_fract_y
_atom_site_fract_z
_atom_site_occupancy
_atom_site_attached_hydrogens
_atom_site_B_iso_or_equiv
Ba1 Ba2+ 8 f 0.27765(4) 0.00042(2) 0.06631(2) 1. 0 0 
Ge1 Ge4+ 8 f 0.00478(7) 0.18105(4) 0.11073(4) 1. 0 0.5334 
Ge2 Ge4+ 8 f 0.69582(7) 0.11756(4) 0.67331(4) 1. 0 0.4812 
Al1 Al3+ 8 f 0.0045(1) 0.1809(1) 0.6143(1) 1. 0 0.2435 
Al2 Al3+ 8 f 0.6986(2) 0.1194(1) 0.1732(1) 1. 0 0.1906 
O1 O2- 8 f 0.0007(4) 0.1328(3) -.0014(2) 1. 0 0 
O2 O2- 8 f 0.6066(6) 0.0009(3) 0.1461(3) 1. 0 0 
O3 O2- 8 f 0.8216(5) 0.1320(3) 0.1081(3) 1. 0 0 
O4 O2- 8 f 0.8175(5) 0.1315(3) 0.6075(3) 1. 0 0 
O5 O2- 8 f 0.0158(5) 0.3092(3) 0.1227(3) 1. 0 0 
O6 O2- 8 f 0.0163(5) 0.3100(3) 0.6270(3) 1. 0 0 
O7 O2- 8 f 0.1876(5) 0.1263(3) 0.1971(3) 1. 0 0 
O8 O2- 8 f 0.1880(5) 0.1245(3) 0.6980(3) 1. 0 0 

#End of data_1282-ICSD


