data_96443-ICSD
#?2014 by Fachinformationszentrum Karlsruhe, and the U.S. Secretary of 
#Commerce on behalf of the United States.  All rights reserved.
_database_code_ICSD                96443
_audit_creation_date               2004/04/01
_audit_update_record               2012/02/01
_chemical_name_systematic
;
Dipotassium Dioxouranium(VI) Ditungstate
;
_chemical_formula_structural       'K2 (U O2) (W2 O8)'
_chemical_formula_sum              'K2 O10 U1 W2'
_publ_section_title
;
Synthesis and crystal structure of new uranyl tungstates M2 (U O2) 
(W2 O8) (M = Na, K), M2 (U O2)2 (W O5) O (M = K, Rb) and Na10 (U O2)8 
(W5 O20) O8
;
loop_
_citation_id
_citation_journal_abbrev
_citation_year
_citation_journal_volume
_citation_page_first
_citation_page_last
_citation_journal_id_ASTM
primary 'Journal of Solid State Chemistry' 2003 172 305 318 JSSCBI
_publ_author_name
;
Obbade, S.;Dion, C.;Bekaert, E.;Yagoubi, S.;Saadi, M.;Abraham, F.
;
_cell_length_a                     7.5884(16)
_cell_length_b                     8.6157(18)
_cell_length_c                     13.946(3)
_cell_angle_alpha                  90
_cell_angle_beta                   90
_cell_angle_gamma                  90
_cell_volume                       911.78
_cell_formula_units_Z              4
_symmetry_space_group_name_H-M     'P m c n'
_symmetry_Int_Tables_number        62
_refine_ls_R_factor_all            .029
loop_
_symmetry_equiv_pos_site_id
_symmetry_equiv_pos_as_xyz
  1	'x, -y+.5, z+.5'
  2	'-x+.5, y, z'
  3	'x+.5, y+.5, -z+.5'
  4	'-x, -y, -z'
  5	'-x, y+.5, -z+.5'
  6	'x+.5, -y, -z'
  7	'-x+.5, -y+.5, z+.5'
  8	'x, y, z'
loop_
_atom_type_symbol
_atom_type_oxidation_number
K1+	1
O2-	-2
U6+	6
W6+	6
loop_
_atom_site_label
_atom_site_type_symbol
_atom_site_symmetry_multiplicity
_atom_site_Wyckoff_symbol
_atom_site_fract_x
_atom_site_fract_y
_atom_site_fract_z
_atom_site_occupancy
_atom_site_attached_hydrogens
_atom_site_U_iso_or_equiv
U1 U6+ 4 c 0.250 0.52721(5) 0.49618(4) 1. 0 0.0104(1) 
W1 W6+ 8 d 0.00175(5) 0.85444(4) 0.42732(3) 1. 0 0.0114(1) 
K1 K1+ 4 c 0.750 0.1508(4) 0.3064(2) 1. 0 0.0189(7) 
K2 K1+ 4 c 0.250 0.1715(4) 0.2827(3) 1. 0 0.0310(8) 
O1 O2- 8 d -0.0290(8) 0.6508(7) 0.4844(6) 1. 0 0.0167(15) 
O2 O2- 4 c 0.750 0.8676(10) 0.4172(7) 1. 0 0.0136(19) 
O3 O2- 8 d 0.0353(8) 0.0652(7) 0.4224(5) 1. 0 0.0121(13) 
O4 O2- 4 c 0.250 0.8081(10) 0.4668(7) 1. 0 0.0147(20) 
O5 O2- 8 d 0.0329(9) 0.8087(8) 0.3077(5) 1. 0 0.0202(16) 
O6 O2- 4 c 0.250 0.5559(10) 0.6247(7) 1. 0 0.0179(21) 
O7 O2- 4 c 0.250 0.4934(10) 0.3680(7) 1. 0 0.0174(21) 

#End of data_96443-ICSD


