data_151815-ICSD
#?2014 by Fachinformationszentrum Karlsruhe, and the U.S. Secretary of 
#Commerce on behalf of the United States.  All rights reserved.
_database_code_ICSD                151815
_audit_creation_date               2006/10/01
_audit_update_record               2013/08/01
_chemical_name_systematic
;
Sodium Cobalt Dihydrogenborodiphosphate(V)
;
_chemical_formula_structural       'Na Co (H2 B P2 O9)'
_chemical_formula_sum              'H2 B1 Co1 Na1 O9 P2'
_publ_section_title
;
Synthesis, characterization and crystal structure of a new cobalt 
borophosphate, Na Co H2 B P2 O9
;
loop_
_citation_id
_citation_journal_abbrev
_citation_year
_citation_journal_volume
_citation_journal_issue
_citation_page_first
_citation_page_last
_citation_journal_id_ASTM
primary 'Advanced engineering materials' 2004 6 10 840 842 AENMFY
_publ_author_name                  'Guesmi, A.;Driss, A.'
_cell_length_a                     6.547(1)
_cell_length_b                     11.404(3)
_cell_length_c                     9.650(1)
_cell_angle_alpha                  90.
_cell_angle_beta                   107.37(1)
_cell_angle_gamma                  90.
_cell_volume                       687.63
_cell_formula_units_Z              4
_symmetry_space_group_name_H-M     'P 1 21/c 1'
_symmetry_Int_Tables_number        14
_refine_ls_R_factor_all            .0266
loop_
_symmetry_equiv_pos_site_id
_symmetry_equiv_pos_as_xyz
  1	'x, -y+.5, z+.5'
  2	'-x, -y, -z'
  3	'-x, y+.5, -z+.5'
  4	'x, y, z'
loop_
_atom_type_symbol
_atom_type_oxidation_number
B3+	3
Co2+	2
H1+	1
Na1+	1
O2-	-2
P5+	5
loop_
_atom_site_label
_atom_site_type_symbol
_atom_site_symmetry_multiplicity
_atom_site_Wyckoff_symbol
_atom_site_fract_x
_atom_site_fract_y
_atom_site_fract_z
_atom_site_occupancy
_atom_site_attached_hydrogens
_atom_site_U_iso_or_equiv
Co1 Co2+ 4 e 0.38309(5) 0.57638(3) 0.09890(3) 1. 0 0.0079(2) 
P1 P5+ 4 e 0.53104(9) 0.17324(5) 0.06677(7) 1. 0 0.0066(2) 
P2 P5+ 4 e 0.92392(10) 0.56244(5) 0.18235(7) 1. 0 0.0074(2) 
B1 B3+ 4 e 0.7310(4) 0.9541(2) 0.1504(3) 1. 0 0.0083(5) 
Na1 Na1+ 4 e 0.0741(2) 0.8135(1) 0.0561(1) 1. 0 0.0217(3) 
O1 O2- 4 e 0.6335(3) 0.2755(2) 0.0166(2) 1. 0 0.0127(4) 
O2 O2- 4 e 0.3960(3) 0.4433(2) 0.2487(2) 1. 0 0.0104(4) 
O3 O2- 4 e 0.0692(3) 0.6132(2) 0.1025(2) 1. 0 0.0116(4) 
O4 O2- 4 e 0.7001(3) 0.5293(2) 0.0880(2) 1. 0 0.0099(4) 
O5 O2- 4 e 0.4923(3) 0.1926(2) 0.2137(2) 1. 0 0.0104(4) 
O6 O2- 4 e 0.6932(3) 0.8564(2) 0.0459(2) 1. 0 0.0100(4) 
O7 O2- 4 e 0.9669(3) 0.9528(2) 0.2254(2) 1. 0 0.0103(4) 
O8 O2- 4 e 0.6819(3) 0.0666(2) 0.0704(2) 1. 0 0.0091(4) 
O9 O2- 4 e 0.1021(3) 0.1566(2) 0.2036(2) 1. 0 0.0153(4) 
H1 H1+ 4 e 0.422(8) 0.378(2) 0.230(5) 1. 0 0.050 
H2 H1+ 4 e 0.225(3) 0.163(4) 0.206(5) 1. 0 0.050 

#End of data_151815-ICSD


