data_166890-ICSD
#?2014 by Fachinformationszentrum Karlsruhe, and the U.S. Secretary of 
#Commerce on behalf of the United States.  All rights reserved.
_database_code_ICSD                166890
_audit_creation_date               2010/08/01
_chemical_name_systematic          'Trisilver Iron(III) Bis(vanadate)'
_chemical_formula_structural       'Ag3 Fe (V O4)2'
_chemical_formula_sum              'Ag3 Fe1 O8 V2'
_publ_section_title
;
Ag3 Fe (V O4)2 and Ag Fe V2 O7: synthesis, structure and 
electrochemical characteristics of two new silver iron(III) vanadates
;
loop_
_citation_id
_citation_journal_abbrev
_citation_year
_citation_journal_volume
_citation_journal_issue
_citation_page_first
_citation_page_last
_citation_journal_id_ASTM
primary 'Chemistry of Materials' 2010 22 3 1149 1154 CMATEX
_publ_author_name
;
Becht, G.A.;Vaughey, J.T.;Hwu Shioujyh
;
_cell_length_a                     9.768(2)
_cell_length_b                     5.1552(10)
_cell_length_c                     14.316(3)
_cell_angle_alpha                  90.00
_cell_angle_beta                   93.80(3)
_cell_angle_gamma                  90.00
_cell_volume                       719.31
_cell_formula_units_Z              4
_symmetry_space_group_name_H-M     'C 1 2/c 1'
_symmetry_Int_Tables_number        15
_refine_ls_R_factor_all            .0316
loop_
_symmetry_equiv_pos_site_id
_symmetry_equiv_pos_as_xyz
  1	'x, -y, z+.5'
  2	'-x, -y, -z'
  3	'-x, y, -z+.5'
  4	'x, y, z'
  5	'x+.5, -y+.5, z+.5'
  6	'-x+.5, -y+.5, -z'
  7	'-x+.5, y+.5, -z+.5'
  8	'x+.5, y+.5, z'
loop_
_atom_type_symbol
_atom_type_oxidation_number
Ag1+	1
Fe3+	3
O2-	-2
V5+	5
loop_
_atom_site_label
_atom_site_type_symbol
_atom_site_symmetry_multiplicity
_atom_site_Wyckoff_symbol
_atom_site_fract_x
_atom_site_fract_y
_atom_site_fract_z
_atom_site_occupancy
_atom_site_attached_hydrogens
_atom_site_U_iso_or_equiv
Ag1 Ag1+ 4 e 1.0000 0.04311(18) 0.7500 1 0 0.0295(3) 
Ag2 Ag1+ 8 f 0.83914(6) 0.55752(12) 0.85988(5) 1 0 0.0227(3) 
Fe1 Fe3+ 4 a 1.0000 0.0000 0.5000 1 0 0.0112(4) 
V1 V5+ 8 f 0.66777(12) 1.0361(2) 0.89338(9) 1 0 0.0101(4) 
O1 O2- 8 f 0.6669(5) 0.8824(13) 0.7899(4) 1 0 0.0224(13) 
O2 O2- 8 f 0.6074(5) 0.8204(10) 0.9703(3) 1 0 0.0153(11) 
O3 O2- 8 f 0.5604(5) 1.3097(10) 0.8854(3) 1 0 0.0151(11) 
O4 O2- 8 f 0.8361(4) 1.1267(11) 0.9249(4) 1 0 0.0158(11) 

loop_
_atom_site_aniso_label
_atom_site_aniso_type_symbol
_atom_site_aniso_U_11
_atom_site_aniso_U_22
_atom_site_aniso_U_33
_atom_site_aniso_U_12
_atom_site_aniso_U_13
_atom_site_aniso_U_23
Ag1 Ag1+ 0.0443(6) 0.0218(6) 0.0205(6) 0.000 -0.0123(4) 0.000
Ag2 Ag1+ 0.0281(4) 0.0178(4) 0.0215(5) -0.0010(2) -0.0027(3) -0.0003(3)
Fe1 Fe3+ 0.0095(7) 0.0119(7) 0.0120(9) 0.0003(5) -0.0003(6) -0.0004(6)
V1 V5+ 0.0089(6) 0.0111(7) 0.0102(8) 0.0008(4) -0.0001(5) 0.0000(5)
O1 O2- 0.030(3) 0.024(3) 0.013(3) 0.004(2) 0.001(2) 0.000(3)
O2 O2- 0.013(2) 0.019(3) 0.014(3) 0.006(2) -0.0009(19) 0.001(2)
O3 O2- 0.019(2) 0.014(3) 0.012(3) 0.006(2) -0.005(2) 0.004(2)
O4 O2- 0.008(2) 0.018(3) 0.021(3) 0.0004(19) -0.0009(19) 0.005(2)
#End of data_166890-ICSD


