data_86248-ICSD
#?2014 by Fachinformationszentrum Karlsruhe, and the U.S. Secretary of 
#Commerce on behalf of the United States.  All rights reserved.
_database_code_ICSD                86248
_audit_creation_date               1999/11/30
_chemical_name_systematic          'Strontium Magnesium Fluoride'
_chemical_formula_structural       'Sr Mg F4'
_chemical_formula_sum              'F4 Mg1 Sr1'
_publ_section_title
;
Crystal structures of Eu Mg F4, Sm Mg F4 and Sr Mg F4
;
loop_
_citation_id
_citation_journal_abbrev
_citation_year
_citation_journal_volume
_citation_page_first
_citation_page_last
_citation_journal_id_ASTM
primary 'Rare Earths in Modern Science and Technology' 1982 3 329 334 REMTDV
_publ_author_name                  'Banks, E.;Jenkins, R.;Post, B.'
_cell_length_a                     3.917(2)
_cell_length_b                     14.451(8)
_cell_length_c                     5.637(3)
_cell_angle_alpha                  90.
_cell_angle_beta                   90.
_cell_angle_gamma                  90.
_cell_volume                       319.08
_cell_formula_units_Z              4
_symmetry_space_group_name_H-M     'C m c m'
_symmetry_Int_Tables_number        63
loop_
_symmetry_equiv_pos_site_id
_symmetry_equiv_pos_as_xyz
  1	'-x, y, -z+.5'
  2	'-x, -y, z+.5'
  3	'-x, y, z'
  4	'-x, -y, -z'
  5	'x, -y, z+.5'
  6	'x, y, -z+.5'
  7	'x, -y, -z'
  8	'x, y, z'
  9	'-x+.5, y+.5, -z+.5'
 10	'-x+.5, -y+.5, z+.5'
 11	'-x+.5, y+.5, z'
 12	'-x+.5, -y+.5, -z'
 13	'x+.5, -y+.5, z+.5'
 14	'x+.5, y+.5, -z+.5'
 15	'x+.5, -y+.5, -z'
 16	'x+.5, y+.5, z'
loop_
_atom_type_symbol
_atom_type_oxidation_number
F1-	-1
Mg2+	2
Sr2+	2
loop_
_atom_site_label
_atom_site_type_symbol
_atom_site_symmetry_multiplicity
_atom_site_Wyckoff_symbol
_atom_site_fract_x
_atom_site_fract_y
_atom_site_fract_z
_atom_site_occupancy
_atom_site_attached_hydrogens
Sr1 Sr2+ 4 c 0 0.656 0.25 1. 0 
Mg1 Mg2+ 4 c 0 0.067 0.75 1. 0 
F1 F1- 4 c 0 0.606 0.75 1. 0 
F2 F1- 8 f 0 0.825 0.052 1. 0 
F3 F1- 4 a 0 0 0.5 1. 0 

#End of data_86248-ICSD


