data_281181-ICSD
#?2014 by Fachinformationszentrum Karlsruhe, and the U.S. Secretary of 
#Commerce on behalf of the United States.  All rights reserved.
_database_code_ICSD                281181
_audit_creation_date               2003/10/01
_chemical_name_systematic
;
Potassium Bis((trifluoromethyl)sulfonyl)imide
;
_chemical_formula_structural       'K ((C F3)2 (S O2)2 N)'
_chemical_formula_sum              'C2 F6 K1 N1 O4 S2'
_publ_section_title
;
Synthesis and structures of alkali metal salts of 
bis((trifluoromethyl) sulfonyl) imide
;
loop_
_citation_id
_citation_journal_abbrev
_citation_year
_citation_journal_volume
_citation_page_first
_citation_page_last
_citation_journal_id_ASTM
primary 'Solid State Sciences' 2002 4 1535 1545 SSSCFJ
_publ_author_name
;
Xue, L.-X.;Padgett, C.W.;DesMarteau, D.D.;Pennington, W.T.
;
_cell_length_a                     22.346(7)
_cell_length_b                     13.541(3)
_cell_length_c                     12.860(3)
_cell_angle_alpha                  90.
_cell_angle_beta                   90.
_cell_angle_gamma                  90.
_cell_volume                       3891.27
_cell_formula_units_Z              16
_symmetry_space_group_name_H-M     'P b c n'
_symmetry_Int_Tables_number        60
_refine_ls_R_factor_all            .0478
loop_
_symmetry_equiv_pos_site_id
_symmetry_equiv_pos_as_xyz
  1	'x, -y, z+.5'
  2	'-x+.5, y+.5, z'
  3	'x+.5, y+.5, -z+.5'
  4	'-x, -y, -z'
  5	'-x, y, -z+.5'
  6	'x+.5, -y+.5, -z'
  7	'-x+.5, -y+.5, z+.5'
  8	'x, y, z'
loop_
_atom_type_symbol
_atom_type_oxidation_number
C4+	4
F1-	-1
K1+	1
N3-	-3
O2-	-2
S4+	4
loop_
_atom_site_label
_atom_site_type_symbol
_atom_site_symmetry_multiplicity
_atom_site_Wyckoff_symbol
_atom_site_fract_x
_atom_site_fract_y
_atom_site_fract_z
_atom_site_occupancy
_atom_site_attached_hydrogens
_atom_site_U_iso_or_equiv
K1 K1+ 8 d 0.25583(9) 0.56360(12) 0.13119(12) 1. 0 0.0431(5) 
K2 K1+ 8 d 0.25163(9) 0.17901(12) -.17229(12) 1. 0 0.0445(5) 
S1 S4+ 8 d 0.34445(9) 0.31345(15) 0.10916(16) 1. 0 0.0390(5) 
S2 S4+ 8 d 0.33971(10) 0.40003(16) -.09056(17) 1. 0 0.0440(6) 
S3 S4+ 8 d 0.15907(10) 0.47309(15) -.10461(17) 1. 0 0.0419(6) 
S4 S4+ 8 d 0.16576(9) 0.31107(16) 0.03219(16) 1. 0 0.0423(5) 
F1 F1- 8 d 0.4580(2) 0.3577(4) 0.1157(5) 1. 0 0.093(2) 
F2 F1- 8 d 0.4262(2) 0.2756(4) 0.2471(4) 1. 0 0.0851(19) 
F3 F1- 8 d 0.4400(3) 0.2034(4) 0.1000(5) 1. 0 0.101(2) 
F4 F1- 8 d 0.4180(3) 0.4841(6) -.2076(6) 1. 0 0.136(3) 
F5 F1- 8 d 0.4406(3) 0.4835(5) -.0447(6) 1. 0 0.116(3) 
F6 F1- 8 d 0.4494(3) 0.3522(5) -.1381(5) 1. 0 0.112(2) 
F7 F1- 8 d 0.0769(3) 0.5919(5) -.1671(5) 1. 0 0.108(2) 
F8 F1- 8 d 0.0668(4) 0.4484(6) -.2228(8) 1. 0 0.166(4) 
F9 F1- 8 d 0.0457(3) 0.4835(8) -.0661(8) 1. 0 0.195(5) 
F10 F1- 8 d 0.0590(3) 0.3620(6) 0.0935(6) 1. 0 0.139(3) 
F11 F1- 8 d 0.0922(3) 0.2263(6) 0.1548(5) 1. 0 0.147(3) 
F12 F1- 8 d 0.0617(3) 0.2346(6) -.0016(6) 1. 0 0.138(3) 
O1 O2- 8 d 0.3321(2) 0.4069(4) 0.1566(4) 1. 0 0.0498(16) 
O2 O2- 8 d 0.3115(2) 0.2304(4) 0.1494(4) 1. 0 0.0521(16) 
O3 O2- 8 d 0.3158(2) 0.3623(4) -.1864(4) 1. 0 0.0543(16) 
O4 O2- 8 d 0.3129(3) 0.4887(4) -.0504(5) 1. 0 0.0624(18) 
O5 O2- 8 d 0.1919(3) 0.4884(4) -.1995(5) 1. 0 0.0668(19) 
O6 O2- 8 d 0.1724(3) 0.5388(4) -.0212(4) 1. 0 0.0654(19) 
O7 O2- 8 d 0.1906(3) 0.3710(4) 0.1138(4) 1. 0 0.0650(19) 
O8 O2- 8 d 0.1924(2) 0.2158(4) 0.0157(5) 1. 0 0.0610(18) 
N1 N3- 8 d 0.3440(3) 0.3108(4) -.0129(4) 1. 0 0.0422(16) 
N2 N3- 8 d 0.1599(3) 0.3593(4) -.0793(5) 1. 0 0.076(2) 
C1 C4+ 8 d 0.4224(4) 0.2849(7) 0.1435(8) 1. 0 0.060(3) 
C2 C4+ 8 d 0.4178(5) 0.4325(8) -.1211(10) 1. 0 0.073(3) 
C3 C4+ 8 d 0.0805(5) 0.4988(9) -.1395(11) 1. 0 0.082(4) 
C4 C4+ 8 d 0.0889(5) 0.2807(10) 0.0732(9) 1. 0 0.084(4) 

loop_
_atom_site_aniso_label
_atom_site_aniso_type_symbol
_atom_site_aniso_U_11
_atom_site_aniso_U_22
_atom_site_aniso_U_33
_atom_site_aniso_U_12
_atom_site_aniso_U_13
_atom_site_aniso_U_23
K1 K1+ 0.0563(12) 0.0320(9) 0.0412(10) 0.0041(9) 0.0020(11) 0.0023(10)
K2 K1+ 0.0691(13) 0.0334(9) 0.0309(9) 0.0090(11) -0.0088(10) -0.0025(9)
S1 S4+ 0.0341(11) 0.0365(11) 0.0466(12) -0.0019(11) -0.0023(11) -0.0029(12)
S2 S4+ 0.0400(14) 0.0469(14) 0.0451(14) 0.0029(12) -0.0025(12) -0.0029(11)
S3 S4+ 0.0421(13) 0.0397(13) 0.0440(13) 0.0041(11) -0.0018(12) 0.0012(11)
S4 S4+ 0.0413(13) 0.0422(12) 0.0434(12) 0.0009(12) -0.0091(11) 0.0019(12)
F1 F1- 0.040(3) 0.116(5) 0.122(5) -0.024(3) -0.014(4) 0.035(4)
F2 F1- 0.071(4) 0.120(5) 0.064(4) 0.010(4) -0.014(3) 0.024(4)
F3 F1- 0.092(5) 0.091(5) 0.122(5) 0.050(4) 0.006(4) -0.005(4)
F4 F1- 0.077(5) 0.196(8) 0.134(6) -0.022(5) -0.004(5) 0.103(6)
F5 F1- 0.097(5) 0.118(6) 0.131(6) -0.064(5) -0.041(5) 0.019(5)
F6 F1- 0.061(4) 0.160(7) 0.114(6) 0.031(4) 0.025(4) 0.027(5)
F7 F1- 0.098(5) 0.092(5) 0.133(6) 0.034(4) -0.027(4) 0.023(5)
F8 F1- 0.141(8) 0.137(7) 0.22(1) 0.023(6) -0.116(8) -0.042(7)
F9 F1- 0.072(5) 0.260(11) 0.255(11) 0.073(6) 0.069(7) 0.172(10)
F10 F1- 0.075(5) 0.215(9) 0.127(7) 0.058(6) 0.031(5) 0.031(6)
F11 F1- 0.105(6) 0.204(8) 0.132(6) -0.023(5) 0.002(5) 0.113(6)
F12 F1- 0.082(5) 0.191(8) 0.141(7) -0.075(5) -0.037(5) 0.034(6)
O1 O2- 0.051(4) 0.044(3) 0.055(4) 0.010(3) -0.008(3) -0.017(3)
O2 O2- 0.052(4) 0.049(4) 0.055(4) -0.015(3) 0.003(3) 0.009(3)
O3 O2- 0.060(4) 0.065(4) 0.039(3) 0.002(3) -0.011(3) -0.012(3)
O4 O2- 0.082(5) 0.046(3) 0.059(4) 0.021(3) 0.000(4) -0.004(3)
O5 O2- 0.084(5) 0.065(4) 0.052(4) 0.005(4) 0.031(4) 0.017(3)
O6 O2- 0.096(5) 0.038(3) 0.062(4) -0.001(3) -0.019(4) -0.013(3)
O7 O2- 0.093(5) 0.058(4) 0.044(4) -0.004(4) -0.025(4) -0.015(3)
O8 O2- 0.062(4) 0.039(3) 0.083(5) 0.014(3) -0.013(4) 0.002(3)
N1 N3- 0.057(4) 0.029(3) 0.041(4) 0.008(4) -0.003(4) -0.001(3)
N2 N3- 0.093(5) 0.063(4) 0.072(5) -0.006(4) -0.011(4) -0.001(4)
C1 C4+ 0.044(7) 0.063(7) 0.074(8) 0.012(5) -0.001(6) 0.004(6)
C2 C4+ 0.061(8) 0.077(8) 0.081(9) -0.008(6) -0.015(7) 0.033(8)
C3 C4+ 0.068(9) 0.072(8) 0.106(10) 0.029(7) -0.014(8) 0.019(8)
C4 C4+ 0.053(8) 0.127(12) 0.072(9) -0.002(7) -0.010(7) 0.054(8)
#End of data_281181-ICSD


