data_91525-ICSD
#?2014 by Fachinformationszentrum Karlsruhe, and the U.S. Secretary of 
#Commerce on behalf of the United States.  All rights reserved.
_database_code_ICSD                91525
_audit_creation_date               2002/10/01
_audit_update_record               2009/02/01
_chemical_name_systematic
;
Decacalcium Potassium Heptakis(phosphate(V))
;
_chemical_formula_structural       'Ca10 K (P O4)7'
_chemical_formula_sum              'Ca10 K1 O28 P7'
_publ_section_title
;
Crystal structure of calcium alkali metal phosphates Ca10 M (P O4)7 
(M = Li, Na, K)
;
loop_
_citation_id
_citation_journal_abbrev
_citation_year
_citation_journal_volume
_citation_journal_issue
_citation_page_first
_citation_page_last
_citation_journal_id_ASTM
primary Kristallografiya 2000 45 1 19 26 KRISAJ
2 'Crystallography Reports' 2000 45- 13 20 CYSTE3
_publ_author_name
;
Morozov, V.A.;Belik, V.A.;Kotov, R.N.;Presniakov, I.A.;Khasanov, 
S.S.;Lazoryak, B.I.
;
_cell_length_a                     10.4729(1)
_cell_length_b                     10.4729(1)
_cell_length_c                     37.27869(10)
_cell_angle_alpha                  90.
_cell_angle_beta                   90.
_cell_angle_gamma                  120.
_cell_volume                       3540.99
_cell_formula_units_Z              6
_symmetry_space_group_name_H-M     'R 3 c H'
_symmetry_Int_Tables_number        161
_refine_ls_R_factor_all            .012
loop_
_symmetry_equiv_pos_site_id
_symmetry_equiv_pos_as_xyz
  1	'-x+y, y, z+.5'
  2	'x, x-y, z+.5'
  3	'-y, -x, z+.5'
  4	'-x+y, -x, z'
  5	'-y, x-y, z'
  6	'x, y, z'
  7	'-x+y+.6666, y+.3333, z+.8333'
  8	'-x+y+.3333, y+.6666, z+.1666'
  9	'x+.6666, x-y+.3333, z+.8333'
 10	'x+.3333, x-y+.6666, z+.1666'
 11	'-y+.6666, -x+.3333, z+.8333'
 12	'-y+.3333, -x+.6666, z+.1666'
 13	'-x+y+.6666, -x+.3333, z+.3333'
 14	'-x+y+.3333, -x+.6666, z+.6666'
 15	'-y+.6666, x-y+.3333, z+.3333'
 16	'-y+.3333, x-y+.6666, z+.6666'
 17	'x+.6666, y+.3333, z+.3333'
 18	'x+.3333, y+.6666, z+.6666'
loop_
_atom_type_symbol
_atom_type_oxidation_number
Ca2+	2
K1+	1
O2-	-2
P5+	5
loop_
_atom_site_label
_atom_site_type_symbol
_atom_site_symmetry_multiplicity
_atom_site_Wyckoff_symbol
_atom_site_fract_x
_atom_site_fract_y
_atom_site_fract_z
_atom_site_occupancy
_atom_site_attached_hydrogens
_atom_site_B_iso_or_equiv
Ca1 Ca2+ 18 b 0.726(2) 0.858(2) 0.432(1) 1. 0 0.2(1) 
Ca2 Ca2+ 18 b 0.615(2) 0.8233(8) 0.2337(7) 1. 0 0.5(4) 
Ca3 Ca2+ 18 b 0.118(2) 0.265(1) 0.3265(8) 1. 0 1.2(5) 
K1 K1+ 6 a 0 0 0.1822 1. 0 4.0(8) 
Ca5 Ca2+ 6 a 0 0 0 1. 0 0.2(4) 
P1 P5+ 6 a 0 0 0.269(1) 1. 0 1.5(6) 
P2 P5+ 18 b 0.688(2) 0.865(2) 0.1359(9) 1. 0 1.5(7) 
P3 P5+ 18 b 0.655(3) 0.849(2) 0.0335(9) 1. 0 0.2(2) 
O1 O2- 6 a 0 0 0.312(2) 1. 0 0.4(2) 
O2 O2- 18 b 0.010(4) 0.864(3) 0.256(3) 1. 0 0.7(2) 
O3 O2- 18 b 0.717(4) 0.906(4) 0.176(2) 1. 0 1.0(2) 
O4 O2- 18 b 0.766(7) 0.778(6) 0.124(1) 1. 0 0.6(2) 
O5 O2- 18 b 0.729(5) 0.012(4) 0.115(1) 1. 0 0.6(2) 
O6 O2- 18 b 0.520(5) 0.760(5) 0.129(1) 1. 0 0.6(2) 
O7 O2- 18 b 0.596(5) 0.954(5) 0.046(1) 1. 0 0.8(2) 
O8 O2- 18 b 0.571(6) 0.692(5) 0.053(1) 1. 0 1.0(2) 
O9 O2- 18 b 0.820(4) 0.918(6) 0.0472(1) 1. 0 0.4(2) 
O10 O2- 18 b 0.634(3) 0.832(4) 0.993(1) 1. 0 0.7(2) 

#End of data_91525-ICSD


