data_426335-ICSD
#?2014 by Fachinformationszentrum Karlsruhe, and the U.S. Secretary of 
#Commerce on behalf of the United States.  All rights reserved.
_database_code_ICSD                426335
_audit_creation_date               2014/02/01
_chemical_name_systematic
;
Bis(heptaaqua Calcium) Hexatungsten Hexaoxo Dodecachloro Chloride
;
_chemical_formula_structural       '(Ca (H2 O)7)2 (W6 O6 Cl12) Cl'
_chemical_formula_sum              'H28 Ca2 Cl13 O20 W6'
_publ_section_title
;
Tungsten Oxychloride Compounds Containing [W6 O6 Cl12]n- (n = 2, 3) 
Clusters
;
loop_
_citation_id
_citation_journal_abbrev
_citation_year
_citation_journal_volume
_citation_journal_issue
_citation_page_first
_citation_page_last
_citation_journal_id_ASTM
primary 'Zeitschrift fuer Anorganische und Allgemeine Chemie (1950) (DE)'
 2013 639 14 2637 2642 ZAACAB
_publ_author_name
;
Hummel, Thorsten;Glaser, Jochen;Stroebele, Markus;Meyer, H.-Juergen
;
_cell_length_a                     11.8865(6)
_cell_length_b                     14.1099(7)
_cell_length_c                     22.7944(11)
_cell_angle_alpha                  90.00
_cell_angle_beta                   90.00
_cell_angle_gamma                  90.00
_cell_volume                       3823.02
_cell_formula_units_Z              4
_symmetry_space_group_name_H-M     'P c c n'
_symmetry_Int_Tables_number        56
_refine_ls_R_factor_all            .0346
loop_
_symmetry_equiv_pos_site_id
_symmetry_equiv_pos_as_xyz
  1	'x, -y+.5, z+.5'
  2	'-x+.5, y, z+.5'
  3	'x+.5, y+.5, -z'
  4	'-x, -y, -z'
  5	'-x, y+.5, -z+.5'
  6	'x+.5, -y, -z+.5'
  7	'-x+.5, -y+.5, z'
  8	'x, y, z'
loop_
_atom_type_symbol
_atom_type_oxidation_number
Ca2+	2
Cl1-	-1
H1+	1
O2-	-2
W3.5+	3.5
loop_
_atom_site_label
_atom_site_type_symbol
_atom_site_symmetry_multiplicity
_atom_site_Wyckoff_symbol
_atom_site_fract_x
_atom_site_fract_y
_atom_site_fract_z
_atom_site_occupancy
_atom_site_attached_hydrogens
_atom_site_U_iso_or_equiv
W1 W3.5+ 8 e 0.44631(2) 0.086341(19) 0.438085(11) 1 0 0.00657(7) 
W2 W3.5+ 8 e 0.65716(2) 0.04570(2) 0.494035(11) 1 0 0.00664(7) 
W3 W3.5+ 8 e 0.53815(2) -0.089922(19 0.436847(11) 1 0 0.00691(7) 
Cl1 Cl1- 8 e 0.85413(13) 0.08929(13) 0.48793(8) 1 0 0.0135(3) 
Cl2 Cl1- 8 e 0.37145(13) 0.18150(13) 0.35812(7) 1 0 0.0120(3) 
Cl3 Cl1- 8 e 0.58842(15) -0.19018(13) 0.35365(7) 1 0 0.0148(3) 
Cl4 Cl1- 8 e 0.62477(13) 0.16916(12) 0.41981(7) 1 0 0.0105(3) 
Cl5 Cl1- 8 e 0.64182(13) 0.17420(12) 0.56637(7) 1 0 0.0116(3) 
Cl6 Cl1- 8 e 0.39937(14) 0.22204(12) 0.50105(7) 1 0 0.0107(3) 
Cl7 Cl1- 4 d 0.7500 0.2500 0.24133(13) 1 0 0.0190(5) 
O1 O2- 8 e 0.4841(4) -0.0033(4) 0.3785(2) 1 0 0.0100(10) 
O2 O2- 8 e 0.2964(4) 0.0392(4) 0.4456(2) 1 0 0.0089(9) 
O3 O2- 8 e 0.6881(4) -0.0429(4) 0.4327(2) 1 0 0.0086(9) 
Ca1 Ca2+ 8 e 0.50554(11) -0.00607(10) 0.18708(6) 1 0 0.0099(3) 
O4 O2- 8 e 0.5937(4) -0.0942(4) 0.1108(2) 1 0 0.0148(11) 
H1 H1+ 8 e 0.6199 -0.1601 0.1235 1 0 0.018 
H2 H1+ 8 e 0.6531 -0.0793 0.0846 1 0 0.018 
O5 O2- 8 e 0.3877(5) -0.0471(4) 0.2714(2) 1 0 0.0196(12) 
H3 H1+ 8 e 0.3163 -0.0592 0.2636 1 0 0.024 
H4 H1+ 8 e 0.4249 -0.0792 0.3028 1 0 0.024 
O6 O2- 8 e 0.3786(5) -0.1280(4) 0.1557(2) 1 0 0.0189(12) 
H5 H1+ 8 e 0.3654 -0.1321 0.1179 1 0 0.023 
H6 H1+ 8 e 0.3373 -0.1632 0.1681 1 0 0.023 
O7 O2- 8 e 0.5232(5) 0.1286(4) 0.2491(3) 1 0 0.0238(13) 
H7 H1+ 8 e 0.4917 0.1301 0.2882 1 0 0.029 
H8 H1+ 8 e 0.5685 0.1752 0.2512 1 0 0.029 
O8 O2- 8 e 0.6641(5) -0.0602(5) 0.2410(3) 1 0 0.0297(15) 
H9 H1+ 8 e 0.7423 -0.0643 0.2457 1 0 0.036 
H10 H1+ 8 e 0.6360 -0.0912 0.2750 1 0 0.036 
O9 O2- 8 e 0.3568(6) 0.0853(5) 0.1497(3) 1 0 0.0382(19) 
H11 H1+ 8 e 0.3562 0.1484 0.1481 1 0 0.046 
H12 H1+ 8 e 0.3099 0.0792 0.1169 1 0 0.046 
O10 O2- 8 e 0.6170(7) 0.1062(5) 0.1334(3) 1 0 0.042(2) 
H13 H1+ 8 e 0.6209 0.1040 0.0910 1 0 0.050 
H14 H1+ 8 e 0.6700 0.1500 0.1500 1 0 0.050 

loop_
_atom_site_aniso_label
_atom_site_aniso_type_symbol
_atom_site_aniso_U_11
_atom_site_aniso_U_22
_atom_site_aniso_U_33
_atom_site_aniso_U_12
_atom_site_aniso_U_13
_atom_site_aniso_U_23
W1 W3.5+ 0.00634(11) 0.00472(13) 0.00864(13) 0.00026(9) -0.00038(9) 
0.00057(9)
W2 W3.5+ 0.00510(11) 0.00535(13) 0.00946(12) -0.00068(9) -0.00024(9) 
0.00046(10)
W3 W3.5+ 0.00753(11) 0.00472(13) 0.00848(13) 0.00021(9) 0.00044(9) 
-0.00073(10)
Cl1 Cl1- 0.0072(7) 0.0162(9) 0.0171(8) -0.0026(6) -0.0002(6) 0.0025(7)
Cl2 Cl1- 0.0123(7) 0.0096(8) 0.0139(7) 0.0013(6) -0.0022(6) 0.0041(6)
Cl3 Cl1- 0.0213(8) 0.0103(8) 0.0129(8) 0.0022(7) 0.0037(6) -0.0039(6)
Cl4 Cl1- 0.0085(6) 0.0090(8) 0.0141(7) -0.0009(6) -0.0007(5) 0.0028(6)
Cl5 Cl1- 0.0113(7) 0.0089(8) 0.0145(7) -0.0031(6) -0.0007(6) -0.0024(6)
Cl6 Cl1- 0.0132(7) 0.0058(7) 0.0131(7) 0.0021(6) 0.0012(6) 0.0003(6)
Cl7 Cl1- 0.0129(10) 0.0124(12) 0.0319(14) 0.0003(10) 0.000 0.000
O1 O2- 0.010(2) 0.011(3) 0.009(2) -0.001(2) 0.0000(17) -0.0016(19)
O2 O2- 0.0045(19) 0.008(2) 0.014(2) 0.0009(18) -0.0006(17) 0.0022(19)
O3 O2- 0.0037(19) 0.013(3) 0.009(2) 0.0007(18) 0.0012(16) 0.002(2)
Ca1 Ca2+ 0.0079(5) 0.0103(7) 0.0114(6) -0.0006(5) 0.0006(5) 0.0004(5)
O4 O2- 0.014(2) 0.010(3) 0.020(3) -0.002(2) 0.007(2) -0.001(2)
O5 O2- 0.021(3) 0.024(3) 0.014(2) -0.007(2) 0.001(2) 0.001(2)
O6 O2- 0.022(3) 0.017(3) 0.017(3) -0.013(2) 0.004(2) -0.003(2)
O7 O2- 0.025(3) 0.019(3) 0.028(3) -0.010(3) 0.009(2) -0.012(3)
O8 O2- 0.015(3) 0.042(4) 0.032(3) -0.003(3) -0.005(2) 0.018(3)
O9 O2- 0.044(4) 0.017(3) 0.053(4) 0.005(3) -0.040(4) -0.005(3)
O10 O2- 0.076(5) 0.012(3) 0.037(4) -0.018(3) 0.037(4) -0.007(3)
#End of data_426335-ICSD


