data_262127-ICSD
#?2014 by Fachinformationszentrum Karlsruhe, and the U.S. Secretary of 
#Commerce on behalf of the United States.  All rights reserved.
_database_code_ICSD                262127
_audit_creation_date               2012/02/01
_chemical_name_systematic          Lithiomarsturite
_chemical_formula_structural       'Li Ca2 Mn2 (Si5 O14 (O H))'
_chemical_formula_sum              'H1 Ca2 Li1 Mn2 O15 Si5'
_chemical_name_mineral             'Marsturite (Li bearing)'
_publ_section_title
;
Lithiomarsturite, Li Ca2 Mn2 Si5 O14 (O H)
;
loop_
_citation_id
_citation_journal_abbrev
_citation_year
_citation_journal_volume
_citation_journal_issue
_citation_page_first
_citation_page_last
_citation_journal_id_ASTM
primary 'Acta Crystallographica, Section E. Structure Reports Online'
 2011 67 12 i73 i73 ACSEBH
_publ_author_name
;
Yang Hexiong;Downs, R.T.;Yang Yongbo W.
;
_cell_length_a                     7.6467(3)
_cell_length_b                     11.7315(6)
_cell_length_c                     6.8100(3)
_cell_angle_alpha                  91.874(4)
_cell_angle_beta                   94.465(3)
_cell_angle_gamma                  105.933(3)
_cell_volume                       584.72
_cell_formula_units_Z              2
_symmetry_space_group_name_H-M     'P -1'
_symmetry_Int_Tables_number        2
_refine_ls_R_factor_all            .0327
loop_
_symmetry_equiv_pos_site_id
_symmetry_equiv_pos_as_xyz
  1	'-x, -y, -z'
  2	'x, y, z'
loop_
_atom_type_symbol
_atom_type_oxidation_number
Ca2+	2
H1+	1
Li1+	1
Mn2+	2
O2-	-2
Si4+	4
loop_
_atom_site_label
_atom_site_type_symbol
_atom_site_symmetry_multiplicity
_atom_site_Wyckoff_symbol
_atom_site_fract_x
_atom_site_fract_y
_atom_site_fract_z
_atom_site_occupancy
_atom_site_attached_hydrogens
_atom_site_U_iso_or_equiv
Li1 Li1+ 2 i 0.6570(12) 0.1276(10) 0.3338(12) 1 0 0.067(3) 
Ca1 Ca2+ 2 i 0.80601(7) 0.94132(4) 0.13944(7) 1 0 0.01028(10) 
Ca2 Ca2+ 2 i 0.23393(7) 0.52331(5) 0.28673(7) 1 0 0.01254(10) 
Mn1 Mn2+ 2 i 0.59386(5) 0.64710(3) 0.06116(5) 1 0 0.00721(8) 
Mn2 Mn2+ 2 i 0.04394(5) 0.23677(3) 0.18152(5) 1 0 0.00722(8) 
Si1 Si4+ 2 i 0.28154(9) 0.05291(6) 0.34656(9) 1 0 0.00840(13) 
Si2 Si4+ 2 i 0.46371(9) 0.32017(6) 0.42345(9) 1 0 0.00704(12) 
Si3 Si4+ 2 i 0.80739(9) 0.44983(6) 0.21522(9) 1 0 0.00627(12) 
Si4 Si4+ 2 i 0.99738(9) 0.71828(6) 0.30096(9) 1 0 0.00756(12) 
Si5 Si4+ 2 i 0.33975(9) 0.84444(6) 0.10838(9) 1 0 0.00758(12) 
O1 O2- 2 i 0.2071(3) -0.00760(16) 0.5439(3) 1 0 0.0155(4) 
O2 O2- 2 i 0.1231(2) 0.06860(15) 0.1893(3) 1 0 0.0116(3) 
O3 O2- 2 i 0.4399(2) 0.17592(14) 0.4144(2) 1 0 0.0104(3) 
O4 O2- 2 i 0.3253(2) 0.34697(15) 0.2519(2) 1 0 0.0108(3) 
O5 O2- 2 i 0.5434(2) 0.62430(15) 0.3623(2) 1 0 0.0113(3) 
O6 O2- 2 i 0.6815(2) 0.37564(15) 0.3790(2) 1 0 0.0107(3) 
O7 O2- 2 i 0.9617(2) 0.39040(15) 0.1616(3) 1 0 0.0116(3) 
O8 O2- 2 i 0.6769(2) 0.47395(15) 0.0349(2) 1 0 0.0098(3) 
O9 O2- 2 i 0.9282(2) 0.57625(14) 0.3373(2) 1 0 0.0103(3) 
O10 O2- 2 i 0.8758(2) 0.75807(15) 0.1281(3) 1 0 0.0118(3) 
O11 O2- 2 i 0.9976(3) 0.21112(16) 0.4905(3) 1 0 0.0170(4) 
O12 O2- 2 i 0.2081(2) 0.74122(15) 0.2372(2) 1 0 0.0109(3) 
O13 O2- 2 i 0.5208(2) 0.80942(16) 0.0672(3) 1 0 0.0127(3) 
O14 O2- 2 i 0.7740(2) 0.13142(15) 0.0878(2) 1 0 0.0121(3) 
O15 O2- 2 i 0.3966(2) 0.96997(15) 0.2470(3) 1 0 0.0135(3) 
H1 H1+ 2 i 0.938(5) 0.117(3) 0.480(5) 1 0 0.040 

loop_
_atom_site_aniso_label
_atom_site_aniso_type_symbol
_atom_site_aniso_U_11
_atom_site_aniso_U_22
_atom_site_aniso_U_33
_atom_site_aniso_U_12
_atom_site_aniso_U_13
_atom_site_aniso_U_23
Li1 Li1+ 0.060(5) 0.126(8) 0.046(4) 0.067(6) 0.036(4) 0.035(5)
Ca1 Ca2+ 0.0128(2) 0.0071(2) 0.0100(2) 0.00122(17) 0.00179(16) -0.00081(16)
Ca2 Ca2+ 0.0095(2) 0.0128(2) 0.0139(2) 0.00159(18) -0.00014(17) 
-0.00341(17)
Mn1 Mn2+ 0.00686(16) 0.00675(16) 0.00782(15) 0.00160(12) 0.00084(12) 
-0.00022(12)
Mn2 Mn2+ 0.00669(16) 0.00570(15) 0.00900(16) 0.00153(12) 0.00000(12) 
-0.00028(12)
Si1 Si4+ 0.0086(3) 0.0066(3) 0.0092(3) 0.0012(2) -0.0004(2) -0.0006(2)
Si2 Si4+ 0.0065(3) 0.0060(3) 0.0078(3) 0.0006(2) 0.0005(2) 0.0000(2)
Si3 Si4+ 0.0060(3) 0.0054(3) 0.0070(3) 0.0011(2) 0.0002(2) -0.0002(2)
Si4 Si4+ 0.0076(3) 0.0058(3) 0.0088(3) 0.0012(2) 0.0005(2) -0.0002(2)
Si5 Si4+ 0.0071(3) 0.0072(3) 0.0085(3) 0.0021(2) 0.0009(2) 0.0000(2)
O1 O2- 0.0164(9) 0.0155(9) 0.0103(8) -0.0036(7) 0.0035(7) 0.0019(7)
O2 O2- 0.0107(8) 0.0119(8) 0.0118(8) 0.0030(7) -0.0007(6) -0.0001(6)
O3 O2- 0.0111(8) 0.0059(7) 0.0135(8) 0.0020(6) -0.0011(6) -0.0011(6)
O4 O2- 0.0096(8) 0.0102(8) 0.0118(8) 0.0025(6) -0.0024(6) 0.0001(6)
O5 O2- 0.0112(8) 0.0108(8) 0.0109(8) 0.0018(7) 0.0014(6) -0.0026(6)
O6 O2- 0.0085(8) 0.0119(8) 0.0104(7) 0.0001(6) 0.0017(6) 0.0028(6)
O7 O2- 0.0100(8) 0.0103(8) 0.0155(8) 0.0044(6) 0.0033(6) -0.0016(6)
O8 O2- 0.0085(7) 0.0114(8) 0.0093(7) 0.0024(6) -0.0003(6) 0.0014(6)
O9 O2- 0.0123(8) 0.0052(7) 0.0123(8) 0.0010(6) -0.0007(6) -0.0002(6)
O10 O2- 0.0107(8) 0.0114(8) 0.0142(8) 0.0043(7) 0.0003(6) 0.0037(6)
O11 O2- 0.0269(10) 0.0094(8) 0.0118(8) -0.0008(8) 0.0078(7) -0.0032(6)
O12 O2- 0.0078(8) 0.0118(8) 0.0126(8) 0.0010(6) 0.0019(6) 0.0036(6)
O13 O2- 0.0109(8) 0.0127(8) 0.0164(8) 0.0053(7) 0.0046(7) 0.0018(7)
O14 O2- 0.0138(8) 0.0121(8) 0.0100(8) 0.0032(7) -0.0016(6) 0.0029(6)
O15 O2- 0.0128(8) 0.0099(8) 0.0171(8) 0.0029(7) 0.0006(7) -0.0036(6)
#End of data_262127-ICSD


