data_413039-ICSD
#?2014 by Fachinformationszentrum Karlsruhe, and the U.S. Secretary of 
#Commerce on behalf of the United States.  All rights reserved.
_database_code_ICSD                413039
_audit_creation_date               2004/10/01
_chemical_name_systematic
;
Octapotassium Hexakis(triselenoborato)-closo-dodecaborate
;
_chemical_formula_structural       'K8 (B12 (B Se3)6)'
_chemical_formula_sum              'B18 K8 Se18'
_publ_section_title
;
K8 (B12 (B Se3)6): a novel selenoborato-closo- dodecaborate with 
different anion substitution patterns
;
loop_
_citation_id
_citation_journal_abbrev
_citation_year
_citation_journal_volume
_citation_page_first
_citation_page_last
_citation_journal_id_ASTM
primary 'Zeitschrift fuer Anorganische und Allgemeine Chemie (1950) (DE)'
 2003 629 1249 1255 ZAACAB
_publ_author_name
;
Hammerschmidt, A.;Lindemann, A.;Doech, M.;Krebs, B.
;
_cell_length_a                     16.2878(16)
_cell_length_b                     41.617(4)
_cell_length_c                     9.7876(9)
_cell_angle_alpha                  90.
_cell_angle_beta                   109.592(2)
_cell_angle_gamma                  90.
_cell_volume                       6250.41
_cell_formula_units_Z              6
_symmetry_space_group_name_H-M     'C 1 m 1'
_symmetry_Int_Tables_number        8
_refine_ls_R_factor_all            .049
loop_
_symmetry_equiv_pos_site_id
_symmetry_equiv_pos_as_xyz
  1	'x, -y, z'
  2	'x, y, z'
  3	'x+.5, -y+.5, z'
  4	'x+.5, y+.5, z'
loop_
_atom_type_symbol
_atom_type_oxidation_number
B.833+	.833
B3+	3
K1+	1
Se2-	-2
loop_
_atom_site_label
_atom_site_type_symbol
_atom_site_symmetry_multiplicity
_atom_site_Wyckoff_symbol
_atom_site_fract_x
_atom_site_fract_y
_atom_site_fract_z
_atom_site_occupancy
_atom_site_attached_hydrogens
_atom_site_U_iso_or_equiv
Se1 Se2- 2 a 0.21864(13) 0 -.0323(2) 1. 0 0.0303(5) 
Se2 Se2- 2 a -.21450(13) 0 0.0378(2) 1. 0 0.0395(6) 
Se3 Se2- 2 a 0.20656(13) 0 0.3069(2) 1. 0 0.0330(5) 
Se4 Se2- 4 b -.02385(9) 0.05194(4) 0.29029(15) 1. 0 0.0353(4) 
Se5 Se2- 4 b -.12155(10) 0.07546(4) -.05860(17) 1. 0 0.0446(4) 
Se6 Se2- 2 a -.20743(14) 0 -.3014(2) 1. 0 0.0591(8) 
Se7 Se2- 4 b 0.71904(10) 0.16563(4) 0.42143(16) 1. 0 0.0410(4) 
Se8 Se2- 4 b 0.12081(10) 0.07598(3) 0.05732(18) 1. 0 0.0385(4) 
Se9 Se2- 4 b 0.02554(10) 0.05106(4) -.29044(16) 1. 0 0.0466(5) 
Se10 Se2- 4 b 0.52239(9) 0.11028(4) 0.20674(15) 1. 0 0.0363(4) 
Se11 Se2- 4 b 0.29663(10) 0.15744(4) 0.22252(16) 1. 0 0.0383(4) 
Se12 Se2- 4 b 0.73077(10) 0.16661(3) 0.77244(16) 1. 0 0.0392(4) 
Se13 Se2- 4 b 0.50711(10) 0.12165(4) 0.82030(15) 1. 0 0.0368(4) 
Se14 Se2- 2 a 0.40128(13) 0 0.2531(2) 1. 0 0.0437(6) 
Se15 Se2- 4 b 0.30782(10) 0.16937(4) 0.56913(16) 1. 0 0.0409(4) 
Se16 Se2- 4 b 0.63561(10) 0.24097(3) 0.56015(16) 1. 0 0.0421(4) 
Se17 Se2- 4 b 0.63905(10) 0.08979(3) 0.55105(16) 1. 0 0.0412(4) 
Se18 Se2- 4 b 0.53853(9) 0.21969(4) 0.80356(15) 1. 0 0.0386(4) 
Se19 Se2- 4 b 0.39472(10) 0.08979(4) 0.49318(15) 1. 0 0.0406(4) 
Se20 Se2- 2 a -.40045(14) 0 -.2327(3) 1. 0 0.0643(8) 
Se21 Se2- 4 b 0.49627(10) 0.21038(4) 0.16522(16) 1. 0 0.0426(4) 
Se22 Se2- 4 b 0.38964(10) 0.23993(3) 0.38311(17) 1. 0 0.0462(4) 
Se23 Se2- 4 b -.14530(12) 0.11983(5) 0.2134(2) 1. 0 0.0659(6) 
Se24 Se2- 4 b 0.66115(11) 0.04778(4) 0.26989(19) 1. 0 0.0588(5) 
Se25 Se2- 4 b 0.11715(10) 0.15128(4) 0.31713(18) 1. 0 0.0567(5) 
Se26 Se2- 4 b 0.91221(11) 0.17160(5) 0.68795(19) 1. 0 0.0664(6) 
Se27 Se2- 4 b 0.37165(12) 0.05783(4) 0.79365(19) 1. 0 0.0617(5) 
Se28 Se2- 4 b 0.14108(16) 0.12002(4) -.2168(2) 1. 0 0.0897(8) 
Se29 Se2- 4 b 0.68461(13) 0.27977(5) 0.8824(2) 1. 0 0.0891(7) 
Se30 Se2- 4 b 0.41762(14) 0.28574(4) 0.1162(2) 1. 0 0.0791(6) 
K1 K1+ 2 a 0.8398(3) 0 0.3941(5) 1. 0 0.0507(14) 
K2 K1+ 2 a 0.5070(4) 0 0.0208(6) 1. 0 0.0563(14) 
K3 K1+ 4 b 0.3282(2) 0.07310(9) 0.0974(4) 1. 0 0.0639(12) 
K4 K1+ 2 a 0.3912(3) 0 0.5806(6) 1. 0 0.0704(18) 
K5 K1+ 2 a 0.5966(4) 0 0.4574(7) 1. 0 0.127(3) 
K6 K1+ 4 b 0.9952(4) 0.14376(8) 0.9974(6) 1. 0 0.0957(15) 
K7 K1+ 4 b 0.8471(3) 0.09720(9) 0.5331(5) 1. 0 0.0811(14) 
K8 K1+ 4 b 0.1807(2) 0.08335(8) 0.5137(5) 1. 0 0.0699(12) 
K9 K1+ 4 b 0.6784(3) 0.07453(10) 0.9604(5) 1. 0 0.0832(14) 
K10 K1+ 4 b 0.3280(3) 0.15947(10) 0.9078(4) 1. 0 0.0895(15) 
K11 K1+ 4 b 0.3473(2) 0.25797(9) 0.7782(5) 1. 0 0.0748(13) 
K12 K1+ 4 b 0.1479(3) 0.22515(10) 0.1985(5) 1. 0 0.0912(15) 
K13 K1+ 4 b 0.0174(4) 0.18779(9) 0.4893(8) 1. 0 0.134(2) 
K14 K1+ 4 b 0.7249(3) 0.18423(12) 0.0923(4) 1. 0 0.1050(17) 
B1 B.833+ 2 a -.0875(14) 0 -.149(2) 1. 0 0.025(6) 
B2 B.833+ 2 a 0.0945(15) 0 -.026(3) 1. 0 0.032(6) 
B3 B.833+ 2 a 0.0913(14) 0 0.150(2) 1. 0 0.023(5) 
B4 B.833+ 4 b -.0547(11) 0.0354(4) -.0369(18) 1. 0 0.035(4) 
B5 B.833+ 2 a -.0948(14) 0 0.025(2) 1. 0 0.028(6) 
B6 B.833+ 4 b 0.4559(11) 0.1994(4) 0.4515(18) 1. 0 0.034(4) 
B7 B.833+ 4 b 0.6038(10) 0.1645(3) 0.4530(17) 1. 0 0.027(4) 
B8 B.833+ 4 b 0.5132(10) 0.1404(4) 0.3577(17) 1. 0 0.029(4) 
B9 B.833+ 2 a -.2783(15) 0 -.168(3) 1. 0 0.039(7) 
B10 B.833+ 4 b 0.0570(9) 0.0338(3) 0.0395(16) 1. 0 0.022(4) 
B11 B.833+ 4 b 0.4169(11) 0.1622(4) 0.3565(19) 1. 0 0.039(5) 
B12 B.833+ 4 b -.0047(9) 0.0211(3) 0.1469(17) 1. 0 0.022(4) 
B13 B.833+ 4 b 0.6114(10) 0.1651(3) 0.6311(17) 1. 0 0.024(4) 
B14 B.833+ 4 b 0.4224(10) 0.1671(4) 0.5443(18) 1. 0 0.033(4) 
B15 B3+ 4 b 0.5704(10) 0.1305(3) 0.5333(17) 1. 0 0.027(4) 
B16 B3+ 4 b -.0997(11) 0.0833(4) 0.148(2) 1. 0 0.044(5) 
B17 B3+ 4 b 0.4583(10) 0.1311(3) 0.4842(17) 1. 0 0.025(4) 
B18 B3+ 4 b 0.0997(11) 0.0834(4) -.147(2) 1. 0 0.042(5) 
B19 B.833+ 4 b 0.5148(10) 0.1457(3) 0.6508(16) 1. 0 0.022(4) 
B20 B3+ 4 b 0.5086(10) 0.1835(4) 0.3396(18) 1. 0 0.029(4) 
B21 B.833+ 4 b 0.7885(11) 0.1694(4) 0.6235(19) 1. 0 0.044(5) 
B22 B.833+ 4 b 0.5169(11) 0.1890(4) 0.6382(18) 1. 0 0.035(4) 
B23 B.833+ 4 b 0.2375(10) 0.1585(3) 0.3673(17) 1. 0 0.030(4) 
B24 B.833+ 4 b 0.6060(12) 0.0817(4) 0.344(2) 1. 0 0.045(5) 
B25 B.833+ 2 a 0.2756(13) 0 0.176(2) 1. 0 0.022(5) 
B26 B.833+ 4 b 0.4235(11) 0.0894(4) 0.6992(19) 1. 0 0.042(5) 
B27 B3+ 4 b 0.4319(11) 0.2472(4) 0.2124(18) 1. 0 0.040(5) 
B28 B3+ 4 b 0.5672(10) 0.1992(3) 0.5150(17) 1. 0 0.028(4) 
B29 B3+ 4 b 0.6225(11) 0.2483(4) 0.7551(19) 1. 0 0.050(5) 
B30 B3+ 4 b 0.0094(11) 0.0225(4) -.1420(19) 1. 0 0.040(5) 

loop_
_atom_site_aniso_label
_atom_site_aniso_type_symbol
_atom_site_aniso_U_11
_atom_site_aniso_U_22
_atom_site_aniso_U_33
_atom_site_aniso_U_12
_atom_site_aniso_U_13
_atom_site_aniso_U_23
Se1 Se2- 0.0208(11) 0.0491(15) 0.0242(12) 0 0.012(1) 0
Se2 Se2- 0.0195(12) 0.0762(17) 0.0251(13) 0 0.0107(10) 0
Se3 Se2- 0.0193(11) 0.0536(15) 0.0227(12) 0 0.0023(10) 0
Se4 Se2- 0.0319(9) 0.0503(11) 0.0255(9) 0.0038(7) 0.0120(8) -.0030(8)
Se5 Se2- 0.0344(10) 0.0654(12) 0.0355(10) 0.0231(8) 0.0135(8) 0.0155(9)
Se6 Se2- 0.0159(12) 0.136(2) 0.0236(14) 0 0.0042(11) 0
Se7 Se2- 0.0357(10) 0.0639(12) 0.0289(9) 0.0065(8) 0.0183(8) -.0002(8)
Se8 Se2- 0.0349(10) 0.0364(10) 0.0474(10) 0.0020(7) 0.0181(8) 0.0038(8)
Se9 Se2- 0.0353(10) 0.0776(13) 0.0315(10) 0.0109(9) 0.0172(8) 0.0178(9)
Se10 Se2- 0.0389(10) 0.045(1) 0.0257(9) 0.0060(7) 0.0117(8) -.0050(7)
Se11 Se2- 0.0343(9) 0.0547(11) 0.0266(9) 0.0073(8) 0.0111(8) 0.0065(8)
Se12 Se2- 0.0340(9) 0.0564(11) 0.0271(9) 0.0063(8) 0.0100(8) -.0025(8)
Se13 Se2- 0.0418(10) 0.0459(10) 0.0257(9) 0.0042(8) 0.0152(8) 0.0073(8)
Se14 Se2- 0.0163(12) 0.0766(18) 0.0364(14) 0 0.0063(11) 0
Se15 Se2- 0.0341(10) 0.0633(12) 0.0317(9) 0.0075(8) 0.0196(8) 0.0057(8)
Se16 Se2- 0.0485(11) 0.0405(10) 0.0416(10) -.0038(8) 0.0209(8) 0.0000(8)
Se17 Se2- 0.0482(11) 0.0389(10) 0.0323(9) 0.0140(8) 0.0081(8) -.0003(8)
Se18 Se2- 0.0435(10) 0.046(1) 0.0334(9) 0.0069(8) 0.0222(8) -.0063(8)
Se19 Se2- 0.0472(10) 0.0448(10) 0.0303(9) -.0047(8) 0.0134(8) 0.0042(8)
Se20 Se2- 0.0181(13) 0.124(2) 0.0482(17) 0 0.0072(13) 0
Se21 Se2- 0.0497(11) 0.0513(11) 0.0314(9) -.0013(8) 0.0198(8) 0.0119(8)
Se22 Se2- 0.0488(11) 0.0387(10) 0.0533(12) 0.0167(8) 0.0199(9) 0.0116(8)
Se23 Se2- 0.0657(14) 0.0684(14) 0.0656(13) 0.0317(10) 0.0244(11) -.0003(11)
Se24 Se2- 0.0604(13) 0.0558(12) 0.0558(12) 0.0210(9) 0.0137(10) -.0158(10)
Se25 Se2- 0.0348(10) 0.0901(14) 0.0464(11) 0.0044(10) 0.0153(9) 0.0004(10)
Se26 Se2- 0.0347(11) 0.1210(18) 0.0464(12) 0.0043(10) 0.0176(9) 0.0029(11)
Se27 Se2- 0.0753(14) 0.0662(13) 0.0476(11) -.0162(10) 0.0256(11) 0.0155(9)
Se28 Se2- 0.149(2) 0.0542(13) 0.0992(18) -.0033(13) 0.0860(17) 0.0178(12)
Se29 Se2- 0.0846(16) 0.1121(17) 0.0841(16) -.0472(13) 0.0460(13) -.0572(14)
Se30 Se2- 0.1120(17) 0.0478(12) 0.0720(14) 0.0071(11) 0.0237(13) 0.028(1)
K1 K1+ 0.045(3) 0.071(4) 0.042(3) 0 0.021(3) 0
K2 K1+ 0.045(3) 0.084(4) 0.044(3) 0 0.020(3) 0
K3 K1+ 0.047(2) 0.061(3) 0.084(3) -.0037(19) 0.023(2) -.003(2)
K4 K1+ 0.040(3) 0.127(5) 0.038(3) 0 0.004(3) 0
K5 K1+ 0.054(4) 0.256(9) 0.062(5) 0 0.007(4) 0
K6 K1+ 0.132(4) 0.070(3) 0.058(3) 0.026(3) -.005(3) -.002(3)
K7 K1+ 0.078(3) 0.084(3) 0.077(3) 0.038(3) 0.020(3) 0.002(3)
K8 K1+ 0.052(3) 0.073(3) 0.078(3) -.004(2) 0.013(2) -.008(2)
K9 K1+ 0.044(3) 0.111(4) 0.092(4) 0.035(2) 0.019(3) 0.016(3)
K10 K1+ 0.109(4) 0.119(4) 0.062(3) 0.017(3) 0.058(3) 0.018(3)
K11 K1+ 0.048(3) 0.069(3) 0.109(4) 0.014(2) 0.028(3) 0.002(3)
K12 K1+ 0.097(4) 0.064(3) 0.131(4) 0.018(2) 0.064(3) 0.027(3)
K13 K1+ 0.186(5) 0.080(3) 0.221(6) -.020(4) 0.181(5) -.028(4)
K14 K1+ 0.116(4) 0.155(5) 0.050(3) 0.054(3) 0.035(3) 0.009(3)
#End of data_413039-ICSD


