data_413268-ICSD
#?2014 by Fachinformationszentrum Karlsruhe, and the U.S. Secretary of 
#Commerce on behalf of the United States.  All rights reserved.
_database_code_ICSD                413268
_audit_creation_date               2012/08/01
_chemical_name_systematic          'Disilver Copper Tetranitrate'
_chemical_formula_structural       'Ag2 (Cu (N O3)4)'
_chemical_formula_sum              'Ag2 Cu1 N4 O12'
_publ_section_title
;
Synthesis and crystal structure of copper(II) nitrate complexes N O 
(Cu (N O3)3), Na2 (Cu (N O3)4) and Ag2 (Cu (N O3)4)
;
loop_
_citation_id
_citation_journal_abbrev
_citation_year
_citation_journal_volume
_citation_journal_issue
_citation_page_first
_citation_page_last
_citation_journal_id_ASTM
primary 'Zhurnal Neorganicheskoi Khimii' 2004 49 2 213 220 ZNOKAQ
2 'Russian Journal of Inorganic Chemistry' 2004 49 2 172 179 RJICAQ
_publ_author_name
;
Znamenkov, K.O.;Morozov, I.V.;Troyanov, S.I.
;
_cell_length_a                     7.580(2)
_cell_length_b                     8.169(3)
_cell_length_c                     8.558(3)
_cell_angle_alpha                  65.59(3)
_cell_angle_beta                   87.01(3)
_cell_angle_gamma                  86.10(3)
_cell_volume                       481.27
_cell_formula_units_Z              2
_symmetry_space_group_name_H-M     'P -1'
_symmetry_Int_Tables_number        2
_refine_ls_R_factor_all            .0282
loop_
_symmetry_equiv_pos_site_id
_symmetry_equiv_pos_as_xyz
  1	'-x, -y, -z'
  2	'x, y, z'
loop_
_atom_type_symbol
_atom_type_oxidation_number
Ag1+	1
Cu2+	2
N5+	5
O2-	-2
loop_
_atom_site_label
_atom_site_type_symbol
_atom_site_symmetry_multiplicity
_atom_site_Wyckoff_symbol
_atom_site_fract_x
_atom_site_fract_y
_atom_site_fract_z
_atom_site_occupancy
_atom_site_attached_hydrogens
_atom_site_U_iso_or_equiv
Ag1 Ag1+ 2 i 0.06605(4) 0.23247(5) 0.99903(4) 1 0 0.02511(9) 
Ag2 Ag1+ 2 i 0.45485(4) -0.27806(4) 0.45935(4) 1 0 0.02087(8) 
Cu1 Cu2+ 1 e 0.5000 0.5000 0.0000 1 0 0.01337(12) 
Cu2 Cu2+ 1 b 0.0000 0.0000 0.5000 1 0 0.01427(13) 
N1 N5+ 2 i 0.2807(4) 0.6405(4) 0.1764(4) 1 0 0.0167(6) 
N2 N5+ 2 i 0.4080(4) 0.1601(4) 0.2076(4) 1 0 0.0165(6) 
N3 N5+ 2 i 0.8035(4) 0.9095(4) 0.2971(4) 1 0 0.0155(6) 
N4 N5+ 2 i 0.1059(4) 0.6399(4) 0.6821(4) 1 0 0.0175(6) 
O1 O2- 2 i 0.2814(3) 0.6341(4) 0.0298(3) 1 0 0.0179(5) 
O2 O2- 2 i 0.4141(4) 0.5743(4) 0.2673(4) 1 0 0.0227(6) 
O3 O2- 2 i 0.1528(4) 0.7129(4) 0.2212(4) 1 0 0.0277(7) 
O4 O2- 2 i 0.3599(3) 0.2905(4) 0.0655(3) 1 0 0.0188(5) 
O5 O2- 2 i 0.3242(4) 0.0229(4) 0.2550(4) 1 0 0.0309(7) 
O6 O2- 2 i 0.5302(4) 0.1794(4) 0.2845(3) 1 0 0.0238(6) 
O7 O2- 2 i 0.9394(3) 1.0050(4) 0.2764(3) 1 0 0.0184(5) 
O8 O2- 2 i 0.7463(4) 0.8282(4) 0.4456(4) 1 0 0.0256(6) 
O9 O2- 2 i 0.7376(4) 0.9078(4) 0.1702(4) 1 0 0.0270(6) 
O10 O2- 2 i 0.1504(3) -0.2181(4) 0.5483(3) 1 0 0.0180(5) 
O11 O2- 2 i -0.0308(4) 0.6449(4) 0.7627(4) 1 0 0.0217(6) 
O12 O2- 2 i 0.2088(4) 0.5073(4) 0.7217(4) 1 0 0.0300(7) 

loop_
_atom_site_aniso_label
_atom_site_aniso_type_symbol
_atom_site_aniso_U_11
_atom_site_aniso_U_22
_atom_site_aniso_U_33
_atom_site_aniso_U_12
_atom_site_aniso_U_13
_atom_site_aniso_U_23
Ag1 Ag1+ 0.01543(14) 0.0418(2) 0.01921(14) -0.00369(12) -0.00038(10) 
-0.01333(13)
Ag2 Ag1+ 0.01733(14) 0.02422(15) 0.02107(14) -0.00267(11) 0.00001(10) 
-0.00915(11)
Cu1 Cu2+ 0.0102(3) 0.0125(3) 0.0151(3) -0.0029(2) 0.0018(2) -0.0033(2)
Cu2 Cu2+ 0.0141(3) 0.0133(3) 0.0135(3) -0.0027(2) -0.0019(2) -0.0032(2)
N1 N5+ 0.0144(14) 0.0142(15) 0.0233(15) -0.0032(11) -0.0016(11) -0.0090(12)
N2 N5+ 0.0120(13) 0.0169(15) 0.0182(14) -0.0035(11) 0.0043(11) -0.0049(11)
N3 N5+ 0.0124(13) 0.0169(15) 0.0190(14) 0.0029(11) -0.0035(11) -0.0093(12)
N4 N5+ 0.0171(15) 0.0179(15) 0.0159(14) -0.0034(12) -0.0015(11) -0.0048(12)
O1 O2- 0.0169(12) 0.0191(13) 0.0199(12) -0.0006(10) 0.0007(10) -0.0104(10)
O2 O2- 0.0199(13) 0.0246(15) 0.0246(14) 0.0024(11) -0.0066(11) -0.0108(12)
O3 O2- 0.0203(14) 0.0358(18) 0.0371(17) 0.0050(12) 0.0004(12) -0.0263(15)
O4 O2- 0.0138(12) 0.0171(13) 0.0188(12) -0.0041(10) -0.0024(9) 0.0001(10)
O5 O2- 0.0265(16) 0.0158(14) 0.0374(17) -0.0105(12) -0.0033(12) 0.0037(12)
O6 O2- 0.0176(13) 0.0364(17) 0.0188(13) -0.0057(12) -0.0020(10) -0.0120(12)
O7 O2- 0.0147(12) 0.0228(14) 0.0179(12) -0.0042(10) -0.0009(9) -0.0081(11)
O8 O2- 0.0221(14) 0.0282(16) 0.0218(13) -0.0092(12) 0.0003(11) -0.0045(12)
O9 O2- 0.0253(15) 0.0355(18) 0.0303(15) 0.0032(13) -0.0088(12) -0.0236(14)
O10 O2- 0.0165(12) 0.0182(13) 0.0147(11) -0.0028(10) 0.0024(9) -0.0021(10)
O11 O2- 0.0187(13) 0.0250(15) 0.0227(13) -0.0093(11) 0.0088(10) -0.0110(11)
O12 O2- 0.0292(16) 0.0176(15) 0.0342(16) 0.0069(12) -0.0045(13) -0.0023(12)
#End of data_413268-ICSD


