data_83443-ICSD
#?2014 by Fachinformationszentrum Karlsruhe, and the U.S. Secretary of 
#Commerce on behalf of the United States.  All rights reserved.
_database_code_ICSD                83443
_audit_creation_date               1998/06/26
_chemical_name_systematic          'Calcium Iron Catena-disilicate'
_chemical_formula_structural       'Ca Fe (Si2 O6)'
_chemical_formula_sum              'Ca1 Fe1 O6 Si2'
_chemical_name_mineral             Hedenbergite
_publ_section_title
;
Single-crystal compression and crystal structure of clinopyroxene up 
to 10 GPa
;
loop_
_citation_id
_citation_journal_abbrev
_citation_year
_citation_journal_volume
_citation_page_first
_citation_page_last
_citation_journal_id_ASTM
primary 'American Mineralogist' 1997 82 245 258 AMMIAY
_publ_author_name
;
Zhang, L.;Ahsbahs, H.;Hafner, S.S.;Kutoglu, A.
;
_cell_length_a                     9.7350(9)
_cell_length_b                     8.8762(8)
_cell_length_c                     5.1748(8)
_cell_angle_alpha                  90.
_cell_angle_beta                   104.155(9)
_cell_angle_gamma                  90.
_cell_volume                       433.58
_cell_formula_units_Z              4
_symmetry_space_group_name_H-M     'C 1 2/c 1'
_symmetry_Int_Tables_number        15
_refine_ls_R_factor_all            .034
loop_
_symmetry_equiv_pos_site_id
_symmetry_equiv_pos_as_xyz
  1	'x, -y, z+.5'
  2	'-x, -y, -z'
  3	'-x, y, -z+.5'
  4	'x, y, z'
  5	'x+.5, -y+.5, z+.5'
  6	'-x+.5, -y+.5, -z'
  7	'-x+.5, y+.5, -z+.5'
  8	'x+.5, y+.5, z'
loop_
_atom_type_symbol
_atom_type_oxidation_number
Ca2+	2
Fe2+	2
O2-	-2
Si4+	4
loop_
_atom_site_label
_atom_site_type_symbol
_atom_site_symmetry_multiplicity
_atom_site_Wyckoff_symbol
_atom_site_fract_x
_atom_site_fract_y
_atom_site_fract_z
_atom_site_occupancy
_atom_site_attached_hydrogens
_atom_site_B_iso_or_equiv
Ca1 Ca2+ 4 e 0 0.30279(14) 0.25 1. 0 0.53(2) 
Fe1 Fe2+ 4 e 0 0.90918(10) 0.25 1. 0 0.38(2) 
Si1 Si4+ 8 f 0.28780(24) 0.09364(12) 0.23083(22) 1. 0 0.42(2) 
O1 O2- 8 f 0.12064(59) 0.09106(30) 0.15289(53) 1. 0 0.59(5) 
O2 O2- 8 f 0.36107(56) 0.24928(36) 0.32680(57) 1. 0 0.72(6) 
O3 O2- 8 f 0.35193(61) 0.02338(31) 0.98716(60) 1. 0 0.65(5) 

#End of data_83443-ICSD


