data_63285-ICSD
#?2014 by Fachinformationszentrum Karlsruhe, and the U.S. Secretary of 
#Commerce on behalf of the United States.  All rights reserved.
_database_code_ICSD                63285
_audit_creation_date               1989/12/04
_audit_update_record               1997/11/10
_chemical_name_systematic          'Calcium Zinc Hydroxide Arsenate'
_chemical_formula_structural       'Ca Zn (As O4) (O H)'
_chemical_formula_sum              'H1 As1 Ca1 O5 Zn1'
_chemical_name_mineral             Austinite
_publ_section_title
;
The crystal structure of austinite, Ca Zn (As O4) (O H) from 
Kamareza, Laurion (Greece)
;
loop_
_citation_id
_citation_journal_abbrev
_citation_year
_citation_journal_volume
_citation_page_first
_citation_page_last
_citation_journal_id_ASTM
primary 'Neues Jahrbuch fuer Mineralogie. Monatshefte (Band=Jahr) (1950-)'
 1988 1988 159 166 NJMMAW
_publ_author_name                  'Giuseppetti, G.;Tadini, C.'
_cell_length_a                     7.505(1)
_cell_length_b                     9.037(2)
_cell_length_c                     5.921(1)
_cell_angle_alpha                  90.
_cell_angle_beta                   90.
_cell_angle_gamma                  90.
_cell_volume                       401.58
_cell_formula_units_Z              4
_symmetry_space_group_name_H-M     'P 21 21 21'
_symmetry_Int_Tables_number        19
_refine_ls_R_factor_all            .034
loop_
_symmetry_equiv_pos_site_id
_symmetry_equiv_pos_as_xyz
  1	'-x, y+.5, -z+.5'
  2	'x+.5, -y+.5, -z'
  3	'-x+.5, -y, z+.5'
  4	'x, y, z'
loop_
_atom_type_symbol
_atom_type_oxidation_number
As5+	5
Ca2+	2
H1+	1
O2-	-2
Zn2+	2
loop_
_atom_site_label
_atom_site_type_symbol
_atom_site_symmetry_multiplicity
_atom_site_Wyckoff_symbol
_atom_site_fract_x
_atom_site_fract_y
_atom_site_fract_z
_atom_site_occupancy
_atom_site_attached_hydrogens
_atom_site_B_iso_or_equiv
Ca1 Ca2+ 4 a 0.3689(2) 0.6720(1) 0.5228(2) 1. 0 0 
Zn1 Zn2+ 4 a 0.7640(1) 0.5065(1) 0.7576(2) 1. 0 0 
As1 As5+ 4 a 0.3771(1) 0.3232(1) 0.4834(1) 1. 0 0 
O1 O2- 4 a 0.5520(6) 0.4413(5) 0.5102(9) 1. 0 0 
O2 O2- 4 a 0.2079(7) 0.4370(6) 0.4118(8) 1. 0 0 
O3 O2- 4 a 0.6484(6) 0.7331(5) 0.7694(9) 1. 0 0 
O4 O2- 4 a 0.6033(7) 0.7094(5) 0.2425(9) 1. 0 0 
O5 O2- 4 a 0.8905(6) 0.5727(4) 0.4924(9) 1. 0 0 
H1 H1+ 4 a 0.993 0.523 0.501 1. 0 2. 

#End of data_63285-ICSD


