data_425065-ICSD
#?2014 by Fachinformationszentrum Karlsruhe, and the U.S. Secretary of 
#Commerce on behalf of the United States.  All rights reserved.
_database_code_ICSD                425065
_audit_creation_date               2013/08/01
_chemical_name_systematic
;
Lithium Dicopper Dihydroxoboro-bis(phosphate(V))
;
_chemical_formula_structural       'Li Cu2 (B P2 O8 (O H)2)'
_chemical_formula_sum              'H2 B1 Cu2 Li1 O10 P2'
_publ_section_title
;
Li Cu2 [B P2 O8 (O H)2]: a chiral open-framework copper borophosphate 
via spontaneous asymmetrical crystallization
;
loop_
_citation_id
_citation_journal_abbrev
_citation_year
_citation_journal_volume
_citation_journal_issue
_citation_page_first
_citation_page_last
_citation_journal_id_ASTM
primary 'Dalton Transactions' 2013 42 18 6298 6301 DTARAF
_publ_author_name
;
Miao Yang;Xinjie Li;Jihong Yu;Jingran Zhu;Xiaoxia Liu;Genfu Chen;Yan 
Yan
;
_cell_length_a                     5.3195(10)
_cell_length_b                     7.9352(15)
_cell_length_c                     17.464(3)
_cell_angle_alpha                  90.00
_cell_angle_beta                   90.00
_cell_angle_gamma                  90.00
_cell_volume                       737.18
_cell_formula_units_Z              4
_symmetry_space_group_name_H-M     'P 21 21 21'
_symmetry_Int_Tables_number        19
_refine_ls_R_factor_all            .0172
loop_
_symmetry_equiv_pos_site_id
_symmetry_equiv_pos_as_xyz
  1	'-x, y+.5, -z+.5'
  2	'x+.5, -y+.5, -z'
  3	'-x+.5, -y, z+.5'
  4	'x, y, z'
loop_
_atom_type_symbol
_atom_type_oxidation_number
B3+	3
Cu2+	2
H1+	1
Li1+	1
O2-	-2
P5+	5
loop_
_atom_site_label
_atom_site_type_symbol
_atom_site_symmetry_multiplicity
_atom_site_Wyckoff_symbol
_atom_site_fract_x
_atom_site_fract_y
_atom_site_fract_z
_atom_site_occupancy
_atom_site_attached_hydrogens
_atom_site_U_iso_or_equiv
Cu1 Cu2+ 4 a 0.94901(7) 0.16076(4) 0.980387(18) 1 0 0.01017(9) 
Cu2 Cu2+ 4 a 0.96428(6) 0.82686(4) 0.843381(18) 1 0 0.00882(9) 
P1 P5+ 4 a 0.93942(13) 0.49164(7) 1.09308(4) 1 0 0.00584(14) 
P2 P5+ 4 a 0.74605(12) 0.46396(8) 0.88132(4) 1 0 0.00662(14) 
B1 B3+ 4 a 0.7181(5) 0.5885(4) 0.73572(17) 1 0 0.0071(5) 
Li1 Li1+ 4 a 0.7423(9) -0.1352(6) 1.0471(3) 1 0 0.0154(10) 
O1 O2- 4 a 0.8720(3) 0.2932(2) 0.89209(11) 1 0 0.0093(4) 
O2 O2- 4 a 0.9329(3) 0.6080(2) 0.89349(11) 1 0 0.0105(4) 
O3 O2- 4 a 1.0292(3) 1.0420(2) 0.79291(10) 1 0 0.0094(4) 
H1 H1+ 4 a 0.9676 1.1168 0.8140 1 0 0.014 
O4 O2- 4 a 1.0161(3) 0.0164(2) 1.06674(11) 1 0 0.0112(4) 
O5 O2- 4 a 0.6984(3) -0.0348(2) 0.93987(11) 1 0 0.0097(4) 
O6 O2- 4 a 0.8166(3) 0.3483(2) 1.04792(11) 1 0 0.0094(4) 
O7 O2- 4 a 0.7253(3) 0.7594(2) 0.76470(11) 1 0 0.0100(4) 
H2 H1+ 4 a 0.6249 0.8355 0.7398 1 0 0.015 
O8 O2- 4 a 0.9789(3) 0.4310(2) 1.17737(10) 1 0 0.0080(4) 
O9 O2- 4 a 0.6488(3) 0.4676(2) 0.79633(11) 1 0 0.0101(4) 
O10 O2- 4 a 0.7666(3) 0.6466(2) 1.09244(11) 1 0 0.0106(4) 

loop_
_atom_site_aniso_label
_atom_site_aniso_type_symbol
_atom_site_aniso_U_11
_atom_site_aniso_U_22
_atom_site_aniso_U_33
_atom_site_aniso_U_12
_atom_site_aniso_U_13
_atom_site_aniso_U_23
Cu1 Cu2+ 0.01115(15) 0.01127(15) 0.00808(16) 0.00162(14) -0.00072(13) 
0.00282(13)
Cu2 Cu2+ 0.00928(15) 0.00790(15) 0.00928(16) -0.00230(14) -0.00286(12) 
0.00110(12)
P1 P5+ 0.0060(3) 0.0065(3) 0.0050(3) 0.0007(2) 0.0011(2) 0.0001(2)
P2 P5+ 0.0074(3) 0.0071(3) 0.0053(3) -0.0006(2) -0.0001(3) 0.0011(3)
B1 B3+ 0.0093(13) 0.0100(13) 0.0019(12) 0.0012(11) -0.0007(11) 0.0006(11)
Li1 Li1+ 0.012(2) 0.017(3) 0.017(2) -0.0038(18) -0.001(2) 0.004(2)
O1 O2- 0.0124(8) 0.0093(9) 0.0063(9) 0.0025(7) -0.0008(7) 0.0006(7)
O2 O2- 0.0113(8) 0.0090(8) 0.0113(9) -0.0029(7) -0.0053(8) 0.0023(7)
O3 O2- 0.0088(8) 0.0088(8) 0.0105(9) 0.0012(7) 0.0024(8) -0.0012(7)
O4 O2- 0.0117(9) 0.0129(8) 0.0089(9) -0.0016(8) -0.0034(8) 0.0045(7)
O5 O2- 0.0095(8) 0.0084(9) 0.0112(10) -0.0012(7) -0.0038(8) 0.0021(8)
O6 O2- 0.0081(8) 0.0112(9) 0.0088(9) -0.0006(7) -0.0008(7) -0.0026(8)
O7 O2- 0.0106(9) 0.0074(8) 0.0120(10) 0.0024(7) -0.0046(8) -0.0012(8)
O8 O2- 0.0062(8) 0.0116(8) 0.0064(8) 0.0016(7) 0.0023(7) 0.0000(7)
O9 O2- 0.0137(8) 0.0113(9) 0.0052(9) -0.0044(7) -0.0035(7) 0.0031(8)
O10 O2- 0.0107(8) 0.0083(9) 0.0129(9) 0.0033(7) 0.0037(8) 0.0017(8)
#End of data_425065-ICSD


