data_33714-ICSD
#?2014 by Fachinformationszentrum Karlsruhe, and the U.S. Secretary of 
#Commerce on behalf of the United States.  All rights reserved.
_database_code_ICSD                33714
_audit_creation_date               1989/06/21
_audit_update_record               2007/08/01
_chemical_name_systematic          'Trisilver Trithioantimonate(III)'
_chemical_formula_structural       'Ag3 (Sb S3)'
_chemical_formula_sum              'Ag3 S3 Sb1'
_chemical_name_mineral             Pyrostilpnite
_publ_section_title
;
Die Struktur des Pyrostilpnits (Feuerblende) Ag3 Sb S3
;
loop_
_citation_id
_citation_journal_abbrev
_citation_year
_citation_journal_volume
_citation_journal_issue
_citation_page_first
_citation_page_last
_citation_journal_id_ASTM
primary 'Neues Jahrbuch fuer Mineralogie. Monatshefte (Band=Jahr) (1950-)'
 1968 1968 5 145 160 NJMMAW
2 'Phase Transition' 1992 38- 127 220 PHTRDP
_publ_author_name                  'Kutoglu, A.'
_cell_length_a                     6.84
_cell_length_b                     15.84
_cell_length_c                     6.24
_cell_angle_alpha                  90.
_cell_angle_beta                   117.15
_cell_angle_gamma                  90.
_cell_volume                       601.58
_cell_formula_units_Z              4
_symmetry_space_group_name_H-M     'P 1 21/c 1'
_symmetry_Int_Tables_number        14
_refine_ls_R_factor_all            .128
loop_
_symmetry_equiv_pos_site_id
_symmetry_equiv_pos_as_xyz
  1	'x, -y+.5, z+.5'
  2	'-x, -y, -z'
  3	'-x, y+.5, -z+.5'
  4	'x, y, z'
loop_
_atom_type_symbol
_atom_type_oxidation_number
Ag1+	1
S2-	-2
Sb3+	3
loop_
_atom_site_label
_atom_site_type_symbol
_atom_site_symmetry_multiplicity
_atom_site_Wyckoff_symbol
_atom_site_fract_x
_atom_site_fract_y
_atom_site_fract_z
_atom_site_occupancy
_atom_site_attached_hydrogens
_atom_site_B_iso_or_equiv
Sb1 Sb3+ 4 e 0.1972(6) 0.0522(2) 0.3749(7) 1. 0 2.9(1) 
Ag1 Ag1+ 4 e 0.0358(8) 0.3147(3) 0.2658(9) 1. 0 4.6(1) 
Ag2 Ag1+ 4 e 0.4698(9) 0.2413(4) 0.2804(10) 1. 0 5.6(2) 
Ag3 Ag1+ 4 e -.4038(8) 0.0934(3) 0.0528(9) 1. 0 4.3(1) 
S1 S2- 4 e 0.221(3) 0.057(1) -.010(3) 1. 0 3.5(4) 
S2 S2- 4 e -.459(3) 0.135(1) 0.592(3) 1. 0 3.7(4) 
S3 S2- 4 e -.049(3) 0.167(1) 0.325(3) 1. 0 4.1(4) 

#End of data_33714-ICSD


