data_60621-ICSD
#?2014 by Fachinformationszentrum Karlsruhe, and the U.S. Secretary of 
#Commerce on behalf of the United States.  All rights reserved.
_database_code_ICSD                60621
_audit_creation_date               1986/12/03
_chemical_name_systematic
;
Dipotassium Catena Mu Trifluorodioxovanadate
;
_chemical_formula_structural       'K2 V F3 O2'
_chemical_formula_sum              'F3 K2 O2 V1'
_publ_section_title
;
Crystal structure of sodium pentafluorooxovanadate(V), Na2 (V F5 O), 
and potassium catena-mue-fluorodifluorodioxovanadate(V), K2n (V F3 
O2)n, two decomposition products in the system V2 O5/ (M F, H F)/ H2 
O2/ H2 O
;
loop_
_citation_id
_citation_journal_abbrev
_citation_year
_citation_journal_volume
_citation_page_first
_citation_page_last
_citation_journal_id_ASTM
primary 'Acta Chemica Scandinavica, Series A: (28,1974-)'
 1986 40 325 330 ACAPCT
_publ_author_name                  'Stomberg, R.'
_cell_length_a                     7.383(1)
_cell_length_b                     5.646(1)
_cell_length_c                     11.426(2)
_cell_angle_alpha                  90.
_cell_angle_beta                   90.
_cell_angle_gamma                  90.
_cell_volume                       476.29
_cell_formula_units_Z              4
_symmetry_space_group_name_H-M     'P n m a'
_symmetry_Int_Tables_number        62
_refine_ls_R_factor_all            .023
loop_
_symmetry_equiv_pos_site_id
_symmetry_equiv_pos_as_xyz
  1	'x+.5, y, -z+.5'
  2	'x, -y+.5, z'
  3	'-x+.5, y+.5, z+.5'
  4	'-x, -y, -z'
  5	'-x+.5, -y, z+.5'
  6	'-x, y+.5, -z'
  7	'x+.5, -y+.5, -z+.5'
  8	'x, y, z'
loop_
_atom_type_symbol
_atom_type_oxidation_number
F1-	-1
K1+	1
O2-	-2
V5+	5
loop_
_atom_site_label
_atom_site_type_symbol
_atom_site_symmetry_multiplicity
_atom_site_Wyckoff_symbol
_atom_site_fract_x
_atom_site_fract_y
_atom_site_fract_z
_atom_site_occupancy
_atom_site_attached_hydrogens
_atom_site_B_iso_or_equiv
V1 V5+ 4 c 0.19960(4) 0.25 0.06930(2) 1. 0 1.035(5) 
K1 K1+ 4 c 0.19110(6) 0.25 0.40699(4) 1. 0 1.694(7) 
K2 K1+ 4 c 0.47788(6) 0.25 0.71734(4) 1. 0 1.527(7) 
O1 O2- 8 d 0.3223(1) 0.0229(2) 0.1111(1) 1. 0 1.71(2) 
F1 F1- 4 a 0 0 0 1. 0 1.67(2) 
F2 F1- 4 c 0.0363(2) 0.25 0.1946(1) 1. 0 1.790(2) 
F3 F1- 4 c 0.2731(2) 0.25 0.9079(1) 1. 0 1.52(2) 

#End of data_60621-ICSD


