data_183392-ICSD
#?2014 by Fachinformationszentrum Karlsruhe, and the U.S. Secretary of 
#Commerce on behalf of the United States.  All rights reserved.
_database_code_ICSD                183392
_audit_creation_date               2012/08/01
_chemical_name_systematic          'Octabarium Decaaluminododecaborate'
_chemical_formula_structural       'Ba8 (Al10 B12 O41)'
_chemical_formula_sum              'Al10 B12 Ba8 O41'
_publ_section_title
;
Synthesis, crystal structure, spectrum properties and electronic 
structure of a new barium aluminoborate, Ba8 ((Al6(IV)) (Al2(IV)) 
(Al2(V)) B(III)12 O41)infty
;
loop_
_citation_id
_citation_journal_abbrev
_citation_year
_citation_journal_volume
_citation_page_first
_citation_page_last
_citation_journal_id_ASTM
primary 'Journal of Alloys and Compounds' 2012 511 74 80 JALCEU
_publ_author_name
;
Chen, Xue An;Chu, Zhi Peng;Chang, Xi Nan;Zang, He Gui;Xiao, Wei Qiang
;
_cell_length_a                     9.2437(1)
_cell_length_b                     9.8100(12)
_cell_length_c                     11.0830(14)
_cell_angle_alpha                  76.130(10)
_cell_angle_beta                   73.550(9)
_cell_angle_gamma                  77.990(10)
_cell_volume                       925.1
_cell_formula_units_Z              1
_symmetry_space_group_name_H-M     'P -1'
_symmetry_Int_Tables_number        2
_refine_ls_R_factor_all            .0334
loop_
_symmetry_equiv_pos_site_id
_symmetry_equiv_pos_as_xyz
  1	'-x, -y, -z'
  2	'x, y, z'
loop_
_atom_type_symbol
_atom_type_oxidation_number
Al3+	3
B3+	3
Ba2+	2
O2-	-2
loop_
_atom_site_label
_atom_site_type_symbol
_atom_site_symmetry_multiplicity
_atom_site_Wyckoff_symbol
_atom_site_fract_x
_atom_site_fract_y
_atom_site_fract_z
_atom_site_occupancy
_atom_site_attached_hydrogens
_atom_site_U_iso_or_equiv
Ba1 Ba2+ 2 i 0.22351(4) 0.05143(4) 0.14415(3) 1. 0 0.01226(8) 
Ba2 Ba2+ 2 i 0.19689(4) 0.57237(3) 0.15211(3) 1. 0 0.00936(7) 
Ba3 Ba2+ 2 i 0.21069(3) 0.42929(3) 0.55368(3) 1. 0 0.00761(7) 
Ba4 Ba2+ 2 i 0.78927(3) 0.05742(3) 0.44297(3) 1. 0 0.00813(7) 
Al1 Al3+ 2 i 0.41668(17) 0.71082(17) 0.29634(16) 1. 0 0.0067(3) 
Al2 Al3+ 2 i 0.54714(19) 0.66103(19) 0.00717(17) 1. 0 0.0112(3) 
Al3 Al3+ 2 i 0.89502(18) 0.86524(17) 0.18750(16) 1. 0 0.0076(3) 
Al4 Al3+ 2 i 0.87116(19) 0.36259(17) 0.20354(16) 1. 0 0.0082(3) 
Al5 Al3+ 2 i 0.42043(17) 0.20800(17) 0.29355(16) 1. 0 0.0065(3) 
B1 B3+ 2 i 0.0957(6) 0.7843(6) 0.3542(6) 1. 0 0.0075(10) 
B2 B3+ 2 i 0.5675(6) 0.9249(6) 0.3351(5) 1. 0 0.0066(10) 
B3 B3+ 2 i 0.5606(7) 0.4240(6) 0.3374(6) 1. 0 0.0085(11) 
B4 B3+ 2 i 0.8231(7) 0.6506(7) 0.0902(6) 1. 0 0.0121(12) 
B5 B3+ 2 i 0.8798(7) 0.1576(6) 0.0603(6) 1. 0 0.0105(11) 
B6 B3+ 2 i 0.0977(7) 0.2827(6) 0.3450(6) 1. 0 0.0086(11) 
O1 O2- 2 i 0.0768(5) 0.9132(4) 0.3805(4) 1. 0 0.0126(8) 
O2 O2- 2 i 0.2249(4) 0.6838(4) 0.3715(4) 1. 0 0.0093(7) 
O3 O2- 2 i -0.0035(4) 0.7458(4) 0.3005(4) 1. 0 0.0087(7) 
O4 O2- 2 i 0.5345(4) 0.0615(4) 0.3593(4) 1. 0 0.0113(8) 
O5 O2- 2 i 0.7125(4) 0.8545(4) 0.3219(4) 1. 0 0.0109(8) 
O6 O2- 2 i 0.4460(4) 0.8648(4) 0.3343(4) 1. 0 0.0135(8) 
O7 O2- 2 i 0.5373(4) 0.5619(4) 0.3531(4) 1. 0 0.0118(8) 
O8 O2- 2 i 0.7051(4) 0.3473(4) 0.3301(4) 1. 0 0.0106(8) 
O9 O2- 2 i 0.4406(4) 0.3645(4) 0.3352(4) 1. 0 0.0116(8) 
O10 O2- 2 i 0.8267(5) 0.7906(4) 0.0876(4) 1. 0 0.0120(8) 
O11 O2- 2 i 0.8945(4) 0.5432(4) 0.1677(4) 1. 0 0.0103(7) 
O12 O2- 2 i 0.7401(5) 0.6172(5) 0.0184(4) 1. 0 0.0186(9) 
O13 O2- 2 i 0.8590(5) 0.2969(4) 0.0759(4) 1. 0 0.0140(8) 
O14 O2- 2 i 0.9019(5) 0.1350(4) -0.0615(4) 1. 0 0.0135(8) 
O15 O2- 2 i 0.8814(4) 0.0530(4) 0.1678(4) 1. 0 0.0100(7) 
O16 O2- 2 i 0.0148(4) 0.2499(4) 0.2708(4) 1. 0 0.0124(8) 
O17 O2- 2 i 0.0631(4) 0.4069(4) 0.3843(4) 1. 0 0.0112(8) 
O18 O2- 2 i 0.2268(4) 0.1850(4) 0.3653(4) 1. 0 0.0096(7) 
O19 O2- 2 i 0.4263(4) 0.7322(4) 0.1347(4) 1. 0 0.0143(8) 
O20 O2- 2 i 0.5604(5) 0.7840(5) -0.1340(4) 1. 0 0.0163(9) 
O21 O2- 1 e 0.5 0.5 0 1. 0 0.0156(12) 

#End of data_183392-ICSD


