data_645008-ICSD
#?2014 by Fachinformationszentrum Karlsruhe, and the U.S. Secretary of 
#Commerce on behalf of the United States.  All rights reserved.
_database_code_ICSD                645008
_audit_creation_date               2013/08/01
_chemical_name_systematic          'Sodium Zinc Sulfide (2/1/2)'
_chemical_formula_structural       'Na2 Zn S2'
_chemical_formula_sum              'Na2 S2 Zn1'
_publ_section_title
;
Cation rich thiometallates of cobalt and zinc
;
loop_
_citation_id
_citation_journal_abbrev
_citation_year
_citation_journal_volume
_citation_page_first
_citation_page_last
_citation_journal_id_ASTM
primary 'Zeitschrift fuer Kristallographie (1979-2010)' 1983 162 134 135 ZEKRDZ
_publ_author_name                  'Klepp, K.O.;Bronger, W.'
_cell_length_a                     6.421(2)
_cell_length_b                     11.133(6)
_cell_length_c                     5.942(4)
_cell_angle_alpha                  90.0
_cell_angle_beta                   90.0
_cell_angle_gamma                  90.0
_cell_volume                       424.76
_cell_formula_units_Z              4
_symmetry_space_group_name_H-M     'I b a m'
_symmetry_Int_Tables_number        72
loop_
_symmetry_equiv_pos_site_id
_symmetry_equiv_pos_as_xyz
  1	'-x, y, z+.5'
  2	'x, -y, z+.5'
  3	'x, y, -z'
  4	'-x, -y, -z'
  5	'x, -y, -z+.5'
  6	'-x, y, -z+.5'
  7	'-x, -y, z'
  8	'x, y, z'
  9	'-x+.5, y+.5, z'
 10	'x+.5, -y+.5, z'
 11	'x+.5, y+.5, -z+.5'
 12	'-x+.5, -y+.5, -z+.5'
 13	'x+.5, -y+.5, -z'
 14	'-x+.5, y+.5, -z'
 15	'-x+.5, -y+.5, z+.5'
 16	'x+.5, y+.5, z+.5'
loop_
_atom_type_symbol
_atom_type_oxidation_number
Na1+	1
S2-	-2
Zn2+	2
loop_
_atom_site_label
_atom_site_type_symbol
_atom_site_symmetry_multiplicity
_atom_site_Wyckoff_symbol
_atom_site_fract_x
_atom_site_fract_y
_atom_site_fract_z
_atom_site_occupancy
_atom_site_attached_hydrogens
Zn1 Zn2+ 4 a 0 0 0.25 1. 0 
Na1 Na1+ 8 j 0.349 0.144 0 1. 0 
S1 S2- 8 j 0.212 0.899 0 1. 0 

#End of data_645008-ICSD


