data_27712-ICSD
#?2014 by Fachinformationszentrum Karlsruhe, and the U.S. Secretary of 
#Commerce on behalf of the United States.  All rights reserved.
_database_code_ICSD                27712
_audit_creation_date               1980/01/01
_audit_update_record               2010/02/01
_chemical_name_systematic          'Sodium Beryllium Phosphate(V)'
_chemical_formula_structural       'Na Be (P O4)'
_chemical_formula_sum              'Be1 Na1 O4 P1'
_chemical_name_mineral             Beryllonite
_publ_section_title
;
The crystal structure of beryllonite (Na Be P O4)
;
loop_
_citation_id
_citation_journal_abbrev
_citation_year
_citation_journal_volume
_citation_page_first
_citation_page_last
_citation_journal_id_ASTM
primary Kristallografiya 1961 6 909 917 KRISAJ
2 'Soviet Physics, Crystallography (= Kristallografiya)'
 1961 6 733 739 SPHCA6
3 'Doklady Akademii Nauk SSSR' 1962 142 1301 1304 DANKAS
_publ_author_name                  'Golovastikov, N.I.'
_cell_length_a                     8.16
_cell_length_b                     7.79
_cell_length_c                     14.08
_cell_angle_alpha                  90.
_cell_angle_beta                   90.
_cell_angle_gamma                  90.
_cell_volume                       895.01
_cell_formula_units_Z              12
_symmetry_space_group_name_H-M     'P 1 21/n 1'
_symmetry_Int_Tables_number        14
_refine_ls_R_factor_all            .16
loop_
_symmetry_equiv_pos_site_id
_symmetry_equiv_pos_as_xyz
  1	'-x+.5, y+.5, -z+.5'
  2	'-x, -y, -z'
  3	'x+.5, -y+.5, z+.5'
  4	'x, y, z'
loop_
_atom_type_symbol
_atom_type_oxidation_number
Be2+	2
Na1+	1
O2-	-2
P5+	5
loop_
_atom_site_label
_atom_site_type_symbol
_atom_site_symmetry_multiplicity
_atom_site_Wyckoff_symbol
_atom_site_fract_x
_atom_site_fract_y
_atom_site_fract_z
_atom_site_occupancy
_atom_site_attached_hydrogens
_atom_site_B_iso_or_equiv
P1 P5+ 4 e 0.921 0.788 0.238 1. 0 0.6 
P2 P5+ 4 e 0.106 0.291 0.081 1. 0 0.6 
P3 P5+ 4 e 0.432 0.79 0.092 1. 0 0.6 
Na1 Na1+ 4 e 0.248 0.044 0.248 1. 0 0.6 
Na2 Na1+ 4 e 0.747 0.472 0.084 1. 0 0.6 
Na3 Na1+ 4 e 0.763 0.031 0.069 1. 0 0.6 
O1 O2- 4 e 0.435 0.266 0.192 1. 0 0.6 
O2 O2- 4 e 0.066 0.268 0.188 1. 0 0.6 
O3 O2- 4 e 0.252 0.774 0.123 1. 0 0.6 
O4 O2- 4 e 0.739 0.253 0.214 1. 0 0.6 
O5 O2- 4 e 0.948 0.253 0.022 1. 0 0.6 
O6 O2- 4 e 0.552 0.252 0.016 1. 0 0.6 
O7 O2- 4 e 0.949 0.664 0.155 1. 0 0.6 
O8 O2- 4 e 0.239 0.171 0.053 1. 0 0.6 
O9 O2- 4 e 0.535 0.664 0.148 1. 0 0.6 
O10 O2- 4 e 0.923 0.964 0.198 1. 0 0.6 
O11 O2- 4 e 0.164 0.473 0.062 1. 0 0.6 
O12 O2- 4 e 0.495 0.971 0.11 1. 0 0.6 
Be1 Be2+ 4 e 0.917 0.161 0.239 1. 0 0.6 
Be2 Be2+ 4 e 0.103 0.662 0.082 1. 0 0.6 
Be3 Be2+ 4 e 0.431 0.165 0.09 1. 0 0.6 

#End of data_27712-ICSD


