data_166629-ICSD
#?2014 by Fachinformationszentrum Karlsruhe, and the U.S. Secretary of 
#Commerce on behalf of the United States.  All rights reserved.
_database_code_ICSD                166629
_audit_creation_date               2010/08/01
_audit_update_record               2013/08/01
_chemical_name_systematic
;
Tetrasodium Discandium Tetragermanate
;
_chemical_formula_structural       'Na4 Sc2 (Ge4 O13)'
_chemical_formula_sum              'Ge4 Na4 O13 Sc2'
_publ_section_title
;
Crystal structure of the Na, Sc-germanate Na4 Sc2 Ge4 O13
;
loop_
_citation_id
_citation_journal_abbrev
_citation_year
_citation_journal_volume
_citation_journal_issue
_citation_page_first
_citation_page_last
_citation_journal_id_ASTM
primary 'Doklady Akademii Nauk SSSR' 1973 211 3 591 594 DANKAS
_publ_author_name
;
Gorbunov, Yu.A.;Maximov, B.A.;Belov, N.V.
;
_cell_length_a                     14.30
_cell_length_b                     5.46
_cell_length_c                     14.65
_cell_angle_alpha                  90.
_cell_angle_beta                   90.
_cell_angle_gamma                  90.
_cell_volume                       1143.84
_cell_formula_units_Z              4
_symmetry_space_group_name_H-M     'P n a 21'
_symmetry_Int_Tables_number        33
_refine_ls_R_factor_all            .082
loop_
_symmetry_equiv_pos_site_id
_symmetry_equiv_pos_as_xyz
  1	'x+.5, -y+.5, z'
  2	'-x+.5, y+.5, z+.5'
  3	'-x, -y, z+.5'
  4	'x, y, z'
loop_
_atom_type_symbol
_atom_type_oxidation_number
Ge4+	4
Na1+	1
O2-	-2
Sc3+	3
loop_
_atom_site_label
_atom_site_type_symbol
_atom_site_symmetry_multiplicity
_atom_site_Wyckoff_symbol
_atom_site_fract_x
_atom_site_fract_y
_atom_site_fract_z
_atom_site_occupancy
_atom_site_attached_hydrogens
_atom_site_B_iso_or_equiv
Ge1 Ge4+ 4 a 0.020 0.154 0 1. 0 -0.1 
Ge2 Ge4+ 4 a 0.309 0.332 0.227 1. 0 -0.28 
Ge3 Ge4+ 4 a 0.440 0.198 0.814 1. 0 -0.21 
Ge4 Ge4+ 4 a 0.229 0.174 0.041 1. 0 -0.39 
Sc1 Sc3+ 4 a 0.170 0.197 0.421 1. 0 -0.13 
Sc2 Sc3+ 4 a 0.077 0.351 0.624 1. 0 -0.34 
Na1 Na1+ 4 a 0.331 0.177 0.617 1. 0 0.97 
Na2 Na1+ 4 a 0.420 0.158 0.421 1. 0 0.65 
Na3 Na1+ 4 a 0.053 0.191 0.212 1. 0 -0.02 
Na4 Na1+ 4 a 0.194 0.294 0.832 1. 0 0.76 
O1 O2- 4 a 0.122 -0.004 0.025 1. 0 -0.22 
O2 O2- 4 a 0.322 -0.023 0.027 1. 0 -0.10 
O3 O2- 4 a 0.211 0.230 0.157 1. 0 0.95 
O4 O2- 4 a 0.223 0.473 0.984 1. 0 -0.43 
O5 O2- 4 a 0.396 0.121 0.213 1. 0 -0.65 
O6 O2- 4 a 0.280 0.315 0.345 1. 0 -0.48 
O7 O2- 4 a 0.176 0.118 0.686 1. 0 1.38 
O8 O2- 4 a 0.034 0.223 0.880 1. 0 -1.81 
O9 O2- 4 a 0.058 0.062 0.521 1. 0 0.02 
O10 O2- 4 a 0.018 0.429 0.056 1. 0 0.89 
O11 O2- 4 a 0.355 0.401 0.856 1. 0 -0.72 
O12 O2- 4 a 0.075 0.378 0.341 1. 0 0.50 
O13 O2- 4 a 0.465 0.252 0.709 1. 0 -0.87 

#End of data_166629-ICSD


