data_417503-ICSD
#?2014 by Fachinformationszentrum Karlsruhe, and the U.S. Secretary of 
#Commerce on behalf of the United States.  All rights reserved.
_database_code_ICSD                417503
_audit_creation_date               2009/02/01
_chemical_name_systematic          'Dicalicium Silicate - Gamma'
_chemical_formula_structural       'Ca2 (Si O4)'
_chemical_formula_sum              'Ca2 O4 Si1'
_chemical_name_mineral             Calcio-olivine
_publ_section_title
;
Calcio-olivine gamma-Ca2 Si O4: I. Rietveld refinement of the crystal 
structure
;
loop_
_citation_id
_citation_journal_abbrev
_citation_year
_citation_journal_volume
_citation_journal_issue
_citation_page_first
_citation_page_last
_citation_journal_id_ASTM
primary Kristallografiya 2008 53 3 437 441 KRISAJ
2 'Crystallography Reports' 2008 53 3 404 408 CYSTE3
_publ_author_name
;
Gobechiya, E.R.;Yamnova, N.A.;Zadov, A.E.;Gazeev, V.M.
;
_cell_length_a                     5.07389(7)
_cell_length_b                     11.21128(14)
_cell_length_c                     6.75340(9)
_cell_angle_alpha                  90.
_cell_angle_beta                   90.
_cell_angle_gamma                  90.
_cell_volume                       384.17
_cell_formula_units_Z              4
_symmetry_space_group_name_H-M     'P b n m'
_symmetry_Int_Tables_number        62
_refine_ls_R_factor_all            .069
loop_
_symmetry_equiv_pos_site_id
_symmetry_equiv_pos_as_xyz
  1	'-x+.5, y+.5, z'
  2	'x, y, -z+.5'
  3	'x+.5, -y+.5, z+.5'
  4	'-x, -y, -z'
  5	'x+.5, -y+.5, -z'
  6	'-x, -y, z+.5'
  7	'-x+.5, y+.5, -z+.5'
  8	'x, y, z'
loop_
_atom_type_symbol
_atom_type_oxidation_number
Ca2+	2
O2-	-2
Si4+	4
loop_
_atom_site_label
_atom_site_type_symbol
_atom_site_symmetry_multiplicity
_atom_site_Wyckoff_symbol
_atom_site_fract_x
_atom_site_fract_y
_atom_site_fract_z
_atom_site_occupancy
_atom_site_attached_hydrogens
_atom_site_B_iso_or_equiv
Ca1 Ca2+ 4 a 0 0 0 1. 0 3.9(2) 
Ca2 Ca2+ 4 c 0.9890(15) 0.2796(6) 0.25 1. 0 3.8(2) 
Si1 Si4+ 4 c 0.4297(19) 0.0991(8) 0.25 1. 0 3.4(3) 
O1 O2- 4 c 0.741(3) 0.0902(17) 0.25 1. 0 3.6(6) 
O2 O2- 4 c 0.295(3) 0.9619(15) 0.25 1. 0 1.7(5) 
O3 O2- 8 d 0.300(2) 0.1604(10) 0.0596(17) 1. 0 2.6(4) 

#End of data_417503-ICSD


