data_261636-ICSD
#?2014 by Fachinformationszentrum Karlsruhe, and the U.S. Secretary of 
#Commerce on behalf of the United States.  All rights reserved.
_database_code_ICSD                261636
_audit_creation_date               2011/08/01
_chemical_name_systematic          'Calcium Dihydride'
_chemical_formula_structural       'Ca H2'
_chemical_formula_sum              'H2 Ca1'
_publ_section_title
;
Ca-intercalated graphite as a hydrogen storage material: Stability 
against decomposition into Ca H2 and graphite
;
loop_
_citation_id
_citation_journal_abbrev
_citation_year
_citation_journal_volume
_citation_journal_issue
_citation_page_first
_citation_page_last
_citation_journal_id_ASTM
primary 'Journal of Solid State Chemistry' 2011 184 6 1561 1565 JSSCBI
_publ_author_name
;
Wood, C.R.;Skipper, N.T.;Gillan, M.J.
;
_cell_length_a                     5.908
_cell_length_b                     3.570
_cell_length_c                     6.770
_cell_angle_alpha                  90.
_cell_angle_beta                   90.
_cell_angle_gamma                  90.
_cell_volume                       142.79
_cell_formula_units_Z              4
_symmetry_space_group_name_H-M     'P n m a'
_symmetry_Int_Tables_number        62
loop_
_symmetry_equiv_pos_site_id
_symmetry_equiv_pos_as_xyz
  1	'x+.5, y, -z+.5'
  2	'x, -y+.5, z'
  3	'-x+.5, y+.5, z+.5'
  4	'-x, -y, -z'
  5	'-x+.5, -y, z+.5'
  6	'-x, y+.5, -z'
  7	'x+.5, -y+.5, -z+.5'
  8	'x, y, z'
loop_
_atom_type_symbol
_atom_type_oxidation_number
Ca2+	2
H1-	-1
loop_
_atom_site_label
_atom_site_type_symbol
_atom_site_symmetry_multiplicity
_atom_site_Wyckoff_symbol
_atom_site_fract_x
_atom_site_fract_y
_atom_site_fract_z
_atom_site_occupancy
_atom_site_attached_hydrogens
Ca1 Ca2+ 4 c 0.239 0.25 0.110 1. 0 
H1 H1- 4 c 0.356 0.25 0.427 1. 0 
H2 H1- 4 c 0.975 0.25 0.676 1. 0 

#End of data_261636-ICSD


