data_72427-ICSD
#?2014 by Fachinformationszentrum Karlsruhe, and the U.S. Secretary of 
#Commerce on behalf of the United States.  All rights reserved.
_database_code_ICSD                72427
_audit_creation_date               1994/01/19
_chemical_name_systematic
;
Dipotassium Catena-tetraselenidocuprato(I)tantalate
;
_chemical_formula_structural       'K2 (Cu Ta Se4)'
_chemical_formula_sum              'Cu1 K2 Se4 Ta1'
_publ_section_title
;
Synthesis of the new one-dimensional quaternary compound K2CuTaSe4 
and its structural relationship to other compounds inthe K/Cu/M/Q 
(M=Nb, Ta;Q=S, Se) system
;
loop_
_citation_id
_citation_journal_abbrev
_citation_year
_citation_journal_volume
_citation_page_first
_citation_page_last
_citation_journal_id_ASTM
primary 'European Journal of Solid State Inorganic Chemistry'
 1993 30 101 110 EJSCE5
_publ_author_name                  'Lu, Y.-J.;Wu, P.;Ibers, J.A.'
_cell_length_a                     5.735(3)
_cell_length_b                     13.481(7)
_cell_length_c                     23.941(12)
_cell_angle_alpha                  90.
_cell_angle_beta                   90.
_cell_angle_gamma                  90.
_cell_volume                       1850.96
_cell_formula_units_Z              8
_symmetry_space_group_name_H-M     'F d d d Z'
_symmetry_Int_Tables_number        70
_refine_ls_R_factor_all            .067
loop_
_symmetry_equiv_pos_site_id
_symmetry_equiv_pos_as_xyz
  1	'x+.75, y+.75, -z'
  2	'x+.75, -y, z+.75'
  3	'-x, y+.75, z+.75'
  4	'-x, -y, -z'
  5	'-x+.25, -y+.25, z'
  6	'-x+.25, y, -z+.25'
  7	'x, -y+.25, -z+.25'
  8	'x, y, z'
  9	'x+.75, y+.25, -z+.5'
 10	'x+.25, y+.75, -z+.5'
 11	'x+.25, y+.25, -z'
 12	'x+.75, -y+.5, z+.25'
 13	'x+.25, -y, z+.25'
 14	'x+.25, -y+.5, z+.75'
 15	'-x, y+.25, z+.25'
 16	'-x+.5, y+.75, z+.25'
 17	'-x+.5, y+.25, z+.75'
 18	'-x, -y+.5, -z+.5'
 19	'-x+.5, -y, -z+.5'
 20	'-x+.5, -y+.5, -z'
 21	'-x+.25, -y+.75, z+.5'
 22	'-x+.75, -y+.25, z+.5'
 23	'-x+.75, -y+.75, z'
 24	'-x+.25, y+.5, -z+.75'
 25	'-x+.75, y, -z+.75'
 26	'-x+.75, y+.5, -z+.25'
 27	'x, -y+.75, -z+.75'
 28	'x+.5, -y+.25, -z+.75'
 29	'x+.5, -y+.75, -z+.25'
 30	'x, y+.5, z+.5'
 31	'x+.5, y, z+.5'
 32	'x+.5, y+.5, z'
loop_
_atom_type_symbol
_atom_type_oxidation_number
Cu1+	1
K1+	1
Se2-	-2
Ta5+	5
loop_
_atom_site_label
_atom_site_type_symbol
_atom_site_symmetry_multiplicity
_atom_site_Wyckoff_symbol
_atom_site_fract_x
_atom_site_fract_y
_atom_site_fract_z
_atom_site_occupancy
_atom_site_attached_hydrogens
Ta1 Ta5+ 8 b 0.125 0.125 0.625 1. 0 
Se1 Se2- 32 h 0.36584(29) 0.72823(10) 0.18235(7) 1. 0 
Cu1 Cu1+ 8 a 0.125 0.125 0.125 1. 0 
K1 K1+ 16 g 0.125 0.125 0.44543(27) 1. 0 

loop_
_atom_site_aniso_label
_atom_site_aniso_type_symbol
_atom_site_aniso_U_11
_atom_site_aniso_U_22
_atom_site_aniso_U_33
_atom_site_aniso_U_12
_atom_site_aniso_U_13
_atom_site_aniso_U_23
Ta1 Ta5+ 0.01225(49) 0.01635(48) 0.0202(6) 0 0 0
Se1 Se2- 0.02112(79) 0.02831(79) 0.0306(11) 0 0 0
Cu1 Cu1+ 0.0163(17) 0.0304(17) 0.0400(25) 0 0 0
K1 K1+ 0.0348(27) 0.0343(23) 0.0364(29) 0 0 0
#End of data_72427-ICSD


