data_74592-ICSD
#?2014 by Fachinformationszentrum Karlsruhe, and the U.S. Secretary of 
#Commerce on behalf of the United States.  All rights reserved.
_database_code_ICSD                74592
_audit_creation_date               1995/10/17
_audit_update_record               2003/04/01
_chemical_name_systematic          'Potassium Oxotitanium Arsenate(V)'
_chemical_formula_structural       'K (Ti O) (As O4)'
_chemical_formula_sum              'As1 K1 O5 Ti1'
_publ_section_title
;
High-temperature single-crystal X-ray diffraction studies of 
potassium and (cesium,potassium) titanyl arsenates
;
loop_
_citation_id
_citation_journal_abbrev
_citation_year
_citation_journal_volume
_citation_page_first
_citation_page_last
_citation_journal_id_ASTM
primary 'Chemistry of Materials' 1994 6 434 440 CMATEX
_publ_author_name
;
Northrup, P.A.;Parise, J.B.;Cheng, L.K.;Cheng, L.T.;McCarron, E.M.
;
_cell_length_a                     13.1924(20)
_cell_length_b                     6.6172(13)
_cell_length_c                     10.7450(19)
_cell_angle_alpha                  90.
_cell_angle_beta                   90.
_cell_angle_gamma                  90.
_cell_volume                       938
_cell_formula_units_Z              8
_symmetry_space_group_name_H-M     'P n a 21'
_symmetry_Int_Tables_number        33
_refine_ls_R_factor_all            .052
loop_
_symmetry_equiv_pos_site_id
_symmetry_equiv_pos_as_xyz
  1	'x+.5, -y+.5, z'
  2	'-x+.5, y+.5, z+.5'
  3	'-x, -y, z+.5'
  4	'x, y, z'
loop_
_atom_type_symbol
_atom_type_oxidation_number
As5+	5
K1+	1
O2-	-2
Ti4+	4
loop_
_atom_site_label
_atom_site_type_symbol
_atom_site_symmetry_multiplicity
_atom_site_Wyckoff_symbol
_atom_site_fract_x
_atom_site_fract_y
_atom_site_fract_z
_atom_site_occupancy
_atom_site_attached_hydrogens
_atom_site_B_iso_or_equiv
K1 K1+ 4 a 0.3811(6) 0.7819(10) 0.3321(11) 1. 0 6.8(4) 
K2 K1+ 4 a 0.1083(5) 0.7019(10) 0.0856(10) 1. 0 5.9(4) 
Ti1 Ti4+ 4 a 0.8736(2) 0.9963(4) 0 1. 0 1.2(1) 
Ti2 Ti4+ 4 a 0.2495(2) 0.2664(4) 0.2501(5) 1. 0 1.2(1) 
As1 As5+ 4 a 0.4995(1) 0.3277(2) 0.2577(5) 1. 0 1.12(4) 
As2 As5+ 4 a 0.1801(1) 0.5029(2) 0.5107(4) 1. 0 1.19(4) 
O1 O2- 4 a 0.9889(13) 0.014(3) 0.1375(17) 1. 0 2.5(6) 
O2 O2- 4 a 0.5081(11) 0.467(4) 0.3848(19) 1. 0 2.9(7) 
O3 O2- 4 a 0.3956(10) 0.182(2) 0.2773(18) 1. 0 2.3(6) 
O4 O2- 4 a 0.1008(9) 0.324(2) 0.2343(15) 1. 0 1.7(5) 
O5 O2- 4 a 0.3910(9) 0.804(2) 0.0508(17) 1. 0 2.3(6) 
O6 O2- 4 a 0.6082(13) 0.795(2) 0.4781(16) 1. 0 2.7(6) 
O7 O2- 4 a 0.2407(10) 0.040(3) 0.1334(16) 1. 0 2.4(6) 
O8 O2- 4 a 0.2583(13) 0.459(3) 0.3895(17) 1. 0 2.8(6) 
O9 O2- 4 a 0.2195(12) 0.053(3) 0.3885(15) 1. 0 1.9(5) 
O10 O2- 4 a 0.2805(12) 0.454(3) 0.1396(15) 1. 0 2.1(5) 

#End of data_74592-ICSD


