data_169995-ICSD
#?2014 by Fachinformationszentrum Karlsruhe, and the U.S. Secretary of 
#Commerce on behalf of the United States.  All rights reserved.
_database_code_ICSD                169995
_audit_creation_date               2011/08/01
_chemical_name_systematic          'Silver Thallium Tellurate(IV)'
_chemical_formula_structural       'Ag Tl (Te O3)'
_chemical_formula_sum              'Ag1 O3 Te1 Tl1'
_publ_section_title
;
Crystal structure and dynamical properties of a new tellurite: Ag Tl 
Te O3
;
loop_
_citation_id
_citation_journal_abbrev
_citation_year
_citation_journal_volume
_citation_page_first
_citation_page_last
_citation_journal_id_ASTM
primary 'Materials Research Bulletin' 2010 45 1883 1888 MRBUAC
_publ_author_name
;
Linda, D.;Dutreilh-Colas, M.;Loukil, M.;Mirgorodsky, A.;Masson, 
O.;Duclere, J.R.;Thomas, P.;Kabadou, A.
;
_cell_length_a                     14.708(7)
_cell_length_b                     10.745(6)
_cell_length_c                     5.166(3)
_cell_angle_alpha                  90.
_cell_angle_beta                   90.
_cell_angle_gamma                  90.
_cell_volume                       816.42
_cell_formula_units_Z              8
_symmetry_space_group_name_H-M     'I b a 2'
_symmetry_Int_Tables_number        45
_refine_ls_R_factor_all            .0374
loop_
_symmetry_equiv_pos_site_id
_symmetry_equiv_pos_as_xyz
  1	'x, -y, z+.5'
  2	'-x, y, z+.5'
  3	'-x, -y, z'
  4	'x, y, z'
  5	'x+.5, -y+.5, z'
  6	'-x+.5, y+.5, z'
  7	'-x+.5, -y+.5, z+.5'
  8	'x+.5, y+.5, z+.5'
loop_
_atom_type_symbol
_atom_type_oxidation_number
Ag1+	1
O2-	-2
Te4+	4
Tl1+	1
loop_
_atom_site_label
_atom_site_type_symbol
_atom_site_symmetry_multiplicity
_atom_site_Wyckoff_symbol
_atom_site_fract_x
_atom_site_fract_y
_atom_site_fract_z
_atom_site_occupancy
_atom_site_attached_hydrogens
_atom_site_U_iso_or_equiv
Tl1 Tl1+ 8 c 0.40918(6) 0.12024(5) 0.5062(3) 1. 0 0.0182(6) 
Ag1 Ag1+ 8 c 0.25709(11) 0.12125(10) 0.0037(15) 1. 0 0.0252(7) 
Te1 Te4+ 8 c 0.39837(12) 0.37217(7) 0.0057(12) 1. 0 0.0098(6) 
O1 O2- 8 c 0.2727(10) 0.3904(9) 0.010(7) 1. 0 0.033(4) 
O2 O2- 8 c 0.4021(8) 0.2008(9) 0.010(8) 1. 0 0.056(5) 
O3 O2- 8 c 0.4006(10) 0.3619(10) 0.639(4) 1. 0 0.017(3) 

loop_
_atom_site_aniso_label
_atom_site_aniso_type_symbol
_atom_site_aniso_U_11
_atom_site_aniso_U_22
_atom_site_aniso_U_33
_atom_site_aniso_U_12
_atom_site_aniso_U_13
_atom_site_aniso_U_23
Tl1 Tl1+ 0.0129(7) 0.0140(7) 0.0277(7) 0.0006(3) -0.001(3) -0.0006(9)
Ag1 Ag1+ 0.0109(13) 0.0335(12) 0.0311(11) -0.0098(5) 0.006(3) -0.0008(15)
Te1 Te4+ 0.0034(9) 0.0092(9) 0.0167(10) -0.0009(3) -0.004(6) 0.0022(13)
O1 O2- 0.017(7) 0.036(8) 0.045(8) -0.009(5) -0.003(18) -0.036(13)
O2 O2- 0.021(7) 0.008(6) 0.140(14) -0.009(5) -0.032(18) -0.039(19)
O3 O2- 0.026(9) 0.018(7) 0.008(7) -0.008(6) -0.001(6) -0.005(6)
#End of data_169995-ICSD


