data_412477-ICSD
#?2014 by Fachinformationszentrum Karlsruhe, and the U.S. Secretary of 
#Commerce on behalf of the United States.  All rights reserved.
_database_code_ICSD                412477
_audit_creation_date               2005/04/01
_chemical_name_systematic
;
Disilver Potassium Tetrathiotantalate
;
_chemical_formula_structural       'Ag2 K (Ta Se4)'
_chemical_formula_sum              'Ag2 K1 Se4 Ta1'
_publ_section_title
;
Syntheses and crystal structures of new quaternary Ag-containing 
group 5 chalcogenides: K Ag2 M(V) Se4 and K3 Ag3 M(V)2 S8 (M(V) = Nb, 
Ta)
;
loop_
_citation_id
_citation_journal_abbrev
_citation_year
_citation_journal_volume
_citation_journal_issue
_citation_page_first
_citation_page_last
_citation_journal_id_ASTM
primary 'Bulletin of the Chemical Society of Japan' 2004 77 3 505 509 BCSJA8
_publ_author_name
;
Chen Wen Tong;Ma Hong Wei;Guo Guo Cong;Deng Lei;Zhou Guowei;Dong 
Zhenchao;Huang Jinshun
;
_cell_length_a                     7.8103(16)
_cell_length_b                     19.004(4)
_cell_length_c                     5.7303(11)
_cell_angle_alpha                  90.00
_cell_angle_beta                   90.00
_cell_angle_gamma                  90.00
_cell_volume                       850.53
_cell_formula_units_Z              4
_symmetry_space_group_name_H-M     'A m a 2'
_symmetry_Int_Tables_number        40
_refine_ls_R_factor_all            .0506
loop_
_symmetry_equiv_pos_site_id
_symmetry_equiv_pos_as_xyz
  1	'x+.5, -y, z'
  2	'-x+.5, y, z'
  3	'-x, -y, z'
  4	'x, y, z'
  5	'x+.5, -y+.5, z+.5'
  6	'-x+.5, y+.5, z+.5'
  7	'-x, -y+.5, z+.5'
  8	'x, y+.5, z+.5'
loop_
_atom_type_symbol
_atom_type_oxidation_number
Ag1+	1
K1+	1
Se2-	-2
Ta5+	5
loop_
_atom_site_label
_atom_site_type_symbol
_atom_site_symmetry_multiplicity
_atom_site_Wyckoff_symbol
_atom_site_fract_x
_atom_site_fract_y
_atom_site_fract_z
_atom_site_occupancy
_atom_site_attached_hydrogens
_atom_site_U_iso_or_equiv
Ta1 Ta5+ 4 b 0.2500 0.110133(10) 0.40618(5) 1 0 0.01308(5) 
Ag1 Ag1+ 4 b 0.2500 0.10757(4) 0.9144(3) 1 0 0.0490(2) 
Ag2 Ag1+ 4 a 0.0000 0.0000 0.3881(2) 1 0 0.0512(2) 
Se1 Se2- 4 b 0.2500 0.00365(3) 0.64757(12) 1 0 0.01509(14) 
Se2 Se2- 4 b 0.2500 0.21238(4) 0.65040(14) 1 0 0.0323(2) 
Se3 Se2- 8 c -0.00584(8) 0.10942(2) 0.15658(12) 1 0 0.02211(12) 
K1 K1+ 4 b 0.2500 0.31663(11) 0.1519(5) 1 0 0.0470(6) 

loop_
_atom_site_aniso_label
_atom_site_aniso_type_symbol
_atom_site_aniso_U_11
_atom_site_aniso_U_22
_atom_site_aniso_U_33
_atom_site_aniso_U_12
_atom_site_aniso_U_13
_atom_site_aniso_U_23
Ta1 Ta5+ 0.01519(9) 0.01204(9) 0.01201(9) 0.000 0.000 -0.00036(13)
Ag1 Ag1+ 0.0561(4) 0.0522(4) 0.0388(3) 0.000 0.000 -0.0013(5)
Ag2 Ag1+ 0.0453(4) 0.0519(4) 0.0564(4) -0.0061(3) 0.000 0.000
Se1 Se2- 0.0164(3) 0.0134(2) 0.0155(3) 0.000 0.000 0.0031(3)
Se2 Se2- 0.0667(5) 0.0118(3) 0.0184(3) 0.000 0.000 -0.0023(3)
Se3 Se2- 0.0158(2) 0.0283(2) 0.0222(2) 0.00272(16) -0.00247(19) 0.0056(2)
K1 K1+ 0.0680(13) 0.0396(9) 0.0334(9) 0.000 0.000 0.0026(10)
#End of data_412477-ICSD


