data_67691-ICSD
#?2014 by Fachinformationszentrum Karlsruhe, and the U.S. Secretary of 
#Commerce on behalf of the United States.  All rights reserved.
_database_code_ICSD                67691
_audit_creation_date               1994/01/19
_audit_update_record               2012/08/01
_chemical_name_systematic          'Dicalcium Magnesium Disilicate'
_chemical_formula_structural       'Ca2 Mg (Si2 O7)'
_chemical_formula_sum              'Ca2 Mg1 O7 Si2'
_chemical_name_mineral             Akermanite
_publ_section_title
;
Neutron Diffraction Study of the Akermanite-Gehlenite Solid Solution 
Series
;
loop_
_citation_id
_citation_journal_abbrev
_citation_year
_citation_journal_volume
_citation_page_first
_citation_page_last
_citation_journal_id_ASTM
primary 'Physics and Chemistry of Minerals' 1992 19 185 195 PCMIDU
_publ_author_name
;
Swainson, I.P.;Dove, M.T.;Schmahl, W.W.;Putnis, A.
;
_cell_length_a                     7.8288(8)
_cell_length_b                     7.8288(8)
_cell_length_c                     5.0052(5)
_cell_angle_alpha                  90.
_cell_angle_beta                   90.
_cell_angle_gamma                  90.
_cell_volume                       306.77
_cell_formula_units_Z              2
_symmetry_space_group_name_H-M     'P -4 21 m'
_symmetry_Int_Tables_number        113
_refine_ls_R_factor_all            .056
loop_
_symmetry_equiv_pos_site_id
_symmetry_equiv_pos_as_xyz
  1	'-y+.5, -x+.5, z'
  2	'y, -x, -z'
  3	'y+.5, x+.5, z'
  4	'-y, x, -z'
  5	'x+.5, -y+.5, -z'
  6	'-x, -y, z'
  7	'-x+.5, y+.5, -z'
  8	'x, y, z'
loop_
_atom_type_symbol
_atom_type_oxidation_number
Ca2+	2
Mg2+	2
O2-	-2
Si4+	4
loop_
_atom_site_label
_atom_site_type_symbol
_atom_site_symmetry_multiplicity
_atom_site_Wyckoff_symbol
_atom_site_fract_x
_atom_site_fract_y
_atom_site_fract_z
_atom_site_occupancy
_atom_site_attached_hydrogens
Ca1 Ca2+ 4 e 0.3320(2) 0.1680(2) 0.5050(2) 1. 0 
Mg1 Mg2+ 2 a 0 0 0 1. 0 
Si1 Si4+ 4 e 0.1395(2) 0.3605(2) 0.9334(3) 1. 0 
O1 O2- 2 c 0.5 0 0.1775(4) 1. 0 
O2 O2- 4 e 0.1409(1) 0.3591(1) 0.2547(3) 1. 0 
O3 O2- 8 f 0.0816(1) 0.1870(1) 0.7879(2) 1. 0 

loop_
_atom_site_aniso_label
_atom_site_aniso_type_symbol
_atom_site_aniso_B_11
_atom_site_aniso_B_22
_atom_site_aniso_B_33
_atom_site_aniso_B_12
_atom_site_aniso_B_13
_atom_site_aniso_B_23
Ca1 Ca2+ 2.68(5) 2.68(5) 0.63(6) 0.58(4) -.28(3) -.28(3)
Mg1 Mg2+ 1.47(8) 1.47(8) 1.58(10) 0 0 0
Si1 Si4+ 0.48(6) 0.48(6) 0.10(8) 0.04(4) -.07(2) -.07(2)
O1 O2- 2.48(7) 2.48(7) 0.29(9) -1.07(5) 0 0
O2 O2- 2.47(6) 2.47(6) 0.40(6) 0 0.55(4) 0.55(4)
O3 O2- 3.99(6) 1.09(5) 1.26(5) -.22(2) 0.42(2) -.41(2)
#End of data_67691-ICSD


