data_80170-ICSD
#?2014 by Fachinformationszentrum Karlsruhe, and the U.S. Secretary of 
#Commerce on behalf of the United States.  All rights reserved.
_database_code_ICSD                80170
_audit_creation_date               1996/10/14
_chemical_name_systematic
;
Potassium Chloride Hexafluororhenate(IV)
;
_chemical_formula_structural       'K3 Cl (Re F6)'
_chemical_formula_sum              'Cl1 F6 K3 Re1'
_publ_section_title
;
Synthesis and X-ray characterization of potassium-chloride-
hexafluorometallates
;
loop_
_citation_id
_citation_journal_abbrev
_citation_year
_citation_journal_volume
_citation_page_first
_citation_page_last
_citation_journal_id_ASTM
primary 'Indian Journal of  Chemistry' 1995 34 563 566 ICACEC
_publ_author_name                  'Mueller, H.;Abberger, S.'
_cell_length_a                     8.481
_cell_length_b                     8.481
_cell_length_c                     5.917
_cell_angle_alpha                  90.
_cell_angle_beta                   90.
_cell_angle_gamma                  90.
_cell_volume                       425.59
_cell_formula_units_Z              2
_symmetry_space_group_name_H-M     'P 4/m b m'
_symmetry_Int_Tables_number        127
loop_
_symmetry_equiv_pos_site_id
_symmetry_equiv_pos_as_xyz
  1	'y+.5, x+.5, -z'
  2	'-y+.5, -x+.5, -z'
  3	'-y, x, -z'
  4	'y, -x, -z'
  5	'x+.5, -y+.5, -z'
  6	'-x+.5, y+.5, -z'
  7	'x, y, -z'
  8	'-x, -y, -z'
  9	'-y+.5, -x+.5, z'
 10	'y+.5, x+.5, z'
 11	'y, -x, z'
 12	'-y, x, z'
 13	'-x+.5, y+.5, z'
 14	'x+.5, -y+.5, z'
 15	'-x, -y, z'
 16	'x, y, z'
loop_
_atom_type_symbol
_atom_type_oxidation_number
Cl1-	-1
F1-	-1
K1+	1
Re4+	4
loop_
_atom_site_label
_atom_site_type_symbol
_atom_site_symmetry_multiplicity
_atom_site_Wyckoff_symbol
_atom_site_fract_x
_atom_site_fract_y
_atom_site_fract_z
_atom_site_occupancy
_atom_site_attached_hydrogens
K1 K1+ 2 a 0 0 0 1. 0 
K2 K1+ 4 h 0.205 0.705 0.5 1. 0 
Cl1 Cl1- 2 b 0 0 0.5 1. 0 
Re1 Re4+ 2 d 0 0.5 0 1. 0 
F1 F1- 4 g 0.155 0.655 0 1. 0 
F2 F1- 8 k 0.39 0.89 0.216 1. 0 

#End of data_80170-ICSD


