data_32036-ICSD
#?2014 by Fachinformationszentrum Karlsruhe, and the U.S. Secretary of 
#Commerce on behalf of the United States.  All rights reserved.
_database_code_ICSD                32036
_audit_creation_date               1980/01/01
_audit_update_record               2004/10/01
_chemical_name_systematic
;
Sodium Gold Gold(III) Iodide (1/0.5/0.5/3)
;
_chemical_formula_structural       'K Au I3'
_chemical_formula_sum              'Au1 I3 K1'
_publ_section_title
;
Die Kristallstruktur der Salze K2 Au2 I6 und Cs2 Agx Au(I)1-x Au(III) 
Br6. Ein Beitrag zur Kristallchemie der 
Alkalihexahalogenoaurate(I,III)
;
loop_
_citation_id
_citation_journal_abbrev
_citation_year
_citation_journal_volume
_citation_page_first
_citation_page_last
_citation_journal_id_ASTM
primary
;
Zeitschrift fuer Naturforschung, Teil B. Anorganische Chemie, 
Organische Chemie (33,1978-41,1986)
;
 1979 34 1047 1052 ZNBAD2
_publ_author_name
;
Straehle, J.;Gelinek, J.;Koelmel, M.;Nemecek, A.M.
;
_cell_length_a                     7.283(3)
_cell_length_b                     9.259(3)
_cell_length_c                     11.587(5)
_cell_angle_alpha                  90.
_cell_angle_beta                   93.0(1)
_cell_angle_gamma                  90.
_cell_volume                       780.28
_cell_formula_units_Z              4
_symmetry_space_group_name_H-M     'P 1 21/n 1'
_symmetry_Int_Tables_number        14
_refine_ls_R_factor_all            .095
loop_
_symmetry_equiv_pos_site_id
_symmetry_equiv_pos_as_xyz
  1	'-x+.5, y+.5, -z+.5'
  2	'-x, -y, -z'
  3	'x+.5, -y+.5, z+.5'
  4	'x, y, z'
loop_
_atom_type_symbol
_atom_type_oxidation_number
Au1+	1
Au3+	3
I1-	-1
K1+	1
loop_
_atom_site_label
_atom_site_type_symbol
_atom_site_symmetry_multiplicity
_atom_site_Wyckoff_symbol
_atom_site_fract_x
_atom_site_fract_y
_atom_site_fract_z
_atom_site_occupancy
_atom_site_attached_hydrogens
_atom_site_B_iso_or_equiv
Au1 Au1+ 2 a 0 0 0 1. 0 2.7 
Au2 Au3+ 2 b 0 0 0.5 1. 0 1.8 
K1 K1+ 4 e 0.062(2) 0.386(2) 0.248(1) 1. 0 3.5 
I1 I1- 4 e -.0771(5) -.0071(5) 0.2742(3) 1. 0 3.5 
I2 I1- 4 e 0.2933(5) 0.1595(4) 0.4677(3) 1. 0 2.7 
I3 I1- 4 e 0.2912(5) 0.1526(4) 0.0352(3) 1. 0 2.8 

#End of data_32036-ICSD


