data_280327-ICSD
#?2014 by Fachinformationszentrum Karlsruhe, and the U.S. Secretary of 
#Commerce on behalf of the United States.  All rights reserved.
_database_code_ICSD                280327
_audit_creation_date               2002/04/01
_chemical_name_systematic
;
Dipotassium Tecto-titanotrisilicate Hydrate
;
_chemical_formula_structural       'K2 (Ti Si3 O9) (H2 O)'
_chemical_formula_sum              'H2 K2 O10 Si3 Ti1'
_publ_section_title                K2TiSi3O9xH2O
loop_
_citation_id
_citation_journal_abbrev
_citation_year
_citation_journal_volume
_citation_page_first
_citation_page_last
_citation_journal_id_ASTM
primary 'Acta Crystallographica, Section C: Crystal Structure Communications'
 2000 56 738 739 ACSCEE
_publ_author_name                  'Zou, X.;Dadachov, M.S.'
_cell_length_a                     7.1543(7)
_cell_length_b                     9.9408(11)
_cell_length_c                     12.946(1)
_cell_angle_alpha                  90.
_cell_angle_beta                   90.
_cell_angle_gamma                  90.
_cell_volume                       920.71
_cell_formula_units_Z              4
_symmetry_space_group_name_H-M     'P 21 21 21'
_symmetry_Int_Tables_number        19
_refine_ls_R_factor_all            .036
loop_
_symmetry_equiv_pos_site_id
_symmetry_equiv_pos_as_xyz
  1	'-x, y+.5, -z+.5'
  2	'x+.5, -y+.5, -z'
  3	'-x+.5, -y, z+.5'
  4	'x, y, z'
loop_
_atom_type_symbol
_atom_type_oxidation_number
H1+	1
K1+	1
O2-	-2
Si4+	4
Ti4+	4
loop_
_atom_site_label
_atom_site_type_symbol
_atom_site_symmetry_multiplicity
_atom_site_Wyckoff_symbol
_atom_site_fract_x
_atom_site_fract_y
_atom_site_fract_z
_atom_site_occupancy
_atom_site_attached_hydrogens
_atom_site_U_iso_or_equiv
Ti1 Ti4+ 4 a 0.24091(8) 0.45398(5) 0.71163(4) 1. 0 0 
K1 K1+ 4 a 0.20469(12) 0.93268(9) 0.92120(7) 1. 0 0 
K2 K1+ 4 a 0.15175(16) 0.79399(10) 0.63473(7) 1. 0 0 
Si1 Si4+ 4 a 0.26869(12) 0.46207(9) 0.45344(6) 1. 0 0 
Si2 Si4+ 4 a 0.49308(13) 0.17930(9) 0.67332(7) 1. 0 0 
Si3 Si4+ 4 a 0.08136(13) 0.14281(9) 0.66836(7) 1. 0 0 
O1 O2- 4 a 0.4507(3) 0.3365(2) 0.69111(19) 1. 0 0 
O2 O2- 4 a 0.2992(3) 0.0959(2) 0.65008(19) 1. 0 0 
O3 O2- 4 a 0.0723(3) 0.3020(2) 0.68961(17) 1. 0 0 
O4 O2- 4 a 0.1235(3) 0.3372(2) 0.42936(19) 1. 0 0 
O5 O2- 4 a 0.0109(3) 0.5599(2) 0.73828(18) 1. 0 0 
O6 O2- 4 a 0.2553(3) 0.4247(2) 0.86425(17) 1. 0 0 
O7 O2- 4 a 0.4799(3) 0.3989(3) 0.44128(18) 1. 0 0 
O8 O2- 4 a 0.3975(3) 0.6140(2) 0.73005(18) 1. 0 0 
O9 O2- 4 a 0.2292(4) 0.5138(2) 0.56809(17) 1. 0 0 
O10 O2- 4 a 0.3756(5) 0.1830(3) 0.9343(2) 1. 0 0 
H1 H1+ 4 a 0.342(7) 0.270(3) 0.909(4) 1. 0 0.042 
H2 H1+ 4 a 0.474(6) 0.153(5) 0.897(4) 1. 0 0.042 

loop_
_atom_site_aniso_label
_atom_site_aniso_type_symbol
_atom_site_aniso_U_11
_atom_site_aniso_U_22
_atom_site_aniso_U_33
_atom_site_aniso_U_12
_atom_site_aniso_U_13
_atom_site_aniso_U_23
Ti1 Ti4+ 0.0040(3) 0.0049(2) 0.0038(2) 0.0010(2) 0.0002(2) -.0005(2)
K1 K1+ 0.0211(4) 0.0207(4) 0.0191(4) 0.0011(3) -.0085(4) -.0028(3)
K2 K1+ 0.0395(6) 0.0222(4) 0.0163(4) 0.0103(4) 0.0074(4) 0.0078(4)
Si1 Si4+ 0.0034(4) 0.0057(4) 0.0030(3) 0.0001(4) 0.0001(3) 0.0002(3)
Si2 Si4+ 0.0029(4) 0.0059(4) 0.0050(4) 0.0018(3) 0.0002(3) -.0004(3)
Si3 Si4+ 0.0030(4) 0.0059(4) 0.0051(4) -.0007(3) -.0004(3) 0.0001(3)
O1 O2- 0.0077(11) 0.0068(11) 0.0097(12) 0.0001(9) 0.0010(9) -.0012(9)
O2 O2- 0.0049(11) 0.0094(11) 0.0184(13) 0.0006(9) 0.0011(9) -.0047(10)
O3 O2- 0.0054(10) 0.0092(11) 0.0093(12) -.0024(9) -.0008(9) 0.0004(9)
O4 O2- 0.0134(12) 0.0105(11) 0.0077(11) -.0045(10) -.0052(9) 0.0018(9)
O5 O2- 0.0083(10) 0.0098(11) 0.0078(11) 0.0032(10) -.0001(9) -.0020(9)
O6 O2- 0.0090(11) 0.0096(10) 0.0041(9) -.0001(11) -.0004(9) -.0003(8)
O7 O2- 0.0072(11) 0.0140(11) 0.0062(12) 0.0049(10) -.0008(9) -.0001(9)
O8 O2- 0.0112(12) 0.0087(11) 0.0073(11) -.0028(9) -.0019(9) -.0008(9)
O9 O2- 0.0094(12) 0.0095(10) 0.0034(10) -.0001(9) 0.0006(9) 0.0015(8)
O10 O2- 0.043(2) 0.0221(15) 0.0195(14) 0.0142(14) 0.0137(13) 0.0073(12)
#End of data_280327-ICSD


