data_418945-ICSD
#?2014 by Fachinformationszentrum Karlsruhe, and the U.S. Secretary of 
#Commerce on behalf of the United States.  All rights reserved.
_database_code_ICSD                418945
_audit_creation_date               2008/08/01
_chemical_name_systematic
;
Tetracalcium Dinitrido Nitridocarbonate
;
_chemical_formula_structural       'Ca4 N2 (C N2)'
_chemical_formula_sum              'C1 Ca4 N4'
_publ_section_title
;
Calcium carbodiimide compounds revisited - Syntheses, single crystal 
structure determination and vibrational spectra of Ca11 N6 [C N2]2, 
Ca4 N2 [C N2] and Ca [C N2]
;
loop_
_citation_id
_citation_journal_abbrev
_citation_year
_citation_journal_volume
_citation_journal_issue
_citation_page_first
_citation_page_last
_citation_journal_id_ASTM
primary 'Zeitschrift fuer Naturforschung, B: Chemical Sciences'
 2008 63 5 530 536 ZNBSEN
_publ_author_name                  'Reckeweg, O.;DiSalvo, F.J.'
_cell_length_a                     11.4651(11)
_cell_length_b                     3.5833(4)
_cell_length_c                     13.8577(13)
_cell_angle_alpha                  90.00
_cell_angle_beta                   90.00
_cell_angle_gamma                  90.00
_cell_volume                       569.31
_cell_formula_units_Z              4
_symmetry_space_group_name_H-M     'P n m a'
_symmetry_Int_Tables_number        62
_refine_ls_R_factor_all            .0387
loop_
_symmetry_equiv_pos_site_id
_symmetry_equiv_pos_as_xyz
  1	'x+.5, y, -z+.5'
  2	'x, -y+.5, z'
  3	'-x+.5, y+.5, z+.5'
  4	'-x, -y, -z'
  5	'-x+.5, -y, z+.5'
  6	'-x, y+.5, -z'
  7	'x+.5, -y+.5, -z+.5'
  8	'x, y, z'
loop_
_atom_type_symbol
_atom_type_oxidation_number
C4+	4
Ca2+	2
N3-	-3
loop_
_atom_site_label
_atom_site_type_symbol
_atom_site_symmetry_multiplicity
_atom_site_Wyckoff_symbol
_atom_site_fract_x
_atom_site_fract_y
_atom_site_fract_z
_atom_site_occupancy
_atom_site_attached_hydrogens
_atom_site_U_iso_or_equiv
Ca1 Ca2+ 4 c 0.61349(15) 0.2500 0.32765(12) 1 0 0.0089(6) 
Ca2 Ca2+ 4 c 0.37966(16) 0.2500 0.46003(12) 1 0 0.0090(6) 
Ca3 Ca2+ 4 c 0.87770(14) 0.2500 0.61528(12) 1 0 0.0099(6) 
Ca4 Ca2+ 4 c 0.64096(15) 0.2500 0.73977(12) 1 0 0.0088(6) 
N1 N3- 4 c 0.2333(6) 0.2500 0.3158(5) 1 0 0.010(2) 
N2 N3- 4 c 0.4989(6) 0.2500 0.6176(5) 1 0 0.009(2) 
N3 N3- 4 c 0.7682(7) 0.2500 0.4569(5) 1 0 0.018(2) 
N4 N3- 4 c 0.9544(7) 0.2500 0.3703(6) 1 0 0.020(2) 
C1 C4+ 4 c 0.8611(8) 0.2500 0.4137(6) 1 0 0.011(2) 

loop_
_atom_site_aniso_label
_atom_site_aniso_type_symbol
_atom_site_aniso_U_11
_atom_site_aniso_U_22
_atom_site_aniso_U_33
_atom_site_aniso_U_12
_atom_site_aniso_U_13
_atom_site_aniso_U_23
Ca1 Ca2+ 0.0092(9) 0.0064(17) 0.0111(9) 0.000 0.0027(7) 0.000
Ca2 Ca2+ 0.0091(10) 0.0097(16) 0.0081(9) 0.000 -0.0002(6) 0.000
Ca3 Ca2+ 0.0082(9) 0.0112(16) 0.0103(9) 0.000 -0.0002(7) 0.000
Ca4 Ca2+ 0.0076(8) 0.0083(16) 0.0106(8) 0.000 -0.0004(7) 0.000
N1 N3- 0.011(4) 0.010(6) 0.009(4) 0.000 -0.001(3) 0.000
N2 N3- 0.007(3) 0.014(6) 0.007(4) 0.000 -0.002(3) 0.000
N3 N3- 0.018(4) 0.022(7) 0.014(4) 0.000 0.001(3) 0.000
N4 N3- 0.014(4) 0.026(8) 0.021(4) 0.000 0.000(3) 0.000
C1 C4+ 0.0092(9) 0.0064(17) 0.0111(9) 0.000 0.0027(7) 0.000
#End of data_418945-ICSD


