data_250523-ICSD
#?2014 by Fachinformationszentrum Karlsruhe, and the U.S. Secretary of 
#Commerce on behalf of the United States.  All rights reserved.
_database_code_ICSD                250523
_audit_creation_date               2014/08/01
_chemical_name_systematic          'Zinc Telluro(IV)molybdate'
_chemical_formula_structural       'Zn (Te Mo O6)'
_chemical_formula_sum              'Mo1 O6 Te1 Zn1'
_publ_section_title
;
Zn Te Mo O6: a strong second-harmonic generation material originating 
from three types of asymmetric building units
;
loop_
_citation_id
_citation_journal_abbrev
_citation_year
_citation_journal_volume
_citation_journal_issue
_citation_page_first
_citation_page_last
_citation_journal_id_ASTM
primary 'Royal Society of Chemistry Advances' 2013 3 33 14000 14006 RSCACL
_publ_author_name
;
Zhao, Sangen;Luo, Junhua;Zhou, Pan;Zhang, Shu-Quan;Sun, Zhihua;Hong, 
Maochun
;
_cell_length_a                     5.0442(10)
_cell_length_b                     5.2642(11)
_cell_length_c                     8.9187(18)
_cell_angle_alpha                  90.00
_cell_angle_beta                   90.00
_cell_angle_gamma                  90.00
_cell_volume                       236.82
_cell_formula_units_Z              2
_symmetry_space_group_name_H-M     'P 21 21 2'
_symmetry_Int_Tables_number        18
_refine_ls_R_factor_all            .0336
loop_
_symmetry_equiv_pos_site_id
_symmetry_equiv_pos_as_xyz
  1	'-x+.5, y+.5, -z'
  2	'x+.5, -y+.5, -z'
  3	'-x, -y, z'
  4	'x, y, z'
loop_
_atom_type_symbol
_atom_type_oxidation_number
Mo6+	6
O2-	-2
Te4+	4
Zn2+	2
loop_
_atom_site_label
_atom_site_type_symbol
_atom_site_symmetry_multiplicity
_atom_site_Wyckoff_symbol
_atom_site_fract_x
_atom_site_fract_y
_atom_site_fract_z
_atom_site_occupancy
_atom_site_attached_hydrogens
_atom_site_U_iso_or_equiv
Zn1 Zn2+ 2 b 0.0000 0.5000 0.52363(19) 1 0 0.0140(5) 
Mo1 Mo6+ 2 a 0.5000 0.5000 0.81013(14) 1 0 0.0129(4) 
Te1 Te4+ 2 a 0.0000 0.0000 0.74477(10) 1 0 0.0111(4) 
O1 O2- 4 c 0.2223(19) 0.1742(17) 0.6090(12) 1 0 0.021(2) 
O2 O2- 4 c 0.2392(19) 0.6792(16) 0.7114(11) 1 0 0.0154(19) 
O3 O2- 4 c 0.3474(19) 0.2858(18) 0.9290(12) 1 0 0.022(2) 

loop_
_atom_site_aniso_label
_atom_site_aniso_type_symbol
_atom_site_aniso_U_11
_atom_site_aniso_U_22
_atom_site_aniso_U_33
_atom_site_aniso_U_12
_atom_site_aniso_U_13
_atom_site_aniso_U_23
Zn1 Zn2+ 0.0131(9) 0.0130(9) 0.0158(9) -0.0019(12) 0.000 0.000
Mo1 Mo6+ 0.0109(6) 0.0119(7) 0.0158(7) 0.0027(9) 0.000 0.000
Te1 Te4+ 0.0105(5) 0.0101(5) 0.0127(6) 0.0003(6) 0.000 0.000
O1 O2- 0.019(5) 0.014(4) 0.030(5) 0.008(4) 0.007(5) 0.005(4)
O2 O2- 0.019(5) 0.009(4) 0.018(4) -0.001(3) 0.005(5) -0.002(4)
O3 O2- 0.022(5) 0.023(5) 0.023(5) -0.001(4) 0.008(5) -0.001(5)
#End of data_250523-ICSD


