data_30200-ICSD
#?2014 by Fachinformationszentrum Karlsruhe, and the U.S. Secretary of 
#Commerce on behalf of the United States.  All rights reserved.
_database_code_ICSD                30200
_audit_creation_date               1980/01/01
_audit_update_record               2007/04/01
_chemical_name_systematic          'Silver Manganate(VII)'
_chemical_formula_structural       'Ag (Mn O4)'
_chemical_formula_sum              'Ag1 Mn1 O4'
_publ_section_title
;
Die Struktur des Silberpermanganats Ag Mn O4
;
loop_
_citation_id
_citation_journal_abbrev
_citation_year
_citation_journal_volume
_citation_page_first
_citation_page_last
_citation_journal_id_ASTM
primary
;
Zeitschrift fuer Kristallographie, Kristallgeometrie, Kristallphysik, 
Kristallchemie (-144,1977)
;
 1938 99 9 15 ZEKGAX
_publ_author_name                  'Sasvari, K.'
_cell_length_a                     5.665
_cell_length_b                     8.27
_cell_length_c                     7.127
_cell_angle_alpha                  90.
_cell_angle_beta                   92.
_cell_angle_gamma                  90.
_cell_volume                       333.69
_cell_formula_units_Z              4
_symmetry_space_group_name_H-M     'P 1 21/n 1'
_symmetry_Int_Tables_number        14
loop_
_symmetry_equiv_pos_site_id
_symmetry_equiv_pos_as_xyz
  1	'-x+.5, y+.5, -z+.5'
  2	'-x, -y, -z'
  3	'x+.5, -y+.5, z+.5'
  4	'x, y, z'
loop_
_atom_type_symbol
_atom_type_oxidation_number
Ag1+	1
Mn7+	7
O2-	-2
loop_
_atom_site_label
_atom_site_type_symbol
_atom_site_symmetry_multiplicity
_atom_site_Wyckoff_symbol
_atom_site_fract_x
_atom_site_fract_y
_atom_site_fract_z
_atom_site_occupancy
_atom_site_attached_hydrogens
Ag1 Ag1+ 4 e 0.25 0.31 0.34 1. 0 
Mn1 Mn7+ 4 e 0.25 -.03 -.31 1. 0 
O1 O2- 4 e 0.25 -.103 0.456 1. 0 
O2 O2- 4 e 0.25 0.175 0.605 1. 0 
O3 O2- 4 e 0.02 -.068 0.75 1. 0 
O4 O2- 4 e 0.48 -.068 0.75 1. 0 

#End of data_30200-ICSD


