data_250074-ICSD
#?2014 by Fachinformationszentrum Karlsruhe, and the U.S. Secretary of 
#Commerce on behalf of the United States.  All rights reserved.
_database_code_ICSD                250074
_audit_creation_date               2004/04/01
_chemical_name_systematic
;
Sodium Trigallium Bis(phosphate(V)) Tetrahydroxide
;
_chemical_formula_structural       'Na Ga3 (P O4)2 (O H)4'
_chemical_formula_sum              'H4 Ga3 Na1 O12 P2'
_chemical_name_mineral             'Brazilianite (Ga-exchanged)'
_publ_section_title
;
Gallium analogue of brazilianite Na Ga3 (P O4)2 (O H)4: synthesis and 
crystal structure
;
loop_
_citation_id
_citation_journal_abbrev
_citation_year
_citation_journal_volume
_citation_page_first
_citation_page_last
_citation_journal_id_ASTM
primary 'Zhurnal Neorganicheskoi Khimii' 2003 48 720 723 ZNOKAQ
_publ_author_name
;
Ruchkina, E.A.;Belokoneva, E.L.;Dimitrova, O.V.
;
_cell_length_a                     11.506(8)
_cell_length_b                     7.270(3)
_cell_length_c                     10.320(8)
_cell_angle_alpha                  90
_cell_angle_beta                   90
_cell_angle_gamma                  97.64(5)
_cell_volume                       855.59
_cell_formula_units_Z              4
_symmetry_space_group_name_H-M     'P 1 1 21/n'
_symmetry_Int_Tables_number        14
_refine_ls_R_factor_all            .0484
loop_
_symmetry_equiv_pos_site_id
_symmetry_equiv_pos_as_xyz
  1	'x+.5, y+.5, -z+.5'
  2	'-x, -y, -z'
  3	'-x+.5, -y+.5, z+.5'
  4	'x, y, z'
loop_
_atom_type_symbol
_atom_type_oxidation_number
Ga3+	3
H1+	1
Na1+	1
O2-	-2
P5+	5
loop_
_atom_site_label
_atom_site_type_symbol
_atom_site_symmetry_multiplicity
_atom_site_Wyckoff_symbol
_atom_site_fract_x
_atom_site_fract_y
_atom_site_fract_z
_atom_site_occupancy
_atom_site_attached_hydrogens
_atom_site_B_iso_or_equiv
Ga1 Ga3+ 4 e 0.0397(1) 0.5567(2) 0.2187(1) 1. 0 0.71(3) 
Ga2 Ga3+ 4 e 0.2641(1) 0.5100(2) 0.0620(2) 1. 0 0.60(3) 
Ga3 Ga3+ 4 e 0.4596(1) 0.4368(2) 0.2564(1) 1. 0 0.64(3) 
Na1 Na1+ 4 e 0.3057(7) 0.0401(9) 0.0746(7) 1. 0 2.50(2) 
P1 P5+ 4 e 0.1806(3) 0.2390(5) 0.3092(4) 1. 0 0.65(8) 
P2 P5+ 4 e 0.3089(3) 0.7541(5) 0.3255(4) 1. 0 0.51(7) 
O1 O2- 4 e 0.1019(7) 0.4501(12) 0.0716(9) 1. 0 0.60(2) 
O2 O2- 4 e 0.4272(8) 0.5626(12) 0.0957(10) 1. 0 0.80(2) 
O3 O2- 4 e 0.0037(8) 0.7223(13) 0.3517(9) 1. 0 0.90(2) 
O4 O2- 4 e 0.4950(8) 0.2741(12) 0.3923(10) 1. 0 0.80(2) 
O5 O2- 4 e 0.1181(8) 0.0692(13) 0.2383(10) 1. 0 0.90(2) 
O6 O2- 4 e 0.2866(8) 0.3177(12) 0.2218(9) 1. 0 0.70(2) 
O7 O2- 4 e 0.2280(8) 0.6844(12) 0.2122(9) 1. 0 0.70(2) 
O8 O2- 4 e 0.3832(8) 0.9355(12) 0.2800(9) 1. 0 0.80(2) 
O9 O2- 4 e 0.1009(8) 0.3869(12) 0.3369(9) 1. 0 0.70(2) 
O10 O2- 4 e 0.3906(9) 0.6115(11) 0.3665(8) 1. 0 0.80(2) 
O11 O2- 4 e 0.2267(8) 0.1899(12) 0.4408(9) 1. 0 1.00(2) 
O12 O2- 4 e 0.2310(8) 0.7838(12) 0.4424(9) 1. 0 0.90(2) 
H1 H1+ 4 e 0.432 0.139 0.519 1. 0 1.50(5) 
H2 H1+ 4 e 0.954 0.168 0.431 1. 0 1.50(5) 
H3 H1+ 4 e 0.579 0.250 0.071 1. 0 1.50(5) 
H4 H1+ 4 e 0.945 0.195 0.940 1. 0 1.50(5) 

#End of data_250074-ICSD


