data_40990-ICSD
#?2014 by Fachinformationszentrum Karlsruhe, and the U.S. Secretary of 
#Commerce on behalf of the United States.  All rights reserved.
_database_code_ICSD                40990
_audit_creation_date               2000/07/15
_audit_update_record               2007/08/01
_chemical_name_systematic          'Dipotassium Dicobalt Sulfate(VI)'
_chemical_formula_structural       'K2 Co2 (S O4)3'
_chemical_formula_sum              'Co2 K2 O12 S3'
_publ_section_title
;
Phase transitions in langbeinites I: Crystal chemistry and structures 
of K-double sulfates of the langbeinite type M2(2+) K2 (S O4)3, M(2+) 
= Mg, Ni, Co, Zn, Ca
;
loop_
_citation_id
_citation_journal_abbrev
_citation_year
_citation_journal_volume
_citation_page_first
_citation_page_last
_citation_journal_id_ASTM
primary 'Physics and Chemistry of Minerals' 1986 13 17 24 PCMIDU
_publ_author_name                  'Speer, D.;Salje, E.'
_cell_length_a                     9.931
_cell_length_b                     9.931
_cell_length_c                     9.931
_cell_angle_alpha                  90.
_cell_angle_beta                   90.
_cell_angle_gamma                  90.
_cell_volume                       979.44
_cell_formula_units_Z              4
_symmetry_space_group_name_H-M     'P 21 3'
_symmetry_Int_Tables_number        198
_refine_ls_R_factor_all            .0408
loop_
_symmetry_equiv_pos_site_id
_symmetry_equiv_pos_as_xyz
  1	'-z+.5, -x, y+.5'
  2	'-y+.5, -z, x+.5'
  3	'-x+.5, -y, z+.5'
  4	'-z, x+.5, -y+.5'
  5	'-y, z+.5, -x+.5'
  6	'-x, y+.5, -z+.5'
  7	'z+.5, -x+.5, -y'
  8	'y+.5, -z+.5, -x'
  9	'x+.5, -y+.5, -z'
 10	'z, x, y'
 11	'y, z, x'
 12	'x, y, z'
loop_
_atom_type_symbol
_atom_type_oxidation_number
Co2+	2
K1+	1
O2-	-2
S6+	6
loop_
_atom_site_label
_atom_site_type_symbol
_atom_site_symmetry_multiplicity
_atom_site_Wyckoff_symbol
_atom_site_fract_x
_atom_site_fract_y
_atom_site_fract_z
_atom_site_occupancy
_atom_site_attached_hydrogens
K1 K1+ 4 a 0.8149(2) 0.8149(2) 0.8149(2) 1. 0 
K2 K1+ 4 a 0.0493(2) 0.0493(2) 0.0493(2) 1. 0 
Co1 Co2+ 4 a 0.3352(1) 0.3352(1) 0.3352(1) 1. 0 
Co2 Co2+ 4 a 0.5951(1) 0.5951(1) 0.5951(1) 1. 0 
S1 S6+ 12 b 0.2182(2) 0.3758(2) 0.0178(2) 1. 0 
O1 O2- 12 b 0.3087(8) 0.2737(7) 0.9610(6) 1. 0 
O2 O2- 12 b 0.0785(9) 0.3293(8) 0.0045(9) 1. 0 
O3 O2- 12 b 0.2402(7) 0.4991(6) 0.9399(7) 1. 0 
O4 O2- 12 b 0.2492(7) 0.4053(7) 0.1580(8) 1. 0 

#End of data_40990-ICSD


