data_260890-ICSD
#?2014 by Fachinformationszentrum Karlsruhe, and the U.S. Secretary of 
#Commerce on behalf of the United States.  All rights reserved.
_database_code_ICSD                260890
_audit_creation_date               2011/02/01
_chemical_name_systematic
;
Dicalcium Nonaoxodistanate(IV) Dialuminate
;
_chemical_formula_structural       'Ca2 Sn2 Al2 O9'
_chemical_formula_sum              'Al2 Ca2 O9 Sn2'
_publ_section_title
;
A ramsayite-type oxide, Ca2 Sn2 Al2 O9
;
loop_
_citation_id
_citation_journal_abbrev
_citation_year
_citation_journal_volume
_citation_journal_issue
_citation_page_first
_citation_page_last
_citation_journal_id_ASTM
primary 'Acta Crystallographica, Section E. Structure Reports Online'
 2010 66 10 i72 i72 ACSEBH
_publ_author_name                  'Yamane, H.;Abe, S.;Tu, R.;Goto, T.'
_cell_length_a                     8.9866(6)
_cell_length_b                     5.4894(11)
_cell_length_c                     14.9030(18)
_cell_angle_alpha                  90.00
_cell_angle_beta                   90.00
_cell_angle_gamma                  90.00
_cell_volume                       735.18
_cell_formula_units_Z              4
_symmetry_space_group_name_H-M     'P b c n'
_symmetry_Int_Tables_number        60
_refine_ls_R_factor_all            .0178
loop_
_symmetry_equiv_pos_site_id
_symmetry_equiv_pos_as_xyz
  1	'x, -y, z+.5'
  2	'-x+.5, y+.5, z'
  3	'x+.5, y+.5, -z+.5'
  4	'-x, -y, -z'
  5	'-x, y, -z+.5'
  6	'x+.5, -y+.5, -z'
  7	'-x+.5, -y+.5, z+.5'
  8	'x, y, z'
loop_
_atom_type_symbol
_atom_type_oxidation_number
Al3+	3
Ca2+	2
O2-	-2
Sn4+	4
loop_
_atom_site_label
_atom_site_type_symbol
_atom_site_symmetry_multiplicity
_atom_site_Wyckoff_symbol
_atom_site_fract_x
_atom_site_fract_y
_atom_site_fract_z
_atom_site_occupancy
_atom_site_attached_hydrogens
_atom_site_U_iso_or_equiv
Ca1 Ca2+ 8 d 0.06714(7) 0.36160(11) 0.14603(5) 1 0 0.00676(14) 
Al1 Al3+ 8 d 0.34369(10) 0.31037(18) 0.02817(7) 1 0 0.0055(2) 
Sn1 Sn4+ 8 d 0.34459(2) 0.36611(4) 0.333981(15) 1 0 0.00525(9) 
O1 O2- 8 d 0.1618(2) 0.1912(4) 0.40897(16) 1 0 0.0070(5) 
O2 O2- 8 d 0.2277(2) 0.0795(4) 0.07144(15) 1 0 0.0071(4) 
O3 O2- 8 d 0.3314(2) 0.0365(4) 0.27250(16) 1 0 0.0079(5) 
O4 O2- 8 d 0.5156(2) 0.2310(4) 0.07402(16) 1 0 0.0078(4) 
O5 O2- 4 c 0.0000 0.0250(6) 0.2500 1 0 0.0077(6) 

loop_
_atom_site_aniso_label
_atom_site_aniso_type_symbol
_atom_site_aniso_U_11
_atom_site_aniso_U_22
_atom_site_aniso_U_33
_atom_site_aniso_U_12
_atom_site_aniso_U_13
_atom_site_aniso_U_23
Ca1 Ca2+ 0.0069(3) 0.0071(3) 0.0062(3) -0.0007(2) 0.0006(2) -0.0003(2)
Al1 Al3+ 0.0057(5) 0.0058(5) 0.0050(5) -0.0001(3) -0.0004(3) 0.0001(4)
Sn1 Sn4+ 0.00529(13) 0.00501(14) 0.00544(14) 0.00004(7) -0.00022(7) 
-0.00022(8)
O1 O2- 0.0080(11) 0.0067(11) 0.0064(12) -0.0008(8) -0.0004(8) -0.0002(9)
O2 O2- 0.0089(11) 0.0054(10) 0.0070(11) -0.0007(8) -0.0005(9) -0.0003(9)
O3 O2- 0.0077(11) 0.0064(11) 0.0096(13) -0.0008(8) 0.0026(9) -0.0019(9)
O4 O2- 0.0059(10) 0.0088(11) 0.0087(11) -0.0003(8) -0.0024(9) -0.0011(9)
O5 O2- 0.0086(15) 0.0078(15) 0.0066(16) 0.000 -0.0014(13) 0.000
#End of data_260890-ICSD


