data_109603-ICSD
#?2014 by Fachinformationszentrum Karlsruhe, and the U.S. Secretary of 
#Commerce on behalf of the United States.  All rights reserved.
_database_code_ICSD                109603
_audit_creation_date               2008/02/01
_audit_update_record               2010/02/01
_chemical_name_systematic          'Disilver Oxalate'
_chemical_formula_structural       'Ag2 (C2 O4)'
_chemical_formula_sum              'C2 Ag2 O4'
_publ_section_title
;
Rietveld refinement of the crystal structure of silver oxalate from 
neutron diffraction data
;
loop_
_citation_id
_citation_journal_abbrev
_citation_year
_citation_journal_volume
_citation_page_first
_citation_page_last
_citation_journal_id_ASTM
primary 'Materials Science Forum' 1996 228 801 806 MSFOEP
_publ_author_name                  'Eriksson, L.'
_cell_length_a                     3.45673(10)
_cell_length_b                     6.20657(13)
_cell_length_c                     9.54928(32)
_cell_angle_alpha                  90
_cell_angle_beta                   103.3997(27)
_cell_angle_gamma                  90
_cell_volume                       199.3
_cell_formula_units_Z              2
_symmetry_space_group_name_H-M     'P 1 21/c 1'
_symmetry_Int_Tables_number        14
_refine_ls_R_factor_all            .069
loop_
_symmetry_equiv_pos_site_id
_symmetry_equiv_pos_as_xyz
  1	'x, -y+.5, z+.5'
  2	'-x, -y, -z'
  3	'-x, y+.5, -z+.5'
  4	'x, y, z'
loop_
_atom_type_symbol
_atom_type_oxidation_number
Ag1+	1
C3+	3
O2-	-2
loop_
_atom_site_label
_atom_site_type_symbol
_atom_site_symmetry_multiplicity
_atom_site_Wyckoff_symbol
_atom_site_fract_x
_atom_site_fract_y
_atom_site_fract_z
_atom_site_occupancy
_atom_site_attached_hydrogens
Ag1 Ag1+ 4 e 0.139(3) 0.4934(18) 0.1571(11) 1. 0 
C1 C3+ 4 e 0.406(3) -.3865(12) 0.5030(11) 1. 0 
O1 O2- 4 e 0.492(3) 0.2855(15) .3810(13) 1. 0 
O2 O2- 4 e 0.170(3) -.3261(17) 0.3920(13) 1. 0 

#End of data_109603-ICSD


