data_83284-ICSD
#?2014 by Fachinformationszentrum Karlsruhe, and the U.S. Secretary of 
#Commerce on behalf of the United States.  All rights reserved.
_database_code_ICSD                83284
_audit_creation_date               1998/06/26
_audit_update_record               2005/10/01
_chemical_name_systematic
;
Heptasilver Hexathiotantalate - Ii - Lt
;
_chemical_formula_structural       'Ag7 (Ta S6)'
_chemical_formula_sum              'Ag7 S6 Ta1'
_publ_section_title
;
Crystal structure model of a low-temperature phase (phase II) of 
argyrodite-family Ag7 Ta S6
;
loop_
_citation_id
_citation_journal_abbrev
_citation_year
_citation_journal_volume
_citation_page_first
_citation_page_last
_citation_journal_id_ASTM
primary 'Solid State Ionics' 1996 86 217 222 SSIOD3
2 'Golden Book of Phase Transitions, Wroclaw' 2002 1 1 123 GBOPT5
_publ_author_name                  'Onoda, M.;Wada, H.;Ishii, M.'
_cell_length_a                     7.4530(4)
_cell_length_b                     7.4026(4)
_cell_length_c                     10.5401(5)
_cell_angle_alpha                  90.
_cell_angle_beta                   90.069(4)
_cell_angle_gamma                  90.
_cell_volume                       581.51
_cell_formula_units_Z              2
_symmetry_space_group_name_H-M     'P 1 n 1'
_symmetry_Int_Tables_number        7
_refine_ls_R_factor_all            .069
loop_
_symmetry_equiv_pos_site_id
_symmetry_equiv_pos_as_xyz
  1	'x+.5, -y, z+.5'
  2	'x, y, z'
loop_
_atom_type_symbol
_atom_type_oxidation_number
Ag1+	1
S2-	-2
Ta5+	5
loop_
_atom_site_label
_atom_site_type_symbol
_atom_site_symmetry_multiplicity
_atom_site_Wyckoff_symbol
_atom_site_fract_x
_atom_site_fract_y
_atom_site_fract_z
_atom_site_occupancy
_atom_site_attached_hydrogens
_atom_site_B_iso_or_equiv
Ag1 Ag1+ 2 a 0.293(8) 0.026(8) -.010(7) 1. 0 3.0(6) 
Ag2 Ag1+ 2 a 0.709(9) 0.074(7) 0.191(7) 1. 0 3.0(6) 
Ag3 Ag1+ 2 a 0.299(9) 0.353(8) 0.152(7) 1. 0 3.0(6) 
Ag4 Ag1+ 2 a 0.791(9) 0.489(8) 0.265(6) 1. 0 3.0(6) 
Ag5 Ag1+ 2 a 0.581(10) 0.119(6) 0.792(6) 1. 0 3.0(6) 
Ag6 Ag1+ 2 a 0.073(9) 0.433(6) 0.450(6) 1. 0 3.0(6) 
Ag7 Ag1+ 2 a -.046(9) 0.291(7) 0.029(9) 1. 0 3.0(6) 
Ta1 Ta5+ 2 a 0.5 0.254(4) 0.5 1. 0 0.2(4) 
S1 S2- 2 a 0.257(13) 0.25(2) 0.634(12) 1. 0 0.2(4) 
S2 S2- 2 a 0.784(12) 0.25(2) 0.601(12) 1. 0 0.2(4) 
S3 S2- 2 a 0.46(2) -.002(12) 0.366(11) 1. 0 0.2(4) 
S4 S2- 2 a 0.48(3) 0.497(13) 0.347(13) 1. 0 0.2(4) 
S5 S2- 2 a 0.03(2) 0.24(2) 0.27(2) 1. 0 0.2(4) 
S6 S2- 2 a 0.54(2) 0.26(2) 0.01(3) 1. 0 0.2(4) 

#End of data_83284-ICSD


