data_419318-ICSD
#?2014 by Fachinformationszentrum Karlsruhe, and the U.S. Secretary of 
#Commerce on behalf of the United States.  All rights reserved.
_database_code_ICSD                419318
_audit_creation_date               2009/02/01
_chemical_name_systematic
;
Dicalcium Octanitridopentasilicate - Hp
;
_chemical_formula_structural       'Ca2 Si5 N8'
_chemical_formula_sum              'Ca2 N8 Si5'
_publ_section_title
;
HP-Ca2 Si5 N8 - A new high-pressure nitridosilicate: Synthesis, 
structure, luminescence and DFT-calculations
;
loop_
_citation_id
_citation_journal_abbrev
_citation_year
_citation_journal_volume
_citation_journal_issue
_citation_page_first
_citation_page_last
_citation_journal_id_ASTM
primary 'Chemistry - A European Journal' 2008 14 26 7892 7902 CEUJED
_publ_author_name
;
Roemer, S.R.;Braun, C.;Oeckler, O.;Schmidt, P.J.;Kroll, P.;Schnick, 
W.
;
_cell_length_a                     10.584(10)
_cell_length_b                     9.652(4)
_cell_length_c                     13.663(10)
_cell_angle_alpha                  90.00
_cell_angle_beta                   90.00
_cell_angle_gamma                  90.00
_cell_volume                       1395.77
_cell_formula_units_Z              8
_symmetry_space_group_name_H-M     'P b c a'
_symmetry_Int_Tables_number        61
_refine_ls_R_factor_all            .0555
loop_
_symmetry_equiv_pos_site_id
_symmetry_equiv_pos_as_xyz
  1	'x+.5, y, -z+.5'
  2	'x, -y+.5, z+.5'
  3	'-x+.5, y+.5, z'
  4	'-x, -y, -z'
  5	'-x+.5, -y, z+.5'
  6	'-x, y+.5, -z+.5'
  7	'x+.5, -y+.5, -z'
  8	'x, y, z'
loop_
_atom_type_symbol
_atom_type_oxidation_number
Ca2+	2
N3-	-3
Si4+	4
loop_
_atom_site_label
_atom_site_type_symbol
_atom_site_symmetry_multiplicity
_atom_site_Wyckoff_symbol
_atom_site_fract_x
_atom_site_fract_y
_atom_site_fract_z
_atom_site_occupancy
_atom_site_attached_hydrogens
_atom_site_U_iso_or_equiv
Ca1 Ca2+ 8 c 0.6152(2) 0.1571(3) 0.51597(17) 1 0 0.0460(7) 
Ca2 Ca2+ 8 c 0.8877(2) 0.0576(3) 0.40161(17) 1 0 0.0491(7) 
Si1 Si4+ 8 c 0.8987(3) 0.2250(4) 0.6503(2) 1 0 0.0417(8) 
Si2 Si4+ 8 c 0.6643(3) 0.2281(4) 0.7740(2) 1 0 0.0426(8) 
Si3 Si4+ 8 c 0.7565(3) -0.0352(3) 0.6556(2) 1 0 0.0429(8) 
Si4 Si4+ 8 c 0.4794(3) -0.0045(4) 0.7082(2) 1 0 0.0420(8) 
Si5 Si4+ 8 c 0.3303(3) 0.1519(4) 0.5412(2) 1 0 0.0425(8) 
N1 N3- 8 c 0.4192(9) 0.2687(11) 0.4706(6) 1 0 0.041(2) 
N2 N3- 8 c 0.4321(8) 0.0414(12) 0.5967(7) 1 0 0.042(2) 
N3 N3- 8 c 0.2411(9) 0.2480(10) 0.6190(6) 1 0 0.041(2) 
N4 N3- 8 c 0.7700(9) -0.0588(10) 0.5343(6) 1 0 0.042(2) 
N5 N3- 8 c 0.5232(9) 0.1337(10) 0.7904(7) 1 0 0.044(2) 
N6 N3- 8 c 0.8777(9) -0.1108(10) 0.7222(7) 1 0 0.044(2) 
N7 N3- 8 c 0.7560(9) 0.1424(10) 0.6829(6) 1 0 0.043(2) 
N8 N3- 8 c 0.6171(10) -0.1075(11) 0.7010(7) 1 0 0.047(2) 

loop_
_atom_site_aniso_label
_atom_site_aniso_type_symbol
_atom_site_aniso_U_11
_atom_site_aniso_U_22
_atom_site_aniso_U_33
_atom_site_aniso_U_12
_atom_site_aniso_U_13
_atom_site_aniso_U_23
Ca1 Ca2+ 0.0426(16) 0.0376(14) 0.0578(14) -0.0004(11) 0.0017(11) 0.0023(10)
Ca2 Ca2+ 0.0527(17) 0.0358(15) 0.0587(14) 0.0015(12) 0.0021(12) -0.0010(10)
Si1 Si4+ 0.038(2) 0.0320(19) 0.0545(18) -0.0013(13) -0.0002(14) -0.0011(14)
Si2 Si4+ 0.044(2) 0.0309(19) 0.0527(17) 0.0031(14) -0.0013(14) -0.0001(14)
Si3 Si4+ 0.040(2) 0.0326(19) 0.0557(18) -0.0010(14) -0.0016(14) 0.0005(14)
Si4 Si4+ 0.039(2) 0.0318(18) 0.0556(19) -0.0018(13) 0.0014(14) -0.0001(12)
Si5 Si4+ 0.039(2) 0.0344(18) 0.0541(18) 0.0011(14) -0.0006(13) -0.0015(13)
N1 N3- 0.039(6) 0.036(6) 0.049(5) -0.002(4) -0.003(4) -0.005(4)
N2 N3- 0.037(6) 0.043(7) 0.047(5) -0.004(4) 0.000(4) -0.003(4)
N3 N3- 0.037(6) 0.038(6) 0.049(5) -0.008(4) 0.002(4) 0.007(4)
N4 N3- 0.041(6) 0.033(6) 0.053(5) -0.006(4) 0.005(4) 0.008(4)
N5 N3- 0.042(6) 0.034(7) 0.057(6) 0.002(4) 0.001(4) 0.006(4)
N6 N3- 0.042(6) 0.034(6) 0.055(6) -0.002(4) -0.002(4) 0.004(4)
N7 N3- 0.043(6) 0.026(5) 0.059(5) 0.009(4) 0.000(4) 0.008(4)
N8 N3- 0.045(7) 0.043(7) 0.054(5) -0.009(5) 0.001(4) -0.007(4)
#End of data_419318-ICSD


