data_40904-ICSD
#?2014 by Fachinformationszentrum Karlsruhe, and the U.S. Secretary of 
#Commerce on behalf of the United States.  All rights reserved.
_database_code_ICSD                40904
_audit_creation_date               2000/07/15
_audit_update_record               2007/04/01
_chemical_name_systematic          'Titanium Bis(tetrabromoaluminate)'
_chemical_formula_structural       'Ti (Al Br4)2'
_chemical_formula_sum              'Al2 Br8 Ti1'
_publ_section_title                'Ti (Al Br4)2'
loop_
_citation_id
_citation_journal_abbrev
_citation_year
_citation_journal_volume
_citation_page_first
_citation_page_last
_citation_journal_id_ASTM
primary 'Zeitschrift fuer Anorganische und Allgemeine Chemie (1950) (DE)'
 1986 543 63 65 ZAACAB
_publ_author_name                  'Laumanns, R.;Schaefer, H.'
_cell_length_a                     13.769(4)
_cell_length_b                     8.066(2)
_cell_length_c                     12.441(3)
_cell_angle_alpha                  90.
_cell_angle_beta                   92.00(2)
_cell_angle_gamma                  90.
_cell_volume                       1380.87
_cell_formula_units_Z              4
_symmetry_space_group_name_H-M     'I 1 2/c 1'
_symmetry_Int_Tables_number        15
loop_
_symmetry_equiv_pos_site_id
_symmetry_equiv_pos_as_xyz
  1	'-x, y, -z+.5'
  2	'-x, -y, -z'
  3	'x, -y, z+.5'
  4	'x, y, z'
  5	'-x+.5, y+.5, -z'
  6	'-x+.5, -y+.5, -z+.5'
  7	'x+.5, -y+.5, z'
  8	'x+.5, y+.5, z+.5'
loop_
_atom_type_symbol
_atom_type_oxidation_number
Al3+	3
Br1-	-1
Ti2+	2
loop_
_atom_site_label
_atom_site_type_symbol
_atom_site_symmetry_multiplicity
_atom_site_Wyckoff_symbol
_atom_site_fract_x
_atom_site_fract_y
_atom_site_fract_z
_atom_site_occupancy
_atom_site_attached_hydrogens
Ti1 Ti2+ 4 e 0 0.0017 0.25 1. 0 
Al1 Al3+ 8 f 0.0877 0.2516 0.5538 1. 0 
Br1 Br1- 8 f 0.1588 0.4843 0.6084 1. 0 
Br2 Br1- 8 f 0.1559 0.0192 0.6334 1. 0 
Br3 Br1- 8 f 0.0851 0.2339 0.367 1. 0 
Br4 Br1- 8 f -.0701 0.2239 0.6167 1. 0 

#End of data_40904-ICSD


