data_161849-ICSD
#?2014 by Fachinformationszentrum Karlsruhe, and the U.S. Secretary of 
#Commerce on behalf of the United States.  All rights reserved.
_database_code_ICSD                161849
_audit_creation_date               2009/02/01
_chemical_name_systematic          'Sodium Chromium Bis(tungstate)'
_chemical_formula_structural       'Na Cr (W O4)2'
_chemical_formula_sum              'Cr1 Na1 O8 W2'
_publ_section_title
;
The magnetic structures of double tungstates, Na M (W O4)2, M= Fe, 
Cr: examples for superexchange couplings mediated by (Na O6)-
octahedra
;
loop_
_citation_id
_citation_journal_abbrev
_citation_year
_citation_journal_volume
_citation_page_first
_citation_page_last
_citation_journal_id_ASTM
primary 'Journal of Magnetism and Magnetic Materials' 2008 320 3251 3255 JMMMDC
_publ_author_name
;
Nyam-Ochir, L.;Ehrenberg, H.;Buchsteiner, A.;Senyshin, A.;Fuess, 
H.;Sangaa, D.
;
_cell_length_a                     9.8281(3)
_cell_length_b                     5.7074(2)
_cell_length_c                     4.9505(2)
_cell_angle_alpha                  90.
_cell_angle_beta                   90.334(4)
_cell_angle_gamma                  90.
_cell_volume                       277.68
_cell_formula_units_Z              2
_symmetry_space_group_name_H-M     'P 1 2/c 1'
_symmetry_Int_Tables_number        13
loop_
_symmetry_equiv_pos_site_id
_symmetry_equiv_pos_as_xyz
  1	'x, -y, z+.5'
  2	'-x, -y, -z'
  3	'-x, y, -z+.5'
  4	'x, y, z'
loop_
_atom_type_symbol
_atom_type_oxidation_number
Cr3+	3
Na1+	1
O2-	-2
W6+	6
loop_
_atom_site_label
_atom_site_type_symbol
_atom_site_symmetry_multiplicity
_atom_site_Wyckoff_symbol
_atom_site_fract_x
_atom_site_fract_y
_atom_site_fract_z
_atom_site_occupancy
_atom_site_attached_hydrogens
W1 W6+ 4 g 0.2338(6) 0.1821(12) 0.2612(21) 1. 0 
Cr1 Cr3+ 2 e 0 0.6520(69) 0.250 1. 0 
Na1 Na1+ 2 f 0.5 0.6917(18) 0.250 1. 0 
O1 O2- 4 g 0.1051(12) 0.5902(75) 0.6406(98) 1. 0 
O2 O2- 4 g 0.3679(35) 0.3606(78) 0.4003(94) 1. 0 
O3 O2- 4 g 0.3313(32) 0.0765(64) 0.9529(95) 1. 0 
O4 O2- 4 g 0.1227(30) 0.1163(65) 0.5853(98) 1. 0 

#End of data_161849-ICSD


