data_46001-ICSD
#?2014 by Fachinformationszentrum Karlsruhe, and the U.S. Secretary of 
#Commerce on behalf of the United States.  All rights reserved.
_database_code_ICSD                46001
_audit_creation_date               1984/12/31
_audit_update_record               2000/07/15
_chemical_name_systematic          'Trizinc Ditantalum Oxide'
_chemical_formula_structural       'Zn3 Ta2 O8'
_chemical_formula_sum              'O8 Ta2 Zn3'
_publ_section_title
;
Synthese und Strukturuntersuchung von Zn3 Ta2 O8
;
loop_
_citation_id
_citation_journal_abbrev
_citation_year
_citation_journal_volume
_citation_page_first
_citation_page_last
_citation_journal_id_ASTM
primary 'Monatshefte fuer Chemie' 1984 115 15 20 MOCMB7
_publ_author_name                  'Waburg, M.;Mueller Buschbaum, H.'
_cell_length_a                     9.499
_cell_length_b                     8.411
_cell_length_c                     8.881
_cell_angle_alpha                  90.
_cell_angle_beta                   116.03
_cell_angle_gamma                  90.
_cell_volume                       637.58
_cell_formula_units_Z              4
_symmetry_space_group_name_H-M     'C 1 2/c 1'
_symmetry_Int_Tables_number        15
_refine_ls_R_factor_all            .072
loop_
_symmetry_equiv_pos_site_id
_symmetry_equiv_pos_as_xyz
  1	'x, -y, z+.5'
  2	'-x, -y, -z'
  3	'-x, y, -z+.5'
  4	'x, y, z'
  5	'x+.5, -y+.5, z+.5'
  6	'-x+.5, -y+.5, -z'
  7	'-x+.5, y+.5, -z+.5'
  8	'x+.5, y+.5, z'
loop_
_atom_type_symbol
_atom_type_oxidation_number
O2-	-2
Ta5+	5
Zn2+	2
loop_
_atom_site_label
_atom_site_type_symbol
_atom_site_symmetry_multiplicity
_atom_site_Wyckoff_symbol
_atom_site_fract_x
_atom_site_fract_y
_atom_site_fract_z
_atom_site_occupancy
_atom_site_attached_hydrogens
_atom_site_B_iso_or_equiv
Ta1 Ta5+ 8 f 0.0812(1) 0.1427(1) 0.1269(1) 1. 0 0.30(2) 
Zn1 Zn2+ 8 f 0.3421(3) 0.0257(3) 0.5067(3) 1. 0 0.66(3) 
Zn2 Zn2+ 4 e 0 0.7612(4) 0.25 1. 0 0.51(5) 
O1 O2- 8 f 0.036(2) 0.899(2) 0.104(2) 1. 0 0.76(21) 
O2 O2- 8 f 0.147(2) 0.137(2) 0.351(2) 1. 0 0.40(17) 
O3 O2- 8 f 0.056(2) 0.363(2) 0.088(2) 1. 0 1.03(22) 
O4 O2- 8 f 0.698(2) 0.882(2) 0.856(2) 1. 0 0.84(21) 

#End of data_46001-ICSD


