data_261256-ICSD
#?2014 by Fachinformationszentrum Karlsruhe, and the U.S. Secretary of 
#Commerce on behalf of the United States.  All rights reserved.
_database_code_ICSD                261256
_audit_creation_date               2011/08/01
_audit_update_record               2013/02/01
_chemical_name_systematic          'Trilithium Scandium Bis(borate)'
_chemical_formula_structural       'Li3 Sc (B O3)2'
_chemical_formula_sum              'B2 Li3 O6 Sc1'
_publ_section_title
;
Structure, thermal stability and properties of Li3 Sc (B O3)2
;
loop_
_citation_id
_citation_journal_abbrev
_citation_year
_citation_journal_volume
_citation_journal_issue
_citation_page_first
_citation_page_last
_citation_journal_id_ASTM
primary 'Journal of Solid State Chemistry' 2011 184 1 115 122 JSSCBI
_publ_author_name
;
Cai, G.M.;Tao, X.M.;Su, L.M.;Zheng, F.;Yi, D.Q.;Chen, X.L.;Jin, Z.P.
;
_cell_length_a                     4.7766(1)
_cell_length_b                     5.9452(1)
_cell_length_c                     9.3958(2)
_cell_angle_alpha                  90
_cell_angle_beta                   119.836(1)
_cell_angle_gamma                  90
_cell_volume                       231.45
_cell_formula_units_Z              2
_symmetry_space_group_name_H-M     'P 1 21/c 1'
_symmetry_Int_Tables_number        14
_refine_ls_R_factor_all            .0989
loop_
_symmetry_equiv_pos_site_id
_symmetry_equiv_pos_as_xyz
  1	'x, -y+.5, z+.5'
  2	'-x, -y, -z'
  3	'-x, y+.5, -z+.5'
  4	'x, y, z'
loop_
_atom_type_symbol
_atom_type_oxidation_number
B3+	3
Li1+	1
O2-	-2
Sc3+	3
loop_
_atom_site_label
_atom_site_type_symbol
_atom_site_symmetry_multiplicity
_atom_site_Wyckoff_symbol
_atom_site_fract_x
_atom_site_fract_y
_atom_site_fract_z
_atom_site_occupancy
_atom_site_attached_hydrogens
_atom_site_U_iso_or_equiv
Sc1 Sc3+ 2 a 0 0 0 1. 0 0.013(0) 
O1 O2- 4 e -0.3124(1) 0.24432(6) 0.00229(5) 1. 0 0.020(0) 
O2 O2- 4 e 0.3689(1) 0.08500(7) 0.24202(4) 1. 0 0.020(0) 
O3 O2- 4 e -0.1201(1) -0.26665(6) 0.11015(4) 1. 0 0.020(0) 
Li1 Li1+ 2 c 0 -0.5 0 1. 0 0.034(1) 
Li2 Li1+ 4 e -0.3110(3) 0.2523(2) 0.2045(1) 1. 0 0.034(1) 
B1 B3+ 4 e 0.3884(2) 0.1937(1) 0.37617(9) 1. 0 0.002(1) 

#End of data_261256-ICSD


