data_202094-ICSD
#?2014 by Fachinformationszentrum Karlsruhe, and the U.S. Secretary of 
#Commerce on behalf of the United States.  All rights reserved.
_database_code_ICSD                202094
_audit_creation_date               1988/12/19
_audit_update_record               2012/02/01
_chemical_name_systematic
;
Beryllium Aluminium Silicate Hydroxide
;
_chemical_formula_structural       'Be Al (Si O4) (O H)'
_chemical_formula_sum              'H1 Al1 Be1 O5 Si1'
_chemical_name_mineral             Euclase
_publ_section_title
;
High-pressure crystal chemistry of beryl (Be3 Al2 Si6 O18) and 
euclase (Be Al Si O4 O H)
;
loop_
_citation_id
_citation_journal_abbrev
_citation_year
_citation_journal_volume
_citation_page_first
_citation_page_last
_citation_journal_id_ASTM
primary 'American Mineralogist' 1986 71 977 984 AMMIAY
_publ_author_name                  'Hazen, R.M.;Au, A.Y.;Finger, L.W.'
_cell_length_a                     4.7800(3)
_cell_length_b                     14.322(1)
_cell_length_c                     4.6335(2)
_cell_angle_alpha                  90.
_cell_angle_beta                   100.310(5)
_cell_angle_gamma                  90.
_cell_volume                       312.08
_cell_formula_units_Z              4
_symmetry_space_group_name_H-M     'P 1 21/a 1'
_symmetry_Int_Tables_number        14
_refine_ls_R_factor_all            .041
loop_
_symmetry_equiv_pos_site_id
_symmetry_equiv_pos_as_xyz
  1	'x+.5, -y+.5, z'
  2	'-x, -y, -z'
  3	'-x+.5, y+.5, -z'
  4	'x, y, z'
loop_
_atom_type_symbol
_atom_type_oxidation_number
Al3+	3
Be2+	2
H1+	1
O2-	-2
Si4+	4
loop_
_atom_site_label
_atom_site_type_symbol
_atom_site_symmetry_multiplicity
_atom_site_Wyckoff_symbol
_atom_site_fract_x
_atom_site_fract_y
_atom_site_fract_z
_atom_site_occupancy
_atom_site_attached_hydrogens
_atom_site_B_iso_or_equiv
Si1 Si4+ 4 e 0.17752(13) 0.10027(5) 0.53639(14) 1. 0 0.39(1) 
Al1 Al3+ 4 e 0.24877(14) 0.44470(5) 0.95708(15) 1. 0 0.45(1) 
Be1 Be2+ 4 e 0.1741(6) 0.3006(2) 0.4571(7) 1. 0 0.60(5) 
O1 O2- 4 e 0.3818(3) 0.0324(1) 0.7630(3) 1. 0 0.52(3) 
O2 O2- 4 e 0.3800(3) 0.3770(1) 0.6521(3) 1. 0 0.50(3) 
O3 O2- 4 e 0.3431(3) 0.1998(1) 0.5248(6) 1. 0 0.53(3) 
O4 O2- 4 e 0.1006(3) 0.0531(1) 0.2113(3) 1. 0 0.50(3) 
O5 O2- 4 e 0.1596(4) 0.3320(1) 0.1206(4) 1. 0 0.71(3) 
H1 H1+ 4 e 0.063(9) 0.302(3) 0.011(9) 1. 0 2.4(1) 

#End of data_202094-ICSD


