data_47114-ICSD
#?2014 by Fachinformationszentrum Karlsruhe, and the U.S. Secretary of 
#Commerce on behalf of the United States.  All rights reserved.
_database_code_ICSD                47114
_audit_creation_date               1985/02/12
_chemical_name_systematic          'Potassium Hydroxide Hydrate'
_chemical_formula_structural       'K (H2 O) O H'
_chemical_formula_sum              'H3 K1 O2'
_publ_section_title
;
Hydroxidmonohydrate des Kaliums und Rubidiums; Verbindungen, deren 
Atomanordnungen die Schreibweise K (H2 O) O H bzw. Rb (H2 O) O H 
nahelegen
;
loop_
_citation_id
_citation_journal_abbrev
_citation_year
_citation_journal_volume
_citation_page_first
_citation_page_last
_citation_journal_id_ASTM
primary 'Zeitschrift fuer Anorganische und Allgemeine Chemie (1950) (DE)'
 1984 516 67 78 ZAACAB
_publ_author_name
;
Jacobs, H.;Tacke, T.;Kockelkorn, J.
;
_cell_length_a                     5.837(1)
_cell_length_b                     5.851(1)
_cell_length_c                     7.887(2)
_cell_angle_alpha                  90.
_cell_angle_beta                   109.67(1)
_cell_angle_gamma                  90.
_cell_volume                       253.64
_cell_formula_units_Z              4
_symmetry_space_group_name_H-M     'P 1 21/c 1'
_symmetry_Int_Tables_number        14
_refine_ls_R_factor_all            .035
loop_
_symmetry_equiv_pos_site_id
_symmetry_equiv_pos_as_xyz
  1	'x, -y+.5, z+.5'
  2	'-x, -y, -z'
  3	'-x, y+.5, -z+.5'
  4	'x, y, z'
loop_
_atom_type_symbol
_atom_type_oxidation_number
H1+	1
K1+	1
O2-	-2
loop_
_atom_site_label
_atom_site_type_symbol
_atom_site_symmetry_multiplicity
_atom_site_Wyckoff_symbol
_atom_site_fract_x
_atom_site_fract_y
_atom_site_fract_z
_atom_site_occupancy
_atom_site_attached_hydrogens
_atom_site_B_iso_or_equiv
K1 K1+ 4 e 0.29798(7) 0.2539(1) 0.07497(5) 1. 0 0 
O1 O2- 4 e 0.6571(2) 0.2544(4) 0.4148(2) 1. 0 0 
O2 O2- 4 e 0.9452(3) 0.1371(3) 0.2369(2) 1. 0 0 
H1 H1+ 4 e 0.761(6) 0.217(6) 0.043(4) 1. 0 3.1(7) 
H2 H1+ 4 e 0.765(7) 0.216(7) 0.348(5) 1. 0 4.8(1) 
H3 H1+ 4 e 0.019(7) 0.459(7) 0.257(6) 1. 0 4.8(1) 

loop_
_atom_site_aniso_label
_atom_site_aniso_type_symbol
_atom_site_aniso_U_11
_atom_site_aniso_U_22
_atom_site_aniso_U_33
_atom_site_aniso_U_12
_atom_site_aniso_U_13
_atom_site_aniso_U_23
K1 K1+ 0.0215(1) 0.0265(2) 0.0217(1) -.0005(2) 0.0068(1) 0.0005(2)
O1 O2- 0.0188(5) 0.0371(8) 0.0273(5) 0.0013(8) 0.0057(4) 0.0003(9)
O2 O2- 0.0316(6) 0.0292(7) 0.0253(6) 0.0027(7) 0.0101(5) 0.0006(7)
#End of data_47114-ICSD


