data_166516-ICSD
#?2014 by Fachinformationszentrum Karlsruhe, and the U.S. Secretary of 
#Commerce on behalf of the United States.  All rights reserved.
_database_code_ICSD                166516
_audit_creation_date               2010/08/01
_chemical_name_systematic          'Calcium Divanadate'
_chemical_formula_structural       'Ca (V2 O6)'
_chemical_formula_sum              'Ca1 O6 V2'
_publ_section_title
;
Structure cristalline du metavanadate de calcium Ca V2 O6.
;
loop_
_citation_id
_citation_journal_abbrev
_citation_year
_citation_journal_volume
_citation_page_first
_citation_page_last
_citation_journal_id_ASTM
primary
;
Comptes Rendus Hebdomadaires des Seances de l`Academie des Sciences, 
Serie C, Sciences Chimiques (1966-)
;
 1970 270 952 953 CHDCAQ
_publ_author_name
;
Perez, G.;Frit, B.;Bouloux, J.C.;Galy, J.
;
_cell_length_a                     10.060(2)
_cell_length_b                     3.673(1)
_cell_length_c                     7.038(2)
_cell_angle_alpha                  90.
_cell_angle_beta                   104.8(1)
_cell_angle_gamma                  90.
_cell_volume                       251.43
_cell_formula_units_Z              2
_symmetry_space_group_name_H-M     'C 1 2/m 1'
_symmetry_Int_Tables_number        12
_refine_ls_R_factor_all            .081
loop_
_symmetry_equiv_pos_site_id
_symmetry_equiv_pos_as_xyz
  1	'-x, y, -z'
  2	'-x, -y, -z'
  3	'x, -y, z'
  4	'x, y, z'
  5	'-x+.5, y+.5, -z'
  6	'-x+.5, -y+.5, -z'
  7	'x+.5, -y+.5, z'
  8	'x+.5, y+.5, z'
loop_
_atom_type_symbol
_atom_type_oxidation_number
Ca2+	2
O2-	-2
V5+	5
loop_
_atom_site_label
_atom_site_type_symbol
_atom_site_symmetry_multiplicity
_atom_site_Wyckoff_symbol
_atom_site_fract_x
_atom_site_fract_y
_atom_site_fract_z
_atom_site_occupancy
_atom_site_attached_hydrogens
_atom_site_B_iso_or_equiv
V1 V5+ 4 i 0.2342 0 0.6691 1. 0 0.57 
O1 O2- 4 i 0.3566 0 0.8818 1. 0 2.09 
O2 O2- 4 i 0.2465 0 0.3934 1. 0 1.93 
O3 O2- 4 i 0.0874 0 0.7219 1. 0 1.69 
Ca1 Ca2+ 2 a 0 0 0 1. 0 1.60 

#End of data_166516-ICSD


