data_41147-ICSD
#?2014 by Fachinformationszentrum Karlsruhe, and the U.S. Secretary of 
#Commerce on behalf of the United States.  All rights reserved.
_database_code_ICSD                41147
_audit_creation_date               1999/11/30
_audit_update_record               2004/04/01
_chemical_name_systematic          'Dilithium Beryllium Hydride'
_chemical_formula_structural       'Li2 Be H4'
_chemical_formula_sum              'H4 Be1 Li2'
_publ_section_title
;
Crystallographic studies of compounds from the Li H+ Be H2 system
;
loop_
_citation_id
_citation_journal_abbrev
_citation_year
_citation_journal_volume
_citation_page_first
_citation_page_last
_citation_journal_id_ASTM
primary 'Journal of the Less-Common Metals' 1991 172 213 219 JCOMAH
_publ_author_name
;
Cantrell, J.S.;Beiter, T.A.;Souers, P.C.;Barry, P.
;
_cell_length_a                     4.905
_cell_length_b                     11.182
_cell_length_c                     7.112
_cell_angle_alpha                  90.(0)
_cell_angle_beta                   90.3
_cell_angle_gamma                  90.(0)
_cell_volume                       390.07
_cell_formula_units_Z              6
_symmetry_space_group_name_H-M     'P 1'
_symmetry_Int_Tables_number        1
_refine_ls_R_factor_all            .075
loop_
_symmetry_equiv_pos_site_id
_symmetry_equiv_pos_as_xyz
  1	'x, y, z'
loop_
_atom_type_symbol
_atom_type_oxidation_number
Be2+	2
H1-	-1
Li1+	1
loop_
_atom_site_label
_atom_site_type_symbol
_atom_site_symmetry_multiplicity
_atom_site_Wyckoff_symbol
_atom_site_fract_x
_atom_site_fract_y
_atom_site_fract_z
_atom_site_occupancy
_atom_site_attached_hydrogens
Be1 Be2+ 1 a 0.95 0 0.03 1. 0 
Be2 Be2+ 1 a 0.95 0.01 0.53 1. 0 
Be3 Be2+ 1 a 0.47 0.5 0.77 1. 0 
Be4 Be2+ 1 a 0.45 0.51 0.27 1. 0 
Be5 Be2+ 1 a 0.51 0.7 0 1. 0 
Be6 Be2+ 1 a 0.53 0.7 0.5 1. 0 
Li1 Li1+ 1 a 0.01 0.2 0.24 1. 0 
Li2 Li1+ 1 a 0.04 0.19 0.75 1. 0 
Li3 Li1+ 1 a 0.63 0.89 0.76 1. 0 
Li4 Li1+ 1 a 0.61 0.9 0.25 1. 0 
Li5 Li1+ 1 a 0.13 0.39 0.5 1. 0 
Li6 Li1+ 1 a 0.11 0.39 0.99 1. 0 
Li7 Li1+ 1 a 0.46 0.17 0.98 1. 0 
Li8 Li1+ 1 a 0.46 0.16 0.49 1. 0 
Li9 Li1+ 1 a 0.98 0.67 0.72 1. 0 
Li10 Li1+ 1 a 0.96 0.66 0.22 1. 0 
Li11 Li1+ 1 a 0.31 0.78 0.99 1. 0 
Li12 Li1+ 1 a 0.33 0.77 0.49 1. 0 
H1 H1- 1 a 0.84 0.26 0.74 1. 0 
H2 H1- 1 a 0.81 0.28 0.23 1. 0 
H3 H1- 1 a 0.88 0.39 0.01 1. 0 
H4 H1- 1 a 0.9 0.42 0.49 1. 0 
H5 H1- 1 a 0.41 0.96 0.75 1. 0 
H6 H1- 1 a 0.41 0.97 0.23 1. 0 
H7 H1- 1 a 0.67 0.09 0.99 1. 0 
H8 H1- 1 a 0.7 0.08 0.5 1. 0 
H9 H1- 1 a 0.21 0.58 0.74 1. 0 
H10 H1- 1 a 0.18 0.59 0.25 1. 0 
H11 H1- 1 a 0.12 0.93 0.51 1. 0 
H12 H1- 1 a 0.12 0.92 0.01 1. 0 
H13 H1- 1 a 0.61 0.43 0.27 1. 0 
H14 H1- 1 a 0.63 0.42 0.75 1. 0 
H15 H1- 1 a 0.41 0.86 0.71 1. 0 
H16 H1- 1 a 0.4 0.87 0.22 1. 0 
H17 H1- 1 a 0.75 0.64 0.58 1. 0 
H18 H1- 1 a 0.75 0.64 0.06 1. 0 
H19 H1- 1 a 0.97 0.48 0.99 1. 0 
H20 H1- 1 a 0.96 0.34 0.57 1. 0 
H21 H1- 1 a 0.23 0.14 0.31 1. 0 
H22 H1- 1 a 0.26 0.13 0.82 1. 0 
H23 H1- 1 a 0.08 0.73 0.29 1. 0 
H24 H1- 1 a 0.6 0.23 0.54 1. 0 

#End of data_41147-ICSD


