data_10473-ICSD
#?2014 by Fachinformationszentrum Karlsruhe, and the U.S. Secretary of 
#Commerce on behalf of the United States.  All rights reserved.
_database_code_ICSD                10473
_audit_creation_date               1980/01/01
_audit_update_record               2002/04/01
_chemical_name_systematic          'Tetrasodium Trioxocobaltate(II)'
_chemical_formula_structural       'Na4 (Co O3)'
_chemical_formula_sum              'Co1 Na4 O3'
_publ_section_title
;
Zur Kenntnis der Oxocobaltate(II) Na4 (Co O3), ein Nesocobaltat(II)
;
loop_
_citation_id
_citation_journal_abbrev
_citation_year
_citation_journal_volume
_citation_page_first
_citation_page_last
_citation_journal_id_ASTM
primary 'Zeitschrift fuer Anorganische und Allgemeine Chemie (1950) (DE)'
 1979 459 59 71 ZAACAB
2 'Angewandte Chemie (German Edition)' 1979 91 577 577 ANCEAD
3 'Chemical Society Reviews' 1984 13 157 157 CSRVBR
_publ_author_name                  'Burow, W.;Hoppe, R.'
_cell_length_a                     8.144
_cell_length_b                     6.22
_cell_length_c                     5.758
_cell_angle_alpha                  117.54
_cell_angle_beta                   89.99
_cell_angle_gamma                  111.24
_cell_volume                       236.06
_cell_formula_units_Z              2
_symmetry_space_group_name_H-M     'P 1'
_symmetry_Int_Tables_number        1
_refine_ls_R_factor_all            .0597
loop_
_symmetry_equiv_pos_site_id
_symmetry_equiv_pos_as_xyz
  1	'x, y, z'
loop_
_atom_type_symbol
_atom_type_oxidation_number
Co2+	2
Na1+	1
O2-	-2
loop_
_atom_site_label
_atom_site_type_symbol
_atom_site_symmetry_multiplicity
_atom_site_Wyckoff_symbol
_atom_site_fract_x
_atom_site_fract_y
_atom_site_fract_z
_atom_site_occupancy
_atom_site_attached_hydrogens
Na1 Na1+ 1 a 0.5999(5) 0.6585(7) 0.7692(7) 1. 0 
Na2 Na1+ 1 a 0.7904(5) 0.8233(8) 0.3956(7) 1. 0 
Na3 Na1+ 1 a 0.2906(5) 0.8254(8) 0.7351(8) 1. 0 
Na4 Na1+ 1 a 0.1015(5) 0.6579(7) 0.1930(7) 1. 0 
Na5 Na1+ 1 a 0.3782(5) 0.4597(6) 0.2250(7) 1. 0 
Na6 Na1+ 1 a 0.6982(5) 0.2677(7) 0.9480(7) 1. 0 
Na7 Na1+ 1 a 0.8808(5) 0.4569(7) 0.5403(6) 1. 0 
Na8 Na1+ 1 a 0.1977(6) 0.2681(6) 0.6278(7) 1. 0 
Co1 Co2+ 1 a 0 0 0 1. 0 
Co2 Co2+ 1 a 0.4998(2) 0.0001(2) 0.3017(2) 1. 0 
O1 O2- 1 a 0.8589(7) 0.6693(9) 0.9859(10) 1. 0 
O2 O2- 1 a 0.3614(7) 0.6688(9) 0.9918(9) 1. 0 
O3 O2- 1 a 0.5462(7) 0.9114(9) 0.5592(9) 1. 0 
O4 O2- 1 a 0.0474(7) 0.9088(9) 0.6593(9) 1. 0 
O5 O2- 1 a 0.5827(8) 0.3219(9) 0.3261(10) 1. 0 
O6 O2- 1 a 0.0815(8) 0.320(1) 0.3039(10) 1. 0 

loop_
_atom_site_aniso_label
_atom_site_aniso_type_symbol
_atom_site_aniso_U_11
_atom_site_aniso_U_22
_atom_site_aniso_U_33
_atom_site_aniso_U_12
_atom_site_aniso_U_13
_atom_site_aniso_U_23
Na1 Na1+ 0.0200(11) 0.0208(11) 0.0193(11) 0.0055(9) 0.0017(10) 0.0111(9)
Na2 Na1+ 0.0284(12) 0.0460(13) 0.0177(11) 0.0232(10) 0.0067(10) 0.015(1)
Na3 Na1+ 0.0249(11) 0.0373(12) 0.0297(12) 0.0181(10) 0.0119(10) 0.0265(9)
Na4 Na1+ 0.0201(11) 0.0215(11) 0.0256(11) 0.0079(9) 0.0036(10) 0.0167(9)
Na5 Na1+ 0.0222(11) 0.0174(10) 0.0209(11) 0.0070(9) -0.0009(10) 0.0119(9)
Na6 Na1+ 0.0268(12) 0.0216(12) 0.0208(12) -0.0023(10) 0.0052(10) 0.0095(10)
Na7 Na1+ 0.0211(11) 0.0190(11) 0.0142(11) 0.0042(9) 0.0015(9) 0.0078(9)
Na8 Na1+ 0.0384(13) 0.0135(11) 0.0171(11) -0.0022(10) -0.0085(11) 0.0088(9)
Co1 Co2+ 0.0177(4) 0.0093(4) 0.0128(4) 0.0044(3) 0.0007(3) 0.0055(3)
Co2 Co2+ 0.0107(5) 0.0128(5) 0.0167(5) 0.0035(4) 0.0024(4) 0.0076(4)
O1 O2- 0.0158(13) 0.0146(13) 0.0129(12) 0.0034(11) 0.0044(11) 0.0072(11)
O2 O2- 0.0149(13) 0.0140(13) 0.0104(12) 0.0012(11) -0.0037(11) 0.0059(11)
O3 O2- 0.0236(14) 0.0122(12) 0.0112(13) 0.0042(12) -0.0018(12) 0.0053(11)
O4 O2- 0.0209(13) 0.0157(12) 0.0142(13) 0.0048(12) 0.0053(12) 0.0100(11)
O5 O2- 0.0256(14) 0.0112(12) 0.0184(13) 0.0092(12) 0.0028(13) 0.0083(11)
O6 O2- 0.0222(14) 0.0154(13) 0.0187(13) 0.0082(12) 0.0011(13) 0.0081(11)
#End of data_10473-ICSD


