data_191225-ICSD
#?2014 by Fachinformationszentrum Karlsruhe, and the U.S. Secretary of 
#Commerce on behalf of the United States.  All rights reserved.
_database_code_ICSD                191225
_audit_creation_date               2014/08/01
_chemical_name_systematic          'Tripotassium Lutetium Diphosphate'
_chemical_formula_structural       'K3 Lu (P O4)2'
_chemical_formula_sum              'K3 Lu1 O8 P2'
_publ_section_title
;
Polymorphism, phase transitions, and thermal expansion of K3 Lu (P 
O4)2
;
loop_
_citation_id
_citation_journal_abbrev
_citation_year
_citation_journal_volume
_citation_page_first
_citation_page_last
_citation_journal_id_ASTM
primary 'Journal of Alloys and Compounds' 2014 588 182 189 JALCEU
_publ_author_name
;
Farmer, J.Matt;Boatner, Lynn A.;Chakoumakos, Bryan C.;Rawn, Claudia 
J.;Mandrus, David;Jin, Rongying;Bryan, Jeff C.
;
_cell_length_a                     7.6784(14)
_cell_length_b                     5.5943(6)
_cell_length_c                     9.3677(10)
_cell_angle_alpha                  90.
_cell_angle_beta                   91.84(1)
_cell_angle_gamma                  90.
_cell_volume                       402.18
_cell_formula_units_Z              2
_symmetry_space_group_name_H-M     'P 1 21/m 1'
_symmetry_Int_Tables_number        11
_refine_ls_R_factor_all            .0416
loop_
_symmetry_equiv_pos_site_id
_symmetry_equiv_pos_as_xyz
  1	'x, -y+.5, z'
  2	'-x, -y, -z'
  3	'-x, y+.5, -z'
  4	'x, y, z'
loop_
_atom_type_symbol
_atom_type_oxidation_number
K1+	1
Lu3+	3
O2-	-2
P5+	5
loop_
_atom_site_label
_atom_site_type_symbol
_atom_site_symmetry_multiplicity
_atom_site_Wyckoff_symbol
_atom_site_fract_x
_atom_site_fract_y
_atom_site_fract_z
_atom_site_occupancy
_atom_site_attached_hydrogens
_atom_site_U_iso_or_equiv
Lu1 Lu3+ 2 e 0.0234(1) 0.250 0.2657(1) 1. 0 0.005(1) 
P1 P5+ 2 e -0.2173(3) 0.250 0.5722(3) 1. 0 0.005(1) 
P2 P5+ 2 e -0.2262(4) 0.750 0.0976(3) 1. 0 0.006(1) 
O1 O2- 2 e -0.0513(10) 0.250 0.4859(9) 1. 0 0.011(2) 
O2 O2- 2 e -0.3734(10) 0.250 0.4714(8) 1. 0 0.012(2) 
O3 O2- 4 f -0.2191(6) 0.0261(9) 0.6708(5) 1. 0 0.008(1) 
O4 O2- 4 f -0.1547(7) -0.0252(10) 0.1753(6) 1. 0 0.014(1) 
O5 O2- 2 e -0.1627(11) 0.750 -0.0573(9) 1. 0 0.013(2) 
O6 O2- 2 e -0.4231(10) 0.750 0.1005(9) 1. 0 0.016(2) 
K1 K1+ 2 e -0.2233(3) 0.250 -0.0769(3) 1. 0 0.012(1) 
K2 K1+ 2 e 0.3142(3) 0.250 0.5773(3) 1. 0 0.012(1) 
K3 K1+ 2 e -0.4995(3) 0.250 0.2075(3) 1. 0 0.014(1) 

#End of data_191225-ICSD


