data_69357-ICSD
#?2014 by Fachinformationszentrum Karlsruhe, and the U.S. Secretary of 
#Commerce on behalf of the United States.  All rights reserved.
_database_code_ICSD                69357
_audit_creation_date               1992/08/20
_audit_update_record               2007/04/01
_chemical_name_systematic          'Aluminium Phosphate(V) - C'
_chemical_formula_structural       'Al (P O4)'
_chemical_formula_sum              'Al1 O4 P1'
_publ_section_title
;
Synthesis, structures of Al P O4-C and Al P O4-D and their topotactic 
transformation
;
loop_
_citation_id
_citation_journal_abbrev
_citation_year
_citation_journal_volume
_citation_page_first
_citation_page_last
_citation_journal_id_ASTM
primary 'Solid State Ionics' 1990 43 93 102 SSIOD3
_publ_author_name
;
Keller, E.B.;Meier, W.M.;Kirchner, R.M.
;
_cell_length_a                     19.816(1)
_cell_length_b                     10.047(1)
_cell_length_c                     8.935(1)
_cell_angle_alpha                  90.
_cell_angle_beta                   90.
_cell_angle_gamma                  90.
_cell_volume                       1778.88
_cell_formula_units_Z              16
_symmetry_space_group_name_H-M     'P b c a'
_symmetry_Int_Tables_number        61
_refine_ls_R_factor_all            .051
loop_
_symmetry_equiv_pos_site_id
_symmetry_equiv_pos_as_xyz
  1	'x+.5, y, -z+.5'
  2	'x, -y+.5, z+.5'
  3	'-x+.5, y+.5, z'
  4	'-x, -y, -z'
  5	'-x+.5, -y, z+.5'
  6	'-x, y+.5, -z+.5'
  7	'x+.5, -y+.5, -z'
  8	'x, y, z'
loop_
_atom_type_symbol
_atom_type_oxidation_number
Al3+	3
O2-	-2
P5+	5
loop_
_atom_site_label
_atom_site_type_symbol
_atom_site_symmetry_multiplicity
_atom_site_Wyckoff_symbol
_atom_site_fract_x
_atom_site_fract_y
_atom_site_fract_z
_atom_site_occupancy
_atom_site_attached_hydrogens
_atom_site_B_iso_or_equiv
P1 P5+ 8 c 0.456(2) 0.424(5) 0.206(5) 1. 0 2.70(12) 
P2 P5+ 8 c 0.293(2) 0.145(4) 0.346(4) 1. 0 0.3(9) 
Al1 Al3+ 8 c 0.455(2) 0.160(4) 0.360(4) 1. 0 0.3(1) 
Al2 Al3+ 8 c 0.297(3) 0.423(5) 0.197(5) 1. 0 1.50(12) 
O1 O2- 8 c 0.384(5) 0.465(6) 0.222(7) 1. 0 9.00(28) 
O2 O2- 8 c 0.465(3) 0.143(6) 0.546(7) 1. 0 0.70(19) 
O3 O2- 8 c 0.500(4) 0.539(8) 0.238(5) 1. 0 1.50(33) 
O4 O2- 8 c 0.476(4) 0.317(6) 0.323(7) 1. 0 0.50(18) 
O5 O2- 8 c 0.280(3) 0.110(6) 0.506(8) 1. 0 1.30(19) 
O6 O2- 8 c 0.370(4) 0.124(5) 0.313(6) 1. 0 5.10(21) 
O7 O2- 8 c 0.278(4) 0.284(9) 0.297(6) 1. 0 0.10(21) 
O8 O2- 8 c 0.249(4) 0.560(9) 0.241(7) 1. 0 3.30(35) 

#End of data_69357-ICSD


