data_30615-ICSD
#?2014 by Fachinformationszentrum Karlsruhe, and the U.S. Secretary of 
#Commerce on behalf of the United States.  All rights reserved.
_database_code_ICSD                30615
_audit_creation_date               1980/01/01
_audit_update_record               2006/04/01
_chemical_name_systematic
;
Trimagnesium Chlorotridecaoxoheptaborate - Ht
;
_chemical_formula_structural       'Mg3 (B7 O13 Cl)'
_chemical_formula_sum              'B7 Cl1 Mg3 O13'
_chemical_name_mineral             'Boracite high'
_publ_section_title                'The crystal structure of boracite'
loop_
_citation_id
_citation_journal_abbrev
_citation_year
_citation_journal_volume
_citation_page_first
_citation_page_last
_citation_journal_id_ASTM
primary 'Acta Crystallographica (1,1948-23,1967)' 1951 4 310 316 ACCRA9
_publ_author_name                  'Ito, T.;Morimoto, N.;Sadanaga, R.'
_cell_length_a                     12.1
_cell_length_b                     12.1
_cell_length_c                     12.1
_cell_angle_alpha                  90.
_cell_angle_beta                   90.
_cell_angle_gamma                  90.
_cell_volume                       1771.56
_cell_formula_units_Z              8
_symmetry_space_group_name_H-M     'F -4 3 c'
_symmetry_Int_Tables_number        219
loop_
_symmetry_equiv_pos_site_id
_symmetry_equiv_pos_as_xyz
  1	'-z, y, -x+.5'
  2	'-y, x, -z+.5'
  3	'-x, z, -y+.5'
  4	'z, -y, -x+.5'
  5	'y, -x, -z+.5'
  6	'x, -z, -y+.5'
  7	'-z, -y, x+.5'
  8	'-y, -x, z+.5'
  9	'-x, -z, y+.5'
 10	'z, y, x+.5'
 11	'y, x, z+.5'
 12	'x, z, y+.5'
 13	'-z, -x, y'
 14	'-y, -z, x'
 15	'-x, -y, z'
 16	'z, -x, -y'
 17	'y, -z, -x'
 18	'x, -y, -z'
 19	'-z, x, -y'
 20	'-y, z, -x'
 21	'-x, y, -z'
 22	'z, x, y'
 23	'y, z, x'
 24	'x, y, z'
 25	'-z, y+.5, -x'
 26	'-z+.5, y, -x'
 27	'-z+.5, y+.5, -x+.5'
 28	'-y, x+.5, -z'
 29	'-y+.5, x, -z'
 30	'-y+.5, x+.5, -z+.5'
 31	'-x, z+.5, -y'
 32	'-x+.5, z, -y'
 33	'-x+.5, z+.5, -y+.5'
 34	'z, -y+.5, -x'
 35	'z+.5, -y, -x'
 36	'z+.5, -y+.5, -x+.5'
 37	'y, -x+.5, -z'
 38	'y+.5, -x, -z'
 39	'y+.5, -x+.5, -z+.5'
 40	'x, -z+.5, -y'
 41	'x+.5, -z, -y'
 42	'x+.5, -z+.5, -y+.5'
 43	'-z, -y+.5, x'
 44	'-z+.5, -y, x'
 45	'-z+.5, -y+.5, x+.5'
 46	'-y, -x+.5, z'
 47	'-y+.5, -x, z'
 48	'-y+.5, -x+.5, z+.5'
 49	'-x, -z+.5, y'
 50	'-x+.5, -z, y'
 51	'-x+.5, -z+.5, y+.5'
 52	'z, y+.5, x'
 53	'z+.5, y, x'
 54	'z+.5, y+.5, x+.5'
 55	'y, x+.5, z'
 56	'y+.5, x, z'
 57	'y+.5, x+.5, z+.5'
 58	'x, z+.5, y'
 59	'x+.5, z, y'
 60	'x+.5, z+.5, y+.5'
 61	'-z, -x+.5, y+.5'
 62	'-z+.5, -x, y+.5'
 63	'-z+.5, -x+.5, y'
 64	'-y, -z+.5, x+.5'
 65	'-y+.5, -z, x+.5'
 66	'-y+.5, -z+.5, x'
 67	'-x, -y+.5, z+.5'
 68	'-x+.5, -y, z+.5'
 69	'-x+.5, -y+.5, z'
 70	'z, -x+.5, -y+.5'
 71	'z+.5, -x, -y+.5'
 72	'z+.5, -x+.5, -y'
 73	'y, -z+.5, -x+.5'
 74	'y+.5, -z, -x+.5'
 75	'y+.5, -z+.5, -x'
 76	'x, -y+.5, -z+.5'
 77	'x+.5, -y, -z+.5'
 78	'x+.5, -y+.5, -z'
 79	'-z, x+.5, -y+.5'
 80	'-z+.5, x, -y+.5'
 81	'-z+.5, x+.5, -y'
 82	'-y, z+.5, -x+.5'
 83	'-y+.5, z, -x+.5'
 84	'-y+.5, z+.5, -x'
 85	'-x, y+.5, -z+.5'
 86	'-x+.5, y, -z+.5'
 87	'-x+.5, y+.5, -z'
 88	'z, x+.5, y+.5'
 89	'z+.5, x, y+.5'
 90	'z+.5, x+.5, y'
 91	'y, z+.5, x+.5'
 92	'y+.5, z, x+.5'
 93	'y+.5, z+.5, x'
 94	'x, y+.5, z+.5'
 95	'x+.5, y, z+.5'
 96	'x+.5, y+.5, z'
loop_
_atom_type_symbol
_atom_type_oxidation_number
B3+	3
Cl1-	-1
Mg2+	2
O2-	-2
loop_
_atom_site_label
_atom_site_type_symbol
_atom_site_symmetry_multiplicity
_atom_site_Wyckoff_symbol
_atom_site_fract_x
_atom_site_fract_y
_atom_site_fract_z
_atom_site_occupancy
_atom_site_attached_hydrogens
O1 O2- 8 a 0 0 0 1. 0 
O2 O2- 96 h 0.021 0.098 0.18 1. 0 
Cl1 Cl1- 8 b 0.25 0.25 0.25 1. 0 
Mg1 Mg2+ 24 c 0.25 0.25 0 1. 0 
B1 B3+ 24 d 0.25 0 0 1. 0 
B2 B3+ 32 e 0.085 0.085 0.085 1. 0 

#End of data_30615-ICSD


