data_36332-ICSD
#?2014 by Fachinformationszentrum Karlsruhe, and the U.S. Secretary of 
#Commerce on behalf of the United States.  All rights reserved.
_database_code_ICSD                36332
_audit_creation_date               1980/12/31
_chemical_name_systematic
;
Potassium Heptafluorodiarsenate(III)
;
_chemical_formula_structural       'As2 F7 K'
_chemical_formula_sum              'As2 F7 K1'
_publ_section_title
;
Alkali-metal heptafluorodiarsenates(III): their prreparation and the 
crystal structure of the potassium salt
;
loop_
_citation_id
_citation_journal_abbrev
_citation_year
_citation_journal_volume
_citation_page_first
_citation_page_last
_citation_journal_id_ASTM
primary
;
Journal of the Chemical Society. Dalton Transactions, Inorganic 
Chemistry (1972-)
;
 1980 1980 1630 1632 JCDTBI
_publ_author_name                  'Edwards, A.J.;Patel, S.N.'
_cell_length_a                     10.99(1)
_cell_length_b                     7.39(1)
_cell_length_c                     8.75(1)
_cell_angle_alpha                  90.
_cell_angle_beta                   110.8(2)
_cell_angle_gamma                  90.
_cell_volume                       664.33
_cell_formula_units_Z              4
_symmetry_space_group_name_H-M     'P 1 21/c 1'
_symmetry_Int_Tables_number        14
_refine_ls_R_factor_all            .07
loop_
_symmetry_equiv_pos_site_id
_symmetry_equiv_pos_as_xyz
  1	'x, -y+.5, z+.5'
  2	'-x, -y, -z'
  3	'-x, y+.5, -z+.5'
  4	'x, y, z'
loop_
_atom_type_symbol
_atom_type_oxidation_number
As3+	3
F1-	-1
K1+	1
loop_
_atom_site_label
_atom_site_type_symbol
_atom_site_symmetry_multiplicity
_atom_site_Wyckoff_symbol
_atom_site_fract_x
_atom_site_fract_y
_atom_site_fract_z
_atom_site_occupancy
_atom_site_attached_hydrogens
As1 As3+ 4 e 0.4029(2) 0.1675(3) 0.1240(2) 1. 0 
As2 As3+ 4 e 0.2238(2) 0.6786(2) 0.1634(2) 1. 0 
K1 K1+ 4 e 0.0802(5) 0.1532(5) 0.2234(5) 1. 0 
F1 F1- 4 e 0.3938(12) -.0603(16) 0.0674(14) 1. 0 
F2 F1- 4 e 0.3730(12) 0.1199(16) 0.2992(14) 1. 0 
F3 F1- 4 e 0.2405(12) 0.1978(15) 0.0149(14) 1. 0 
F4 F1- 4 e 0.0662(10) 0.8162(13) 0.1008(12) 1. 0 
F5 F1- 4 e 0.1324(11) 0.5097(15) 0.2063(13) 1. 0 
F6 F1- 4 e 0.1748(11) 0.6276(14) -.0449(12) 1. 0 
F7 F1- 4 e 0.3564(12) 0.5022(16) 0.1953(14) 1. 0 

#End of data_36332-ICSD


