data_406347-ICSD
#?2014 by Fachinformationszentrum Karlsruhe, and the U.S. Secretary of 
#Commerce on behalf of the United States.  All rights reserved.
_database_code_ICSD                406347
_audit_creation_date               1997/11/10
_audit_update_record               2000/07/15
_chemical_name_systematic          'Barium Dithulium Zinc Oxide'
_chemical_formula_structural       'Ba Tm2 Zn O5'
_chemical_formula_sum              'Ba1 O5 Tm2 Zn1'
_publ_section_title
;
Roentgenstrukturanalyse von zwei Verbindungen des Kupfertyps Ba M Ln2 
O5 (M= Zn, Ln= Sm, Tm) und von Ba Sm Al Zn3 O7
;
loop_
_citation_id
_citation_journal_abbrev
_citation_year
_citation_journal_volume
_citation_page_first
_citation_page_last
_citation_journal_id_ASTM
primary 'Zeitschrift fuer Naturforschung, B: Chemical Sciences'
 1997 52 546 548 ZNBSEN
_publ_author_name
;
Mueller Buschbaum, H.;Rabbow, C.;Panzer, S.
;
_cell_length_a                     12.258(2)
_cell_length_b                     5.6837(9)
_cell_length_c                     7.010(2)
_cell_angle_alpha                  90.
_cell_angle_beta                   90.
_cell_angle_gamma                  90.
_cell_volume                       488.39
_cell_formula_units_Z              4
_symmetry_space_group_name_H-M     'P n m a'
_symmetry_Int_Tables_number        62
_refine_ls_R_factor_all            .1293
loop_
_symmetry_equiv_pos_site_id
_symmetry_equiv_pos_as_xyz
  1	'x+.5, y, -z+.5'
  2	'x, -y+.5, z'
  3	'-x+.5, y+.5, z+.5'
  4	'-x, -y, -z'
  5	'-x+.5, -y, z+.5'
  6	'-x, y+.5, -z'
  7	'x+.5, -y+.5, -z+.5'
  8	'x, y, z'
loop_
_atom_type_symbol
_atom_type_oxidation_number
Ba2+	2
O2-	-2
Tm3+	3
Zn2+	2
loop_
_atom_site_label
_atom_site_type_symbol
_atom_site_symmetry_multiplicity
_atom_site_Wyckoff_symbol
_atom_site_fract_x
_atom_site_fract_y
_atom_site_fract_z
_atom_site_occupancy
_atom_site_attached_hydrogens
Tm1 Tm3+ 4 c 0.074120(13) 0.25 0.60049(2) 1. 0 
Tm2 Tm3+ 4 c 0.292170(13) 0.25 0.87863(2) 1. 0 
Ba1 Ba2+ 4 c 0.39956(2) 0.25 0.42200(3) 1. 0 
Zn1 Zn2+ 4 c 0.15058(4) 0.25 0.19055(6) 1. 0 
O1 O2- 8 d 0.2756(2) 0.0006(3) 0.1394(2) 1. 0 
O2 O2- 8 d 0.06741(15) -.0013(3) 0.3355(2) 1. 0 
O3 O2- 4 c 0.1009(2) 0.25 -.0765(3) 1. 0 

loop_
_atom_site_aniso_label
_atom_site_aniso_type_symbol
_atom_site_aniso_U_11
_atom_site_aniso_U_22
_atom_site_aniso_U_33
_atom_site_aniso_U_12
_atom_site_aniso_U_13
_atom_site_aniso_U_23
Tm1 Tm3+ 0.00374(5) 0.00570(5) 0.00397(5) 0 -.00047(5) 0
Tm2 Tm3+ 0.00423(5) 0.00548(6) 0.00461(5) 0 0.00016(6) 0
Ba1 Ba2+ 0.00717(8) 0.00756(8) 0.00916(8) 0 -.00053(8) 0
Zn1 Zn2+ 0.0066(2) 0.0065(2) 0.0058(2) 0 0.0006(2) 0
O1 O2- 0.0217(9) 0.0190(9) 0.0156(7) 0.0045(8) 0.0058(7) 0.0065(8)
O2 O2- 0.0206(8) 0.0093(7) 0.0196(7) 0.0064(8) 0.0043(7) 0.0016(7)
O3 O2- 0.0096(9) 0.035(2) 0.0091(9) 0 0.0076(9) 0
#End of data_406347-ICSD


