data_69306-ICSD
#?2014 by Fachinformationszentrum Karlsruhe, and the U.S. Secretary of 
#Commerce on behalf of the United States.  All rights reserved.
_database_code_ICSD                69306
_audit_creation_date               1992/08/20
_audit_update_record               2006/04/01
_chemical_name_systematic          'Sodium Iron(III) Diphosphate(V)'
_chemical_formula_structural       'Na Fe (P2 O7)'
_chemical_formula_sum              'Fe1 Na1 O7 P2'
_publ_section_title
;
Moessbauer-effect, magnetic and neutron-diffraction study of Na Fe P2 
O7
;
loop_
_citation_id
_citation_journal_abbrev
_citation_year
_citation_journal_volume
_citation_journal_issue
_citation_page_first
_citation_page_last
_citation_journal_id_ASTM
primary 'Physical Review, Serie 3. B - Condensed Matter (18,1978-)'
 1990 42 1 25 32 PRBMDO
2 'Phase Transition' 1992 38- 127 220 PHTRDP
_publ_author_name
;
Mercader, R.C.;Terminiello, L.;Long, G.-J.;Reichel, D.G.;Dickhaus, 
K.;Zysler, R.;Sanchez, R.;Tovar, M.
;
_cell_length_a                     7.3116(9)
_cell_length_b                     7.8526(9)
_cell_length_c                     9.5566(12)
_cell_angle_alpha                  90.
_cell_angle_beta                   111.895(9)
_cell_angle_gamma                  90.
_cell_volume                       509.11
_cell_formula_units_Z              4
_symmetry_space_group_name_H-M     'P 1 21/c 1'
_symmetry_Int_Tables_number        14
_refine_ls_R_factor_all            .035
loop_
_symmetry_equiv_pos_site_id
_symmetry_equiv_pos_as_xyz
  1	'x, -y+.5, z+.5'
  2	'-x, -y, -z'
  3	'-x, y+.5, -z+.5'
  4	'x, y, z'
loop_
_atom_type_symbol
_atom_type_oxidation_number
Fe3+	3
Na1+	1
O2-	-2
P5+	5
loop_
_atom_site_label
_atom_site_type_symbol
_atom_site_symmetry_multiplicity
_atom_site_Wyckoff_symbol
_atom_site_fract_x
_atom_site_fract_y
_atom_site_fract_z
_atom_site_occupancy
_atom_site_attached_hydrogens
_atom_site_B_iso_or_equiv
Na1 Na1+ 4 e 0.282(2) 0.473(2) 0.299(1) 1. 0 1.15(24) 
Fe1 Fe3+ 4 e 0.263(1) 0.006(1) 0.247(1) 1. 0 0.51(10) 
P1 P5+ 4 e 0.076(2) 0.255(2) 0.456(1) 1. 0 0.50(25) 
P2 P5+ 4 e 0.681(2) 0.212(2) 0.455(1) 1. 0 0.50(25) 
O1 O2- 4 e 0.874(2) 0.154(1) 0.438(1) 1. 0 0.04(5) 
O2 O2- 4 e 0.186(2) 0.288(2) 0.620(1) 1. 0 0.04(5) 
O3 O2- 4 e 0.006(2) 0.426(1) 0.359(1) 1. 0 0.04(5) 
O4 O2- 4 e 0.181(2) 0.142(1) 0.394(1) 1. 0 0.04(5) 
O5 O2- 4 e 0.537(2) 0.095(2) 0.355(1) 1. 0 0.04(5) 
O6 O2- 4 e 0.694(2) 0.208(2) 0.620(1) 1. 0 0.04(5) 
O7 O2- 4 e 0.637(2) 0.393(1) 0.396(1) 1. 0 0.04(5) 

#End of data_69306-ICSD


