data_246416-ICSD
#?2014 by Fachinformationszentrum Karlsruhe, and the U.S. Secretary of 
#Commerce on behalf of the United States.  All rights reserved.
_database_code_ICSD                246416
_audit_creation_date               2009/08/01
_audit_update_record               2012/08/01
_chemical_name_systematic          'Calcium Dichloride'
_chemical_formula_structural       'Ca Cl2'
_chemical_formula_sum              'Ca1 Cl2'
_publ_section_title
;
Temperature-induced structural changes in CaCl2, CaBr2, and CrCl2: A 
synchrotron X-ray powder diffraction study
;
loop_
_citation_id
_citation_journal_abbrev
_citation_year
_citation_journal_volume
_citation_page_first
_citation_page_last
_citation_journal_id_ASTM
primary 'Physical Review, Serie 3. B - Condensed Matter (18,1978-)'
 2005 72 214114-1 214114-6 PRBMDO
_publ_author_name
;
Howard, C.J.;Kennedy, B.J.;Curfs, C.
;
_cell_length_a                     6.43763(5)
_cell_length_b                     6.28765(5)
_cell_length_c                     4.17823(1)
_cell_angle_alpha                  90.
_cell_angle_beta                   90.
_cell_angle_gamma                  90.
_cell_volume                       169.12
_cell_formula_units_Z              2
_symmetry_space_group_name_H-M     'P n n m'
_symmetry_Int_Tables_number        58
_refine_ls_R_factor_all            .047
loop_
_symmetry_equiv_pos_site_id
_symmetry_equiv_pos_as_xyz
  1	'x+.5, -y+.5, z+.5'
  2	'-x+.5, y+.5, z+.5'
  3	'x, y, -z'
  4	'-x, -y, -z'
  5	'-x+.5, y+.5, -z+.5'
  6	'x+.5, -y+.5, -z+.5'
  7	'-x, -y, z'
  8	'x, y, z'
loop_
_atom_type_symbol
_atom_type_oxidation_number
Ca2+	2
Cl1-	-1
loop_
_atom_site_label
_atom_site_type_symbol
_atom_site_symmetry_multiplicity
_atom_site_Wyckoff_symbol
_atom_site_fract_x
_atom_site_fract_y
_atom_site_fract_z
_atom_site_occupancy
_atom_site_attached_hydrogens
Ca1 Ca2+ 2 a 0 0 0 1. 0 
Cl1 Cl1- 4 g 0.3249(3) 0.2822(2) 0 1. 0 

loop_
_atom_site_aniso_label
_atom_site_aniso_type_symbol
_atom_site_aniso_U_11
_atom_site_aniso_U_22
_atom_site_aniso_U_33
_atom_site_aniso_U_12
_atom_site_aniso_U_13
_atom_site_aniso_U_23
Ca1 Ca2+ 0.0082(5) 0.0076(5) 0.0171(10) 0.0020(4) 0 0
Cl1 Cl1- 0.0157(4) 0.0194(5) 0.0219(9) 0.0225(8) 0 0
#End of data_246416-ICSD


