data_236335-ICSD
#?2014 by Fachinformationszentrum Karlsruhe, and the U.S. Secretary of 
#Commerce on behalf of the United States.  All rights reserved.
_database_code_ICSD                236335
_audit_creation_date               2014/02/01
_chemical_name_systematic
;
Hexaaquamagnesium(II) Sulfate(VI) Pentahydrate
;
_chemical_formula_structural       '(Mg (H2 O)6) (Cr O4) (H2 O)5'
_chemical_formula_sum              'H22 Cr1 Mg1 O15'
_publ_section_title
;
Mg S O4 * 11 H2 O and Mg Cr O4 * 11 H2 O based on time-of-flight 
neutron single-crystal Laue data
;
loop_
_citation_id
_citation_journal_abbrev
_citation_year
_citation_journal_volume
_citation_journal_issue
_citation_page_first
_citation_page_last
_citation_journal_id_ASTM
primary 'Acta Crystallographica, Section C: Crystal Structure Communications'
 2013 69 4 324 329 ACSCEE
_publ_author_name
;
Fortes, A. Dominic;Wood, Ian G.;Gutmann, Matthias J.
;
_cell_length_a                     6.7721(18)
_cell_length_b                     6.917(2)
_cell_length_c                     17.410(5)
_cell_angle_alpha                  88.21(2)
_cell_angle_beta                   89.43(2)
_cell_angle_gamma                  62.768(18)
_cell_volume                       724.77
_cell_formula_units_Z              2
_symmetry_space_group_name_H-M     'P -1'
_symmetry_Int_Tables_number        2
_refine_ls_R_factor_all            .083
loop_
_symmetry_equiv_pos_site_id
_symmetry_equiv_pos_as_xyz
  1	'-x, -y, -z'
  2	'x, y, z'
loop_
_atom_type_symbol
_atom_type_oxidation_number
Cr6+	6
H1+	1
Mg2+	2
O2-	-2
loop_
_atom_site_label
_atom_site_type_symbol
_atom_site_symmetry_multiplicity
_atom_site_Wyckoff_symbol
_atom_site_fract_x
_atom_site_fract_y
_atom_site_fract_z
_atom_site_occupancy
_atom_site_attached_hydrogens
_atom_site_U_iso_or_equiv
Mg1 Mg2+ 1 a 1.0000 0.0000 0.0000 1 0 0.0031(5) 
O1 O2- 2 i 0.6591(3) 0.1751(4) 0.00642(11) 1 0 0.0070(4) 
H1 H1+ 2 i 0.5558(7) 0.2382(10) 0.0478(3) 1 0 0.0242(11) 
H2 H1+ 2 i 0.5686(7) 0.1860(9) -0.0386(3) 1 0 0.0206(9) 
O2 O2- 2 i 0.9837(3) -0.2640(4) 0.05091(11) 1 0 0.0062(4) 
H3 H1+ 2 i 1.1062(7) -0.4002(9) 0.0673(3) 1 0 0.0228(10) 
H4 H1+ 2 i 0.8512(7) -0.2622(9) 0.0740(3) 1 0 0.0202(9) 
O3 O2- 2 i 1.0464(3) 0.1017(4) 0.10562(11) 1 0 0.0067(4) 
H5 H1+ 2 i 1.0425(8) 0.0365(9) 0.1555(2) 1 0 0.0216(9) 
H6 H1+ 2 i 1.1223(8) 0.1903(10) 0.1096(3) 1 0 0.0232(10) 
Mg2 Mg2+ 1 b 1.0000 0.0000 0.5000 1 0 0.0040(5) 
O4 O2- 2 i 1.1484(3) -0.1033(4) 0.39480(11) 1 0 0.0062(4) 
H7 H1+ 2 i 1.2979(6) -0.1184(9) 0.3850(3) 1 0 0.0189(9) 
H8 H1+ 2 i 1.0780(7) -0.0798(9) 0.3443(2) 1 0 0.0197(9) 
O5 O2- 2 i 0.8066(3) -0.1528(4) 0.48574(11) 1 0 0.0069(4) 
H9 H1+ 2 i 0.7719(8) -0.2393(9) 0.5234(3) 1 0 0.0209(9) 
H10 H1+ 2 i 0.7144(7) -0.1370(9) 0.4409(2) 1 0 0.0189(9) 
O6 O2- 2 i 0.7564(3) 0.2810(4) 0.44853(11) 1 0 0.0056(4) 
H11 H1+ 2 i 0.7983(7) 0.3341(9) 0.4012(3) 1 0 0.0208(9) 
H12 H1+ 2 i 0.6015(6) 0.3156(9) 0.4411(3) 1 0 0.0208(10) 
Cr1 Cr6+ 2 i 0.4078(4) 0.3200(6) 0.20166(15) 1 0 0.0022(5) 
O7 O2- 2 i 0.3001(3) 0.3376(4) 0.11601(10) 1 0 0.0051(3) 
O8 O2- 2 i 0.2081(3) 0.4569(4) 0.26429(11) 1 0 0.0060(3) 
O9 O2- 2 i 0.5424(3) 0.0602(4) 0.22978(11) 1 0 0.0059(4) 
O10 O2- 2 i 0.5838(3) 0.4215(4) 0.19749(11) 1 0 0.0062(4) 
O11 O2- 2 i 0.3116(3) 0.4086(4) 0.41912(11) 1 0 0.0062(4) 
H13 H1+ 2 i 0.2786(7) 0.4262(10) 0.3644(2) 1 0 0.0221(10) 
H14 H1+ 2 i 0.2406(9) 0.5530(10) 0.4380(4) 1 0 0.0276(11) 
O12 O2- 2 i 0.6070(3) -0.2410(4) 0.11869(12) 1 0 0.0069(4) 
H15 H1+ 2 i 0.5670(8) -0.1290(9) 0.1576(3) 1 0 0.0207(8) 
H16 H1+ 2 i 0.6039(8) -0.3656(9) 0.1452(3) 1 0 0.0210(9) 
O13 O2- 2 i 0.5608(3) -0.1510(4) 0.36308(11) 1 0 0.0064(4) 
H17 H1+ 2 i 0.5411(7) -0.0546(9) 0.3179(2) 1 0 0.0204(9) 
H18 H1+ 2 i 0.6573(7) -0.2973(8) 0.3446(3) 1 0 0.0196(9) 
O14 O2- 2 i 0.8338(3) 0.4416(4) 0.31354(11) 1 0 0.0070(4) 
H19 H1+ 2 i 0.7579(7) 0.4168(10) 0.2706(3) 1 0 0.0213(9) 
H20 H1+ 2 i 0.9740(6) 0.4303(9) 0.2930(3) 1 0 0.0210(9) 
O15 O2- 2 i 0.9964(3) -0.0875(4) 0.24672(11) 1 0 0.0061(4) 
H21 H1+ 2 i 1.0639(8) -0.2447(9) 0.2448(3) 1 0 0.0225(9) 
H22 H1+ 2 i 0.8371(6) -0.0362(9) 0.2411(3) 1 0 0.0224(10) 

loop_
_atom_site_aniso_label
_atom_site_aniso_type_symbol
_atom_site_aniso_U_11
_atom_site_aniso_U_22
_atom_site_aniso_U_33
_atom_site_aniso_U_12
_atom_site_aniso_U_13
_atom_site_aniso_U_23
Mg1 Mg2+ 0.0024(8) 0.0037(13) 0.0036(9) -0.0018(8) 0.0000(7) 0.0003(9)
O1 O2- 0.0038(5) 0.0096(10) 0.0058(7) -0.0016(6) 0.0005(5) -0.0002(7)
H1 H1+ 0.0193(17) 0.030(3) 0.0160(17) -0.0044(18) 0.0077(13) -0.0074(17)
H2 H1+ 0.0166(15) 0.027(3) 0.0164(16) -0.0083(16) -0.0042(13) -0.0008(16)
O2 O2- 0.0055(6) 0.0056(9) 0.0082(7) -0.0033(6) -0.0010(5) 0.0026(7)
H3 H1+ 0.0158(15) 0.016(2) 0.030(2) -0.0019(16) -0.0044(15) 0.0075(19)
H4 H1+ 0.0152(14) 0.022(2) 0.0236(19) -0.0084(16) 0.0052(13) 0.0009(17)
O3 O2- 0.0073(6) 0.0089(10) 0.0053(7) -0.0050(7) -0.0003(5) 0.0002(7)
H5 H1+ 0.030(2) 0.026(3) 0.0123(15) -0.016(2) 0.0019(14) 0.0045(16)
H6 H1+ 0.029(2) 0.025(3) 0.026(2) -0.021(2) -0.0023(17) 0.0004(19)
Mg2 Mg2+ 0.0034(8) 0.0053(13) 0.0029(9) -0.0016(9) -0.0001(7) -0.0002(9)
O4 O2- 0.0043(6) 0.0087(10) 0.0052(6) -0.0027(6) 0.0009(5) -0.0010(6)
H7 H1+ 0.0133(13) 0.025(2) 0.0208(17) -0.0109(16) 0.0021(12) -0.0002(17)
H8 H1+ 0.0197(15) 0.027(3) 0.0138(15) -0.0120(17) -0.0054(13) 0.0008(16)
O5 O2- 0.0092(7) 0.0098(10) 0.0054(6) -0.0077(7) -0.0014(5) 0.0008(7)
H9 H1+ 0.0269(18) 0.027(3) 0.0179(17) -0.0203(19) -0.0013(14) 0.0037(17)
H10 H1+ 0.0204(16) 0.024(2) 0.0158(16) -0.0128(17) -0.0057(13) 0.0018(16)
O6 O2- 0.0053(6) 0.0045(9) 0.0064(7) -0.0016(6) -0.0003(5) 0.0018(6)
H11 H1+ 0.0191(15) 0.025(2) 0.0179(16) -0.0105(17) 0.0018(13) 0.0084(17)
H12 H1+ 0.0109(13) 0.027(3) 0.0235(19) -0.0081(16) -0.0021(13) 0.0017(18)
Cr1 Cr6+ 0.0033(8) 0.0025(13) 0.0019(9) -0.0023(9) -0.0007(7) 0.0006(9)
O7 O2- 0.0045(6) 0.0077(10) 0.0025(6) -0.0023(6) -0.0009(5) 0.0004(6)
O8 O2- 0.0044(6) 0.0060(9) 0.0055(6) -0.0006(6) 0.0017(5) -0.0015(6)
O9 O2- 0.0050(6) 0.0048(9) 0.0057(7) -0.0004(6) -0.0003(5) 0.0018(6)
O10 O2- 0.0056(6) 0.0082(10) 0.0067(7) -0.0049(7) -0.0005(5) 0.0007(7)
O11 O2- 0.0055(6) 0.0070(10) 0.0056(6) -0.0026(6) 0.0004(5) 0.0003(6)
H13 H1+ 0.0236(17) 0.029(3) 0.0120(15) -0.0112(19) -0.0011(13) 0.0031(16)
H14 H1+ 0.026(2) 0.014(3) 0.039(3) -0.0056(19) 0.0035(19) -0.010(2)
O12 O2- 0.0067(6) 0.0082(10) 0.0066(7) -0.0043(7) -0.0001(5) 0.0012(7)
H15 H1+ 0.028(2) 0.018(2) 0.0192(18) -0.0136(18) 0.0047(15) -0.0074(16)
H16 H1+ 0.030(2) 0.018(2) 0.0181(17) -0.0143(18) -0.0001(15) 0.0036(17)
O13 O2- 0.0059(6) 0.0078(10) 0.0053(6) -0.0030(6) -0.0001(5) 0.0001(6)
H17 H1+ 0.0220(16) 0.022(2) 0.0148(16) -0.0085(17) -0.0011(13) 0.0074(16)
H18 H1+ 0.0191(16) 0.012(2) 0.025(2) -0.0048(15) 0.0031(14) -0.0023(17)
O14 O2- 0.0067(6) 0.0096(10) 0.0055(6) -0.0045(7) 0.0002(5) 0.0002(7)
H19 H1+ 0.0220(17) 0.031(3) 0.0155(16) -0.0161(19) -0.0007(14) -0.0065(17)
H20 H1+ 0.0132(13) 0.028(3) 0.0219(18) -0.0099(17) 0.0047(13) -0.0022(18)
O15 O2- 0.0048(6) 0.0067(10) 0.0059(7) -0.0017(6) 0.0009(5) -0.0010(6)
H21 H1+ 0.0214(17) 0.012(2) 0.030(2) -0.0036(16) 0.0012(16) -0.0023(18)
H22 H1+ 0.0110(13) 0.024(3) 0.029(2) -0.0053(15) -0.0031(14) 0.003(2)
#End of data_236335-ICSD


