data_28493-ICSD
#?2014 by Fachinformationszentrum Karlsruhe, and the U.S. Secretary of 
#Commerce on behalf of the United States.  All rights reserved.
_database_code_ICSD                28493
_audit_creation_date               1980/01/01
_audit_update_record               2004/10/01
_chemical_name_systematic          'Potassium Triantimony Oxide'
_chemical_formula_structural       'K Sb3 O5'
_chemical_formula_sum              'K1 O5 Sb3'
_publ_section_title
;
Structure cristalline de l'antimoniate (III) de potassium K Sb3 O5
;
loop_
_citation_id
_citation_journal_abbrev
_citation_year
_citation_journal_volume
_citation_page_first
_citation_page_last
_citation_journal_id_ASTM
primary 'Revue de Chimie Minerale' 1976 13 549 555 RVCMA8
_publ_author_name
;
Sauvage, J.P.;Maraine, P.;Perez, G.
;
_cell_length_a                     7.505(2)
_cell_length_b                     13.946(2)
_cell_length_c                     7.860(2)
_cell_angle_alpha                  90.
_cell_angle_beta                   126.43(1)
_cell_angle_gamma                  90.
_cell_volume                       661.9
_cell_formula_units_Z              4
_symmetry_space_group_name_H-M     'P 1 21/c 1'
_symmetry_Int_Tables_number        14
_refine_ls_R_factor_all            .07
loop_
_symmetry_equiv_pos_site_id
_symmetry_equiv_pos_as_xyz
  1	'x, -y+.5, z+.5'
  2	'-x, -y, -z'
  3	'-x, y+.5, -z+.5'
  4	'x, y, z'
loop_
_atom_type_symbol
_atom_type_oxidation_number
K1+	1
O2-	-2
Sb3+	3
loop_
_atom_site_label
_atom_site_type_symbol
_atom_site_symmetry_multiplicity
_atom_site_Wyckoff_symbol
_atom_site_fract_x
_atom_site_fract_y
_atom_site_fract_z
_atom_site_occupancy
_atom_site_attached_hydrogens
_atom_site_B_iso_or_equiv
K1 K1+ 4 e 0.0471(4) 0.2435(2) 0.0938(5) 1. 0 1.47 
Sb1 Sb3+ 4 e 0.0128(1) 0.4868(1) 0.2981(1) 1. 0 0.82 
Sb2 Sb3+ 4 e 0.4633(1) 0.8975(1) 0.3294(1) 1. 0 0.85 
Sb3 Sb3+ 4 e 0.4905(1) 0.6416(1) 0.4121(1) 1. 0 0.96 
O1 O2- 4 e 0.386(1) 0.273(1) 0.026(1) 1. 0 1.3 
O2 O2- 4 e 0.196(1) 0.041(1) 0.106(1) 1. 0 1.1 
O3 O2- 4 e 0.257(1) 0.406(1) 0.316(1) 1. 0 1.1 
O4 O2- 4 e 0.670(1) 0.347(1) 0.456(1) 1. 0 1.1 
O5 O2- 4 e 0.817(1) 0.370(1) 0.207(1) 1. 0 1. 

#End of data_28493-ICSD


