data_245715-ICSD
#?2014 by Fachinformationszentrum Karlsruhe, and the U.S. Secretary of 
#Commerce on behalf of the United States.  All rights reserved.
_database_code_ICSD                245715
_audit_creation_date               2008/08/01
_chemical_name_systematic          'Calcium Dicobaltate'
_chemical_formula_structural       'Ca Co2 O4'
_chemical_formula_sum              'Ca1 Co2 O4'
_publ_section_title
;
Structure and properties of the CaFe2O4-type cobalt oxide Ca Co2 O4
;
loop_
_citation_id
_citation_journal_abbrev
_citation_year
_citation_journal_volume
_citation_journal_issue
_citation_page_first
_citation_page_last
_citation_journal_id_ASTM
primary 'Journal of Solid State Chemistry' 2007 180 9 2550 2557 JSSCBI
_publ_author_name
;
Shizuya, M.;Isobe, M.;Takayama Muromachi, E.
;
_cell_length_a                     8.789(2)
_cell_length_b                     2.9006(7)
_cell_length_c                     10.282(3)
_cell_angle_alpha                  90.
_cell_angle_beta                   90.
_cell_angle_gamma                  90.
_cell_volume                       262.12
_cell_formula_units_Z              4
_symmetry_space_group_name_H-M     'P n m a'
_symmetry_Int_Tables_number        62
_refine_ls_R_factor_all            .0242
loop_
_symmetry_equiv_pos_site_id
_symmetry_equiv_pos_as_xyz
  1	'x+.5, y, -z+.5'
  2	'x, -y+.5, z'
  3	'-x+.5, y+.5, z+.5'
  4	'-x, -y, -z'
  5	'-x+.5, -y, z+.5'
  6	'-x, y+.5, -z'
  7	'x+.5, -y+.5, -z+.5'
  8	'x, y, z'
loop_
_atom_type_symbol
_atom_type_oxidation_number
Ca2+	2
Co3+	3
O2-	-2
loop_
_atom_site_label
_atom_site_type_symbol
_atom_site_symmetry_multiplicity
_atom_site_Wyckoff_symbol
_atom_site_fract_x
_atom_site_fract_y
_atom_site_fract_z
_atom_site_occupancy
_atom_site_attached_hydrogens
_atom_site_B_iso_or_equiv
Ca1 Ca2+ 4 c 0.7619(3) 0.25 0.6644(2) 1. 0 0.70(6) 
Co1 Co3+ 4 c 0.4160(2) 0.25 0.0980(2) 1. 0 0.25(4) 
Co2 Co3+ 4 c 0.4431(2) 0.25 0.6114(1) 1. 0 0.25 
O1 O2- 4 c 0.2018(7) 0.25 0.1552(6) 1. 0 1 
O2 O2- 4 c 0.1127(7) 0.25 0.4751(6) 1. 0 1 
O3 O2- 4 c 0.5259(9) 0.25 0.7902(6) 1. 0 1 
O4 O2- 4 c 0.4168(7) 0.25 0.4266(5) 1. 0 1 

#End of data_245715-ICSD


