data_167572-ICSD
#?2014 by Fachinformationszentrum Karlsruhe, and the U.S. Secretary of 
#Commerce on behalf of the United States.  All rights reserved.
_database_code_ICSD                167572
_audit_creation_date               2011/02/01
_chemical_name_systematic          'Lithium Magnesium Nitride'
_chemical_formula_structural       'Li Mg N'
_chemical_formula_sum              'Li1 Mg1 N1'
_publ_section_title
;
Tunable defect structure in the Li - Mg - N ternary phase system: a 
powder neutron diffraction study
;
loop_
_citation_id
_citation_journal_abbrev
_citation_year
_citation_journal_volume
_citation_page_first
_citation_page_last
_citation_journal_id_ASTM
primary 'Chemistry of Materials' 2010 22 3174 3182 CMATEX
_publ_author_name
;
Bailey, A.S.;Hubberstey, P.;Hughes, R.W.;Ritter, C.;Gregory, D.H.
;
_cell_length_a                     7.15310(16)
_cell_length_b                     3.50451(7)
_cell_length_c                     5.01003(10)
_cell_angle_alpha                  90.
_cell_angle_beta                   90.
_cell_angle_gamma                  90.
_cell_volume                       125.59
_cell_formula_units_Z              4
_symmetry_space_group_name_H-M     'P n m a'
_symmetry_Int_Tables_number        62
_refine_ls_R_factor_all            .0512
loop_
_symmetry_equiv_pos_site_id
_symmetry_equiv_pos_as_xyz
  1	'x+.5, y, -z+.5'
  2	'x, -y+.5, z'
  3	'-x+.5, y+.5, z+.5'
  4	'-x, -y, -z'
  5	'-x+.5, -y, z+.5'
  6	'-x, y+.5, -z'
  7	'x+.5, -y+.5, -z+.5'
  8	'x, y, z'
loop_
_atom_type_symbol
_atom_type_oxidation_number
Li1+	1
Mg2+	2
N3-	-3
loop_
_atom_site_label
_atom_site_type_symbol
_atom_site_symmetry_multiplicity
_atom_site_Wyckoff_symbol
_atom_site_fract_x
_atom_site_fract_y
_atom_site_fract_z
_atom_site_occupancy
_atom_site_attached_hydrogens
_atom_site_U_iso_or_equiv
Li1 Li1+ 4 c 0.0973(8) 0.250 0.5274(12) 1. 0 0.0107(3) 
Mg1 Mg2+ 4 c 0.1432(3) 0.250 0.0195(4) 1. 0 0.0082(1) 
N1 N3- 4 c 0.3788(2) 0.250 0.2700(3) 1. 0 0.0074(1) 

loop_
_atom_site_aniso_label
_atom_site_aniso_type_symbol
_atom_site_aniso_U_11
_atom_site_aniso_U_22
_atom_site_aniso_U_33
_atom_site_aniso_U_12
_atom_site_aniso_U_13
_atom_site_aniso_U_23
Li1 Li1+ 0.01389(32) 0.00938(20) 0.0088(25) 0. 0.00027(27) 0.
Mg1 Mg2+ 0.01132(8) 0.00794(7) 0.00541(10) 0. 0.0014(9) 0.
N1 N3- 0.01067(4) 0.00615(4) 0.00528(5) 0. 0.00185(5) 0.
#End of data_167572-ICSD


