data_65186-ICSD
#?2014 by Fachinformationszentrum Karlsruhe, and the U.S. Secretary of 
#Commerce on behalf of the United States.  All rights reserved.
_database_code_ICSD                65186
_audit_creation_date               1989/12/04
_audit_update_record               2012/02/01
_chemical_name_systematic
;
Silver(II) Bis(hexafluoroantimonate)
;
_chemical_formula_structural       'Ag (Sb F6)2'
_chemical_formula_sum              'Ag1 F12 Sb2'
_publ_section_title
;
Metal(II) hexafluoroantimonates: Preparation and characterization of 
M F2 (Sb F5)2 (M= Mg, Ni, Zn, Fe, Co, Cu, Cr, Ag, Cd, or Pb) and the 
X-ray structure determination of Ag F2 (Sb F5)2
;
loop_
_citation_id
_citation_journal_abbrev
_citation_year
_citation_journal_volume
_citation_page_first
_citation_page_last
_citation_journal_id_ASTM
primary
;
Journal of the Chemical Society. Dalton Transactions, Inorganic 
Chemistry (1972-)
;
 1987 1987 2379 2383 JCDTBI
_publ_author_name
;
Gantar, D.;Leban, I.;Frlec, B.;Holloway, J.H.
;
_cell_length_a                     5.224(1)
_cell_length_b                     5.467(2)
_cell_length_c                     8.779(2)
_cell_angle_alpha                  75.78(2)
_cell_angle_beta                   89.02(2)
_cell_angle_gamma                  65.29(2)
_cell_volume                       219.74
_cell_formula_units_Z              1
_symmetry_space_group_name_H-M     'P -1'
_symmetry_Int_Tables_number        2
_refine_ls_R_factor_all            .032
loop_
_symmetry_equiv_pos_site_id
_symmetry_equiv_pos_as_xyz
  1	'-x, -y, -z'
  2	'x, y, z'
loop_
_atom_type_symbol
_atom_type_oxidation_number
Ag2+	2
F1-	-1
Sb5+	5
loop_
_atom_site_label
_atom_site_type_symbol
_atom_site_symmetry_multiplicity
_atom_site_Wyckoff_symbol
_atom_site_fract_x
_atom_site_fract_y
_atom_site_fract_z
_atom_site_occupancy
_atom_site_attached_hydrogens
Ag1 Ag2+ 1 h 0.5 0.5 0.5 1. 0 
Sb1 Sb5+ 2 i 0.73221(7) 0.01298(6) 0.23400(4) 1. 0 
F1 F1- 2 i 0.6906(9) -.2270(8) 0.1338(5) 1. 0 
F2 F1- 2 i 1.1209(7) -.2080(7) 0.2899(4) 1. 0 
F3 F1- 2 i 0.6922(8) -.2272(7) 0.4310(4) 1. 0 
F4 F1- 2 i 0.7935(9) 0.2401(8) 0.0606(4) 1. 0 
F5 F1- 2 i 0.3479(8) 0.2279(9) 0.2258(5) 1. 0 
F6 F1- 2 i 0.7739(8) 0.2253(7) 0.3719(4) 1. 0 

#End of data_65186-ICSD


