data_35665-ICSD
#?2014 by Fachinformationszentrum Karlsruhe, and the U.S. Secretary of 
#Commerce on behalf of the United States.  All rights reserved.
_database_code_ICSD                35665
_audit_creation_date               1983/12/31
_chemical_name_systematic          'Magnesium Thiosulfate Hexahydrate'
_chemical_formula_structural       'Mg S2 O3 (H2 O)6'
_chemical_formula_sum              'H12 Mg1 O9 S2'
_publ_section_title
;
Deformation Density in Complex Anions. IV. Magnesium Thiosulfate 
Hexahydrate, Mg S2 O3 * 6H2 O
;
loop_
_citation_id
_citation_journal_abbrev
_citation_year
_citation_journal_volume
_citation_page_first
_citation_page_last
_citation_journal_id_ASTM
primary 'Acta Crystallographica, Section C: Crystal Structure Communications'
 1983 39 515 518 ACSCEE
_publ_author_name                  'Elerman, Y.;Bats, J.W.;Fuess, H.'
_cell_length_a                     9.324(2)
_cell_length_b                     14.461(4)
_cell_length_c                     6.862(1)
_cell_angle_alpha                  90.
_cell_angle_beta                   90.
_cell_angle_gamma                  90.
_cell_volume                       925.23
_cell_formula_units_Z              4
_symmetry_space_group_name_H-M     'P n m a'
_symmetry_Int_Tables_number        62
_refine_ls_R_factor_all            .026
loop_
_symmetry_equiv_pos_site_id
_symmetry_equiv_pos_as_xyz
  1	'x+.5, y, -z+.5'
  2	'x, -y+.5, z'
  3	'-x+.5, y+.5, z+.5'
  4	'-x, -y, -z'
  5	'-x+.5, -y, z+.5'
  6	'-x, y+.5, -z'
  7	'x+.5, -y+.5, -z+.5'
  8	'x, y, z'
loop_
_atom_type_symbol
_atom_type_oxidation_number
H1+	1
Mg2+	2
O2-	-2
S2-	-2
S6+	6
loop_
_atom_site_label
_atom_site_type_symbol
_atom_site_symmetry_multiplicity
_atom_site_Wyckoff_symbol
_atom_site_fract_x
_atom_site_fract_y
_atom_site_fract_z
_atom_site_occupancy
_atom_site_attached_hydrogens
_atom_site_U_iso_or_equiv
Mg1 Mg2+ 4 a 0 0 0 1. 0 0 
S1 S6+ 4 c 0.04105(2) 0.25 0.43971(3) 1. 0 0 
S2 S2- 4 c 0.21639(2) 0.25 0.61200(3) 1. 0 0 
O1 O2- 8 d -.04325(7) 0.16579(4) 0.47767(8) 1. 0 0 
O2 O2- 4 c 0.09132(9) 0.25 0.23491(10) 1. 0 0 
O3 O2- 8 d -.15484(5) 0.08130(3) 0.14755(7) 1. 0 0 
O4 O2- 8 d 0.12791(6) 0.11387(3) -.03032(7) 1. 0 0 
O5 O2- 8 d -.09855(6) 0.02614(4) -.25936(8) 1. 0 0 
H1 H1+ 8 d 0.8770(15) 0.1047(10) 0.2512(20) 1. 0 0.034 
H2 H1+ 8 d 0.8129(14) 0.1231(9) 0.0793(19) 1. 0 0.022 
H3 H1+ 8 d 0.1278(17) 0.1542(12) 0.0629(24) 1. 0 0.045 
H4 H1+ 8 d 0.1521(15) 0.1442(10) 0.8618(20) 1. 0 0.03 
H5 H1+ 8 d 0.9166(14) 0.0680(11) 0.6646(22) 1. 0 0.034 
H6 H1+ 8 d 0.8352(14) 0.9986(10) 0.7076(22) 1. 0 0.037 

loop_
_atom_site_aniso_label
_atom_site_aniso_type_symbol
_atom_site_aniso_U_11
_atom_site_aniso_U_22
_atom_site_aniso_U_33
_atom_site_aniso_U_12
_atom_site_aniso_U_13
_atom_site_aniso_U_23
Mg1 Mg2+ 0.0081(1) 0.00602(10) 0.00757(10) -.00036(8) 0.00000(9) 0.00061(9)
S1 S6+ 0.01157(7) 0.00615(6) 0.00661(6) 0 0.00052(6) 0
S2 S2- 0.01105(7) 0.00940(7) 0.01043(8) 0 0.00000(6) 0
O1 O2- 0.0193(2) 0.0136(2) 0.0134(2) -.0084(2) -.0022(2) 0.0029(2)
O2 O2- 0.0240(3) 0.0096(2) 0.0071(2) 0 0.0032(2) 0
O3 O2- 0.0110(2) 0.0088(2) 0.0100(2) 0.0009(1) 0.0002(1) -.0004(1)
O4 O2- 0.0147(2) 0.0079(2) 0.0118(2) -.0032(1) 0.0029(1) -.0007(1)
O5 O2- 0.0141(2) 0.0118(2) 0.0120(2) -.0028(1) -.0043(1) 0.0037(1)
#End of data_35665-ICSD


