data_75597-ICSD
#?2014 by Fachinformationszentrum Karlsruhe, and the U.S. Secretary of 
#Commerce on behalf of the United States.  All rights reserved.
_database_code_ICSD                75597
_audit_creation_date               1996/04/22
_audit_update_record               1999/01/19
_chemical_name_systematic          'Lithium Zinc Niobium Oxide'
_chemical_formula_structural       'Li Zn Nb O4'
_chemical_formula_sum              'Li1 Nb1 O4 Zn1'
_chemical_name_mineral             Spinel-(Li,Zn,Nb)
_publ_section_title
;
Relationship between crystal structure and electric properties for 
lithium-containing spinels
;
loop_
_citation_id
_citation_journal_abbrev
_citation_year
_citation_journal_volume
_citation_journal_issue
_citation_page_first
_citation_page_last
_citation_journal_id_ASTM
primary 'Materials Research Bulletin' 1994 29 8 903 910 MRBUAC
_publ_author_name
;
Gonzalez, C.;Lopez, M.L.;Gaitan, M.;Veiga, M.L.;Pico, C.
;
_cell_length_a                     6.0824(1)
_cell_length_b                     6.0824(1)
_cell_length_c                     8.4035(7)
_cell_angle_alpha                  90.
_cell_angle_beta                   90.
_cell_angle_gamma                  90.
_cell_volume                       310.89
_cell_formula_units_Z              4
_symmetry_space_group_name_H-M     'P 41 2 2'
_symmetry_Int_Tables_number        91
_refine_ls_R_factor_all            .0747
loop_
_symmetry_equiv_pos_site_id
_symmetry_equiv_pos_as_xyz
  1	'y, x, -z+.75'
  2	'-y, -x, -z+.25'
  3	'x, -y, -z+.5'
  4	'-x, y, -z'
  5	'y, -x, z+.75'
  6	'-y, x, z+.25'
  7	'-x, -y, z+.5'
  8	'x, y, z'
loop_
_atom_type_symbol
_atom_type_oxidation_number
Li1+	1
Nb5+	5
O2-	-2
Zn2+	2
loop_
_atom_site_label
_atom_site_type_symbol
_atom_site_symmetry_multiplicity
_atom_site_Wyckoff_symbol
_atom_site_fract_x
_atom_site_fract_y
_atom_site_fract_z
_atom_site_occupancy
_atom_site_attached_hydrogens
Zn1 Zn2+ 4 c 0.241(3) 0.241(3) 0.375 1. 0 
Li1 Li1+ 4 b 0.5 0.316(6) 0 1. 0 
Nb1 Nb5+ 4 a 0 0.285(3) 0 1. 0 
O1 O2- 8 d 0.241(9) 0.019(8) -.017(9) 1. 0 
O2 O2- 8 d 0.245(9) 0.485(8) 0.003(9) 1. 0 

#End of data_75597-ICSD


