data_151779-ICSD
#?2014 by Fachinformationszentrum Karlsruhe, and the U.S. Secretary of 
#Commerce on behalf of the United States.  All rights reserved.
_database_code_ICSD                151779
_audit_creation_date               2006/10/01
_chemical_name_systematic
;
Lanthanum Manganese Magnesium Oxide (1/0.5/0.5/3)
;
_chemical_formula_structural       'La (Mn0.5 Mg0.5 O3)'
_chemical_formula_sum              'La1 Mg0.5 Mn0.5 O3'
_publ_section_title
;
Structure and magnetic properties of La Mn1-x Mgx O3 compounds
;
loop_
_citation_id
_citation_journal_abbrev
_citation_year
_citation_journal_volume
_citation_page_first
_citation_page_last
_citation_journal_id_ASTM
primary 'Physical Review, Serie 3. B - Condensed Matter (18,1978-)'
 2004 70 094426-1 094426-10 PRBMDO
_publ_author_name
;
Blasco, J.;Garcia, J.;Subias, G.;Sanchez, M.C.
;
_cell_length_a                     5.5109(1)
_cell_length_b                     5.5109(1)
_cell_length_c                     13.2861(2)
_cell_angle_alpha                  90.
_cell_angle_beta                   90.
_cell_angle_gamma                  120.
_cell_volume                       349.44
_cell_formula_units_Z              6
_symmetry_space_group_name_H-M     'R -3 H'
_symmetry_Int_Tables_number        148
_refine_ls_R_factor_all            .03
loop_
_symmetry_equiv_pos_site_id
_symmetry_equiv_pos_as_xyz
  1	'x-y, x, -z'
  2	'y, -x+y, -z'
  3	'-x, -y, -z'
  4	'-x+y, -x, z'
  5	'-y, x-y, z'
  6	'x, y, z'
  7	'x-y+.6666, x+.3333, -z+.3333'
  8	'x-y+.3333, x+.6666, -z+.6666'
  9	'y+.6666, -x+y+.3333, -z+.3333'
 10	'y+.3333, -x+y+.6666, -z+.6666'
 11	'-x+.6666, -y+.3333, -z+.3333'
 12	'-x+.3333, -y+.6666, -z+.6666'
 13	'-x+y+.6666, -x+.3333, z+.3333'
 14	'-x+y+.3333, -x+.6666, z+.6666'
 15	'-y+.6666, x-y+.3333, z+.3333'
 16	'-y+.3333, x-y+.6666, z+.6666'
 17	'x+.6666, y+.3333, z+.3333'
 18	'x+.3333, y+.6666, z+.6666'
loop_
_atom_type_symbol
_atom_type_oxidation_number
La3+	3
Mg2+	2
Mn4+	4
O2-	-2
loop_
_atom_site_label
_atom_site_type_symbol
_atom_site_symmetry_multiplicity
_atom_site_Wyckoff_symbol
_atom_site_fract_x
_atom_site_fract_y
_atom_site_fract_z
_atom_site_occupancy
_atom_site_attached_hydrogens
_atom_site_B_iso_or_equiv
La1 La3+ 6 c 0 0 0.2498(1) 1. 0 0.45(2) 
Mn1 Mn4+ 3 a 0 0 0 1. 0 0.38(9) 
Mg1 Mg2+ 3 b 0 0 0.5 1. 0 0.25(10) 
O1 O2- 18 f 0.559(1) 0.011(2) 0.2521(5) 1. 0 0.52(9) 

#End of data_151779-ICSD


