data_165802-ICSD
#?2014 by Fachinformationszentrum Karlsruhe, and the U.S. Secretary of 
#Commerce on behalf of the United States.  All rights reserved.
_database_code_ICSD                165802
_audit_creation_date               2010/08/01
_audit_update_record               2012/02/01
_chemical_name_systematic
;
Potassium Yttrium Bis(tungstate) - Alpha
;
_chemical_formula_structural       'K Y (W O4)2'
_chemical_formula_sum              'K1 O8 W2 Y1'
_publ_section_title
;
Electronic structure of monoclinic alpha-(K Y (W O4)2) tungstate as 
determined from first-principles FP-LAPW calculations and X-ray 
spectroscopy studies
;
loop_
_citation_id
_citation_journal_abbrev
_citation_year
_citation_journal_volume
_citation_page_first
_citation_page_last
_citation_journal_id_ASTM
primary 'Journal of Alloys and Compounds' 2009 485 51 58 JALCEU
2 'Journal of Crystal Growth' 2000 209 895 905 JCRGAE
_publ_author_name
;
Bekenev, V.L.;Khyzhun, O.Yu.;Atuchin, V.V.
;
_cell_length_a                     10.6251
_cell_length_b                     10.3395
_cell_length_c                     7.5494
_cell_angle_alpha                  90.
_cell_angle_beta                   130.74
_cell_angle_gamma                  90.
_cell_volume                       628.39
_cell_formula_units_Z              4
_symmetry_space_group_name_H-M     'C 1 2/c 1'
_symmetry_Int_Tables_number        15
loop_
_symmetry_equiv_pos_site_id
_symmetry_equiv_pos_as_xyz
  1	'x, -y, z+.5'
  2	'-x, -y, -z'
  3	'-x, y, -z+.5'
  4	'x, y, z'
  5	'x+.5, -y+.5, z+.5'
  6	'-x+.5, -y+.5, -z'
  7	'-x+.5, y+.5, -z+.5'
  8	'x+.5, y+.5, z'
loop_
_atom_type_symbol
_atom_type_oxidation_number
K1+	1
O2-	-2
W6+	6
Y3+	3
loop_
_atom_site_label
_atom_site_type_symbol
_atom_site_symmetry_multiplicity
_atom_site_Wyckoff_symbol
_atom_site_fract_x
_atom_site_fract_y
_atom_site_fract_z
_atom_site_occupancy
_atom_site_attached_hydrogens
K1 K1+ 4 e 0 0.70070 0.75 1. 0 
Y1 Y3+ 4 e 0 0.27193 0.75 1. 0 
W1 W6+ 8 f 0.19670 0.00026 0.23566 1. 0 
O1 O2- 8 f 0.12711 0.57954 0.18912 1. 0 
O2 O2- 8 f 0.02319 0.10878 0.96982 1. 0 
O3 O2- 8 f 0.22427 0.34168 0.12456 1. 0 
O4 O2- 8 f 0.19008 0.92343 0.94057 1. 0 

#End of data_165802-ICSD


