data_191282-ICSD
#?2014 by Fachinformationszentrum Karlsruhe, and the U.S. Secretary of 
#Commerce on behalf of the United States.  All rights reserved.
_database_code_ICSD                191282
_audit_creation_date               2014/08/01
_chemical_name_systematic          'Dipotassium Copper Pyrophosphate'
_chemical_formula_structural       'K2 Cu (P2 O7)'
_chemical_formula_sum              'Cu1 K2 O7 P2'
_publ_section_title
;
Synthesis and structural characterisation of iron(II) and copper(II) 
diphosphates containing flattened metal oxotetrahedra
;
loop_
_citation_id
_citation_journal_abbrev
_citation_year
_citation_journal_volume
_citation_journal_issue
_citation_page_first
_citation_page_last
_citation_journal_id_ASTM
primary 'Journal of Solid State Chemistry' 2014 210 1 10 14 JSSCBI
_publ_author_name
;
Keates, Adam C.;Wang, Qianlong;Weller, Mark T.
;
_cell_length_a                     8.056(2)
_cell_length_b                     8.056(2)
_cell_length_c                     5.460(11)
_cell_angle_alpha                  90.
_cell_angle_beta                   90.
_cell_angle_gamma                  90.
_cell_volume                       354.35
_cell_formula_units_Z              2
_symmetry_space_group_name_H-M     'P -4 21 m'
_symmetry_Int_Tables_number        113
_refine_ls_R_factor_all            .0267
loop_
_symmetry_equiv_pos_site_id
_symmetry_equiv_pos_as_xyz
  1	'-y+.5, -x+.5, z'
  2	'y, -x, -z'
  3	'y+.5, x+.5, z'
  4	'-y, x, -z'
  5	'x+.5, -y+.5, -z'
  6	'-x, -y, z'
  7	'-x+.5, y+.5, -z'
  8	'x, y, z'
loop_
_atom_type_symbol
_atom_type_oxidation_number
Cu2+	2
K1+	1
O2-	-2
P5+	5
loop_
_atom_site_label
_atom_site_type_symbol
_atom_site_symmetry_multiplicity
_atom_site_Wyckoff_symbol
_atom_site_fract_x
_atom_site_fract_y
_atom_site_fract_z
_atom_site_occupancy
_atom_site_attached_hydrogens
_atom_site_U_iso_or_equiv
K1 K1+ 4 e 0.33421(8) 0.16579(8) 0.4917(3) 1. 0 0.0128(3) 
Cu1 Cu2+ 2 a 0 0 0 1. 0 0.0110(2) 
P1 P5+ 4 e 0.63383(11) 0.13383(11) 0.9785(3) 1. 0 0.0104(3) 
O1 O2- 2 c 0.5 0 0.8733(11) 1. 0 0.0150(12) 
O2 O2- 8 f 0.2048(4) 0.9224(3) 0.8566(5) 1. 0 0.0152(7) 
O3 O2- 4 e 0.6356(3) 0.1356(3) 0.2511(7) 1. 0 0.0137(9) 

#End of data_191282-ICSD


