data_187838-ICSD
#?2014 by Fachinformationszentrum Karlsruhe, and the U.S. Secretary of 
#Commerce on behalf of the United States.  All rights reserved.
_database_code_ICSD                187838
_audit_creation_date               2013/08/01
_chemical_name_systematic          'Dizinc Silicate'
_chemical_formula_structural       'Zn2 (Si O4)'
_chemical_formula_sum              'O4 Si1 Zn2'
_publ_section_title
;
Crystal structures of Zn2 Si O4 III and IV synthesized at 6.5-8 GPa 
and 1273 K
;
loop_
_citation_id
_citation_journal_abbrev
_citation_year
_citation_journal_volume
_citation_journal_issue
_citation_page_first
_citation_page_last
_citation_journal_id_ASTM
primary 'Physics and Chemistry of Minerals' 2013 40 6 467 478 PCMIDU
_publ_author_name
;
Liu, Xianyu;Kanzaki, Masami;Xue, Xianyu
;
_cell_length_a                     10.2897(5)
_cell_length_b                     6.6711(3)
_cell_length_c                     5.0691(2)
_cell_angle_alpha                  90.
_cell_angle_beta                   90.
_cell_angle_gamma                  90.
_cell_volume                       347.96
_cell_formula_units_Z              4
_symmetry_space_group_name_H-M     'P n m a'
_symmetry_Int_Tables_number        62
_refine_ls_R_factor_all            .011
loop_
_symmetry_equiv_pos_site_id
_symmetry_equiv_pos_as_xyz
  1	'x+.5, y, -z+.5'
  2	'x, -y+.5, z'
  3	'-x+.5, y+.5, z+.5'
  4	'-x, -y, -z'
  5	'-x+.5, -y, z+.5'
  6	'-x, y+.5, -z'
  7	'x+.5, -y+.5, -z+.5'
  8	'x, y, z'
loop_
_atom_type_symbol
_atom_type_oxidation_number
O2-	-2
Si4+	4
Zn2+	2
loop_
_atom_site_label
_atom_site_type_symbol
_atom_site_symmetry_multiplicity
_atom_site_Wyckoff_symbol
_atom_site_fract_x
_atom_site_fract_y
_atom_site_fract_z
_atom_site_occupancy
_atom_site_attached_hydrogens
_atom_site_B_iso_or_equiv
Zn1 Zn2+ 8 d 0.15637(6) -0.0007(2) 0.8245(1) 1. 0 0.58(2) 
Si1 Si4+ 4 c 0.0935(2) 0.25 0.3215(8) 1. 0 0.54(5) 
O1 O2- 4 c 0.1078(5) 0.25 0.650(1) 1. 0 0.59(6) 
O2 O2- 4 c 0.4457(5) 0.25 0.262(1) 1. 0 0.59(6) 
O3 O2- 8 d 0.1605(3) 0.0456(4) 0.2070(7) 1. 0 0.59(6) 

#End of data_187838-ICSD


