data_66867-ICSD
#?2014 by Fachinformationszentrum Karlsruhe, and the U.S. Secretary of 
#Commerce on behalf of the United States.  All rights reserved.
_database_code_ICSD                66867
_audit_creation_date               1997/11/10
_audit_update_record               2006/04/01
_chemical_name_systematic          'Tetrasodium Tetrasilicon Sulfide'
_chemical_formula_structural       'Na4 Si4 S10'
_chemical_formula_sum              'Na4 S10 Si4'
_publ_section_title
;
Etude structurale de thiocomposes a groupement anionique de type 
tetrane Na4 X4 S10 (X= Ge, Si) et Ba2 Ge4 S10
;
loop_
_citation_id
_citation_journal_abbrev
_citation_year
_citation_journal_volume
_citation_page_first
_citation_page_last
_citation_journal_id_ASTM
primary 'Journal of Solid State Chemistry' 1973 8 195 205 JSSCBI
2
;
Comptes Rendus Hebdomadaires des Seances de l`Academie des Sciences, 
Serie C, Sciences Chimiques (1966-)
;
 1972 274 1054 1056 CHDCAQ
_publ_author_name
;
Ribes, M.;Olivier Fourcade, J.;Philippot, E.;Maurin, M.
;
_cell_length_a                     12.681(8)
_cell_length_b                     12.720(4)
_cell_length_c                     10.346(5)
_cell_angle_alpha                  90.
_cell_angle_beta                   90.
_cell_angle_gamma                  90.
_cell_volume                       1668.83
_cell_formula_units_Z              4
_symmetry_space_group_name_H-M     'C m c m'
_symmetry_Int_Tables_number        63
_refine_ls_R_factor_all            .126
loop_
_symmetry_equiv_pos_site_id
_symmetry_equiv_pos_as_xyz
  1	'-x, y, -z+.5'
  2	'-x, -y, z+.5'
  3	'-x, y, z'
  4	'-x, -y, -z'
  5	'x, -y, z+.5'
  6	'x, y, -z+.5'
  7	'x, -y, -z'
  8	'x, y, z'
  9	'-x+.5, y+.5, -z+.5'
 10	'-x+.5, -y+.5, z+.5'
 11	'-x+.5, y+.5, z'
 12	'-x+.5, -y+.5, -z'
 13	'x+.5, -y+.5, z+.5'
 14	'x+.5, y+.5, -z+.5'
 15	'x+.5, -y+.5, -z'
 16	'x+.5, y+.5, z'
loop_
_atom_type_symbol
_atom_type_oxidation_number
Na1+	1
S2-	-2
Si4+	4
loop_
_atom_site_label
_atom_site_type_symbol
_atom_site_symmetry_multiplicity
_atom_site_Wyckoff_symbol
_atom_site_fract_x
_atom_site_fract_y
_atom_site_fract_z
_atom_site_occupancy
_atom_site_attached_hydrogens
Si1 Si4+ 8 f 0 0.2522(4) 0.0832(8) 1. 0 
Si2 Si4+ 8 g 0.1346(4) 0.4475(4) 0.25 1. 0 
S1 S2- 4 c 0 0.5477(6) 0.25 1. 0 
S2 S2- 16 h 0.1389(3) 0.3492(3) 0.0795(5) 1. 0 
S3 S2- 4 c 0 0.1540(6) 0.25 1. 0 
S4 S2- 8 f 0 0.1579(4) -.0772(8) 1. 0 
S5 S2- 8 g 0.2655(4) 0.5386(4) 0.25 1. 0 
Na1 Na1+ 8 e 0.1527(6) 0 0 1. 0 
Na2 Na1+ 8 g 0.3375(8) 0.2451(9) 0.25 1. 0 

loop_
_atom_site_aniso_label
_atom_site_aniso_type_symbol
_atom_site_aniso_U_11
_atom_site_aniso_U_22
_atom_site_aniso_U_33
_atom_site_aniso_U_12
_atom_site_aniso_U_13
_atom_site_aniso_U_23
Si1 Si4+ 0.025(3) 0.010(3) 0.037(5) 0 0 -.002(1)
Si2 Si4+ 0.021(3) 0.014(3) 0.028(5) 0.003(1) 0 0
S1 S2- 0.027(4) 0.018(5) 0.042(10) 0 0 0
S2 S2- 0.032(1) 0.026(3) 0.023(10) 0.011(3) 0.012(6) -.008(6)
S3 S2- 0.040(6) 0.017(5) 0.019(10) 0 0 0
S4 S2- 0.037(4) 0.022(3) 0.016(5) 0 0 0.008(3)
S5 S2- 0.035(4) 0.032(4) 0.017(5) -.015(6) 0 0
Na1 Na1+ 0.023(5) 0.041(6) 0.058(5) 0 0 0.011(3)
Na2 Na1+ 0.052(7) 0.058(8) 0.043(10) 0.028(2) 0 0
#End of data_66867-ICSD


