data_15595-ICSD
#?2014 by Fachinformationszentrum Karlsruhe, and the U.S. Secretary of 
#Commerce on behalf of the United States.  All rights reserved.
_database_code_ICSD                15595
_audit_creation_date               1981/12/31
_chemical_name_systematic          'Palladium Dialuminium Chloride'
_chemical_formula_structural       'Pd Al2 Cl8'
_chemical_formula_sum              'Al2 Cl8 Pd1'
_publ_section_title
;
Ein Beitrag zu den Koordinationsverhaeltnissen in den gasfoermigen M 
Al2 Cl8-Komplexen. Das Spektrum Von Co Al2 CLn I8-n und die 
Kristallstruktur von Pd Al2 Cl8
;
loop_
_citation_id
_citation_journal_abbrev
_citation_year
_citation_journal_volume
_citation_page_first
_citation_page_last
_citation_journal_id_ASTM
primary 'Zeitschrift fuer Anorganische und Allgemeine Chemie (1950) (DE)'
 1981 482 19 26 ZAACAB
_publ_author_name
;
Lenhard, W.;Schaefer, H.;Huerter, H.U.;Krebs, B.
;
_cell_length_a                     6.583(3)
_cell_length_b                     7.342(3)
_cell_length_c                     13.033(4)
_cell_angle_alpha                  90.
_cell_angle_beta                   96.40(3)
_cell_angle_gamma                  90.
_cell_volume                       625.99
_cell_formula_units_Z              2
_symmetry_space_group_name_H-M     'P 1 21/c 1'
_symmetry_Int_Tables_number        14
_refine_ls_R_factor_all            .03
loop_
_symmetry_equiv_pos_site_id
_symmetry_equiv_pos_as_xyz
  1	'x, -y+.5, z+.5'
  2	'-x, -y, -z'
  3	'-x, y+.5, -z+.5'
  4	'x, y, z'
loop_
_atom_type_symbol
_atom_type_oxidation_number
Al3+	3
Cl1-	-1
Pd2+	2
loop_
_atom_site_label
_atom_site_type_symbol
_atom_site_symmetry_multiplicity
_atom_site_Wyckoff_symbol
_atom_site_fract_x
_atom_site_fract_y
_atom_site_fract_z
_atom_site_occupancy
_atom_site_attached_hydrogens
Pd1 Pd2+ 2 a 0 0 0 1. 0 
Al1 Al3+ 4 e 0.33665(18) -.28024(17) 0.10203(10) 1. 0 
Cl1 Cl1- 4 e 0.13999(18) -.27216(15) -.04695(8) 1. 0 
Cl2 Cl1- 4 e 0.22998(19) -.00938(16) 0.14787(10) 1. 0 
Cl3 Cl1- 4 e 0.25082(23) -.47860(18) 0.20151(10) 1. 0 
Cl4 Cl1- 4 e 0.64309(17) -.28504(19) 0.07681(11) 1. 0 

loop_
_atom_site_aniso_label
_atom_site_aniso_type_symbol
_atom_site_aniso_B_11
_atom_site_aniso_B_22
_atom_site_aniso_B_33
_atom_site_aniso_B_12
_atom_site_aniso_B_13
_atom_site_aniso_B_23
Pd1 Pd2+ 3.37(2) 3.03(2) 3.50(2) 0.49(2) -.28(2) -.24(2)
Al1 Al3+ 2.94(5) 3.18(5) 3.60(5) 0.27(4) 0.09(4) 0.25(4)
Cl1 Cl1- 4.60(5) 3.59(5) 3.84(5) 1.20(4) -.64(4) -.80(4)
Cl2 Cl1- 4.71(5) 4.30(5) 4.05(5) 1.40(4) -1.24(4) -1.16(4)
Cl3 Cl1- 6.23(7) 5.51(7) 4.79(6) -1.24(6) 0.19(5) 1.51(5)
Cl4 Cl1- 3.20(5) 5.17(6) 6.95(7) 0.00(4) 1.06(5) -.87(5)
#End of data_15595-ICSD


