data_425760-ICSD
#?2014 by Fachinformationszentrum Karlsruhe, and the U.S. Secretary of 
#Commerce on behalf of the United States.  All rights reserved.
_database_code_ICSD                425760
_audit_creation_date               2014/02/01
_chemical_name_systematic
;
Disilver Iron(II) Silicon Tetrasulfide
;
_chemical_formula_structural       'Ag2 Fe (Si S4)'
_chemical_formula_sum              'Ag2 Fe1 S4 Si1'
_publ_section_title
;
The impact of three new quaternary sulfides on the current predictive 
tools for structure and composition of diamond-like materials
;
loop_
_citation_id
_citation_journal_abbrev
_citation_year
_citation_journal_volume
_citation_page_first
_citation_page_last
_citation_journal_id_ASTM
primary 'Journal of Alloys and Compounds' 2013 574 495 503 JALCEU
_publ_author_name
;
Brunetta, Carl D.;Brant, Jacilynn A.;Rosmus, Kimberly A.;Henline, 
Kylie M.;Karey, Emma;MacNeil, Joseph H.;Aitken, Jennifer A.
;
_cell_length_a                     6.42200(10)
_cell_length_b                     6.61850(10)
_cell_length_c                     7.86500(10)
_cell_angle_alpha                  90.00
_cell_angle_beta                   90.6140(10)
_cell_angle_gamma                  90.00
_cell_volume                       334.27
_cell_formula_units_Z              2
_symmetry_space_group_name_H-M     'P 1 n 1'
_symmetry_Int_Tables_number        7
_refine_ls_R_factor_all            .0235
loop_
_symmetry_equiv_pos_site_id
_symmetry_equiv_pos_as_xyz
  1	'x+.5, -y, z+.5'
  2	'x, y, z'
loop_
_atom_type_symbol
_atom_type_oxidation_number
Ag1+	1
Fe2+	2
S2-	-2
Si4+	4
loop_
_atom_site_label
_atom_site_type_symbol
_atom_site_symmetry_multiplicity
_atom_site_Wyckoff_symbol
_atom_site_fract_x
_atom_site_fract_y
_atom_site_fract_z
_atom_site_occupancy
_atom_site_attached_hydrogens
_atom_site_U_iso_or_equiv
Ag1 Ag1+ 2 a 0.23458(7) 0.31961(11) 0.32677(6) 1 0 0.03210(19) 
Ag2 Ag1+ 2 a -0.27882(9) 0.14939(8) 0.58073(9) 1 0 0.03436(19) 
Si1 Si4+ 2 a 0.2184(4) -0.18579(19) 0.5724(4) 1 0 0.0122(3) 
Fe1 Fe2+ 2 a 0.21946(16) 0.31603(16) 0.81880(13) 1 0 0.0159(2) 
S1 S2- 2 a 0.1162(3) 0.1205(2) 0.5855(2) 1 0 0.0162(3) 
S2 S2- 2 a 0.0869(3) 0.6810(2) 0.3521(2) 1 0 0.0167(3) 
S3 S2- 2 a 0.0486(3) 0.1986(2) 0.0606(2) 1 0 0.0168(3) 
S4 S2- 2 a 0.6245(3) 0.3387(2) 0.2997(2) 1 0 0.0151(3) 

loop_
_atom_site_aniso_label
_atom_site_aniso_type_symbol
_atom_site_aniso_U_11
_atom_site_aniso_U_22
_atom_site_aniso_U_33
_atom_site_aniso_U_12
_atom_site_aniso_U_13
_atom_site_aniso_U_23
Ag1 Ag1+ 0.0284(3) 0.0352(3) 0.0327(3) -0.0012(3) -0.0002(2) -0.0034(3)
Ag2 Ag1+ 0.0309(3) 0.0347(3) 0.0376(4) -0.0014(4) 0.0018(2) -0.0057(4)
Si1 Si4+ 0.0115(8) 0.0125(6) 0.0125(7) -0.0011(7) -0.0013(5) -0.0002(8)
Fe1 Fe2+ 0.0180(4) 0.0146(4) 0.0150(5) -0.0007(3) 0.0009(3) -0.0015(4)
S1 S2- 0.0179(7) 0.0104(6) 0.0202(7) 0.0024(6) -0.0018(5) -0.0002(6)
S2 S2- 0.0148(7) 0.0198(7) 0.0155(8) -0.0002(5) -0.0009(6) -0.0038(6)
S3 S2- 0.0116(7) 0.0224(7) 0.0165(7) -0.0009(5) 0.0000(6) 0.0025(5)
S4 S2- 0.0163(8) 0.0157(6) 0.0135(7) -0.0008(5) 0.0038(5) -0.0019(5)
#End of data_425760-ICSD


