data_280867-ICSD
#?2014 by Fachinformationszentrum Karlsruhe, and the U.S. Secretary of 
#Commerce on behalf of the United States.  All rights reserved.
_database_code_ICSD                280867
_audit_creation_date               2002/10/01
_chemical_name_systematic          'Tripotassium Antimonate(V)'
_chemical_formula_structural       'K3 (Sb O4)'
_chemical_formula_sum              'K3 O4 Sb1'
_publ_section_title
;
Potassium oxoantimonate(V), K3 (Sb O4)
;
loop_
_citation_id
_citation_journal_abbrev
_citation_year
_citation_journal_volume
_citation_page_first
_citation_page_last
_citation_journal_id_ASTM
primary 'Acta Crystallographica, Section C: Crystal Structure Communications'
 2001 57 1239 1241 ACSCEE
_publ_author_name
;
Hirschle, C.;Rosstauscher, J.;Roehr, C.
;
_cell_length_a                     5.7971(12)
_cell_length_b                     6.5933(14)
_cell_length_c                     5.4179(12)
_cell_angle_alpha                  90.
_cell_angle_beta                   109.394(4)
_cell_angle_gamma                  90.
_cell_volume                       195.33
_cell_formula_units_Z              2
_symmetry_space_group_name_H-M     'P 1 2/c 1'
_symmetry_Int_Tables_number        13
_refine_ls_R_factor_all            .048
loop_
_symmetry_equiv_pos_site_id
_symmetry_equiv_pos_as_xyz
  1	'x, -y, z+.5'
  2	'-x, -y, -z'
  3	'-x, y, -z+.5'
  4	'x, y, z'
loop_
_atom_type_symbol
_atom_type_oxidation_number
K1+	1
O2-	-2
Sb5+	5
loop_
_atom_site_label
_atom_site_type_symbol
_atom_site_symmetry_multiplicity
_atom_site_Wyckoff_symbol
_atom_site_fract_x
_atom_site_fract_y
_atom_site_fract_z
_atom_site_occupancy
_atom_site_attached_hydrogens
Sb1 Sb5+ 2 f 0.5 0.86977(8) 0.25 1. 0 
O1 O2- 4 g 0.2733(11) 0.3322(9) 0.5407(12) 1. 0 
O2 O2- 4 g 0.3045(11) 0.0986(8) 0.0005(11) 1. 0 
K1 K1+ 2 f 0.5 0.3832(4) 0.25 1. 0 
K2 K1+ 2 e 0 0.1253(5) 0.25 1. 0 
K3 K1+ 2 e 0 0.6099(6) 0.25 1. 0 

loop_
_atom_site_aniso_label
_atom_site_aniso_type_symbol
_atom_site_aniso_U_11
_atom_site_aniso_U_22
_atom_site_aniso_U_33
_atom_site_aniso_U_12
_atom_site_aniso_U_13
_atom_site_aniso_U_23
Sb1 Sb5+ 0.0151(6) 0.0086(6) 0.0084(5) 0 0.0027(3) 0
O1 O2- 0.018(3) 0.016(2) 0.009(2) 0.002(2) 0.001(2) -.002(2)
O2 O2- 0.015(2) 0.016(2) 0.004(2) 0.000(2) 0.0011(19) -.0006(18)
K1 K1+ 0.045(2) 0.034(2) 0.036(2) 0 0.0133(18) 0
K2 K1+ 0.046(2) 0.037(2) 0.043(3) 0 0.007(2) 0
K3 K1+ 0.055(3) 0.051(3) 0.054(3) 0 0.024(2) 0
#End of data_280867-ICSD


