data_93602-ICSD
#?2014 by Fachinformationszentrum Karlsruhe, and the U.S. Secretary of 
#Commerce on behalf of the United States.  All rights reserved.
_database_code_ICSD                93602
_audit_creation_date               2003/04/01
_chemical_name_systematic          'Lithium Rubidium Tetraborate'
_chemical_formula_structural       'Li Rb (B4 O7)'
_chemical_formula_sum              'B4 Li1 O7 Rb1'
_publ_section_title
;
Structural study of Li K B4 O7 and Li Rb B4 O7: new nonlinear optical 
crystals
;
loop_
_citation_id
_citation_journal_abbrev
_citation_year
_citation_journal_volume
_citation_page_first
_citation_page_last
_citation_journal_id_ASTM
primary 'Journal of Crystal Growth' 2001 229 472 476 JCRGAE
_publ_author_name
;
Ono, Y.;Nakaya, M.;Sugawara, T.;Watanabe, N.;Siraishi, H.;Komatsu, 
R.;Kajitani, T.
;
_cell_length_a                     8.6257(12)
_cell_length_b                     11.2576(13)
_cell_length_c                     12.8531(15)
_cell_angle_alpha                  90
_cell_angle_beta                   90
_cell_angle_gamma                  90
_cell_volume                       1248.1
_cell_formula_units_Z              8
_symmetry_space_group_name_H-M     'P 21 21 21'
_symmetry_Int_Tables_number        19
_refine_ls_R_factor_all            .05
loop_
_symmetry_equiv_pos_site_id
_symmetry_equiv_pos_as_xyz
  1	'-x, y+.5, -z+.5'
  2	'x+.5, -y+.5, -z'
  3	'-x+.5, -y, z+.5'
  4	'x, y, z'
loop_
_atom_type_symbol
_atom_type_oxidation_number
B3+	3
Li1+	1
O2-	-2
Rb1+	1
loop_
_atom_site_label
_atom_site_type_symbol
_atom_site_symmetry_multiplicity
_atom_site_Wyckoff_symbol
_atom_site_fract_x
_atom_site_fract_y
_atom_site_fract_z
_atom_site_occupancy
_atom_site_attached_hydrogens
_atom_site_U_iso_or_equiv
Rb1 Rb1+ 4 a 0.79945(6) 0.62459(5) 0.29148(4) 1. 0 0.0209(1) 
Rb2 Rb1+ 4 a 0.13857(6) 0.53825(5) 0.59969(4) 1. 0 0.0214(1) 
O1 O2- 4 a -0.0033(4) 0.2839(3) 0.5311(3) 1. 0 0.0114(7) 
O2 O2- 4 a 0.7468(4) 0.2872(3) 0.4487(3) 1. 0 0.0117(7) 
O3 O2- 4 a 0.9356(4) 0.4233(3) 0.3942(3) 1. 0 0.0170(8) 
O4 O2- 4 a 0.8252(4) 0.4422(3) 0.5666(3) 1. 0 0.0135(8) 
O5 O2- 4 a 0.6496(4) 0.5681(3) 0.6501(3) 1. 0 0.0154(8) 
O6 O2- 4 a 0.4376(4) 0.6583(3) 0.5614(3) 1. 0 0.0164(8) 
O7 O2- 4 a 0.6255(4) 0.5381(3) 0.4677(3) 1. 0 0.0163(7) 
O8 O2- 4 a 0.3620(4) 0.5393(3) 0.4167(3) 1. 0 0.0172(7) 
O9 O2- 4 a 0.5231(4) 0.7143(3) 0.3902(3) 1. 0 0.0156(8) 
O10 O2- 4 a 0.4660(4) 0.8392(3) 0.2457(3) 1. 0 0.0132(7) 
O11 O2- 4 a 0.2990(4) 0.6803(3) 0.2852(3) 1. 0 0.0178(8) 
O12 O2- 4 a 0.1462(3) 0.5096(3) 0.3030(3) 1. 0 0.0245(9) 
O13 O2- 4 a 0.0426(6) 0.3292(4) 0.2426(3) 1. 0 0.031(1) 
O14 O2- 4 a 0.1867(4) 0.3259(3) 0.3997(3) 1. 0 0.0124(7) 
B1 B3+ 4 a 0.8781(6) 0.3600(5) 0.4836(4) 1. 0 0.009(1) 
B2 B3+ 4 a 0.7012(7) 0.5166(5) 0.5571(6) 1. 0 0.011(1) 
B3 B3+ 4 a 0.5118(6) 0.6323(6) 0.6510(5) 1. 0 0.014(1) 
B4 B3+ 4 a 0.4866(7) 0.6143(6) 0.4590(4) 1. 0 0.015(1) 
B5 B3+ 4 a 0.4353(6) 0.7491(5) 0.3059(5) 1. 0 0.013(1) 
B6 B3+ 4 a 0.2669(7) 0.5742(5) 0.3374(4) 1. 0 0.014(1) 
B7 B3+ 4 a 0.0757(6) 0.3984(4) 0.3379(4) 1. 0 0.009(1) 
B8 B3+ 4 a 0.1432(7) 0.2738(4) 0.4912(4) 1. 0 0.010(1) 
Li1 Li1+ 4 a 0.427(1) 0.3554(8) 0.3814(7) 1. 0 0.019(2) 
Li2 Li1+ 4 a 0.757(1) 0.3287(9) 0.3043(8) 1. 0 0.021(2) 

#End of data_93602-ICSD


