data_16090-ICSD
#?2014 by Fachinformationszentrum Karlsruhe, and the U.S. Secretary of 
#Commerce on behalf of the United States.  All rights reserved.
_database_code_ICSD                16090
_audit_creation_date               1980/01/01
_audit_update_record               2012/02/01
_chemical_name_systematic
;
Dipotassium Aquapentafluoroferrate(III)
;
_chemical_formula_structural       'K2 (Fe F5 (H2 O))'
_chemical_formula_sum              'H2 F5 Fe1 K2 O1'
_publ_section_title
;
Fluoride crystal structures. Part XIX. Dipotassium 
aquopentafluoroferrate(III)
;
loop_
_citation_id
_citation_journal_abbrev
_citation_year
_citation_journal_volume
_citation_page_first
_citation_page_last
_citation_journal_id_ASTM
primary
;
Journal of the Chemical Society. Dalton Transactions, Inorganic 
Chemistry (1972-)
;
 1972 1972 816 818 JCDTBI
_publ_author_name                  'Edwards, A.J.'
_cell_length_a                     9.71(1)
_cell_length_b                     7.79(1)
_cell_length_c                     7.95(1)
_cell_angle_alpha                  90.
_cell_angle_beta                   96.5(2)
_cell_angle_gamma                  90.
_cell_volume                       597.48
_cell_formula_units_Z              4
_symmetry_space_group_name_H-M     'C 1 2/c 1'
_symmetry_Int_Tables_number        15
_refine_ls_R_factor_all            .074
loop_
_symmetry_equiv_pos_site_id
_symmetry_equiv_pos_as_xyz
  1	'x, -y, z+.5'
  2	'-x, -y, -z'
  3	'-x, y, -z+.5'
  4	'x, y, z'
  5	'x+.5, -y+.5, z+.5'
  6	'-x+.5, -y+.5, -z'
  7	'-x+.5, y+.5, -z+.5'
  8	'x+.5, y+.5, z'
loop_
_atom_type_symbol
_atom_type_oxidation_number
F1-	-1
Fe3+	3
H1+	1
K1+	1
O2-	-2
loop_
_atom_site_label
_atom_site_type_symbol
_atom_site_symmetry_multiplicity
_atom_site_Wyckoff_symbol
_atom_site_fract_x
_atom_site_fract_y
_atom_site_fract_z
_atom_site_occupancy
_atom_site_attached_hydrogens
_atom_site_B_iso_or_equiv
Fe1 Fe3+ 4 e 0 0.2061(3) 0.25 1. 0 0.94 
K1 K1+ 8 f 0.2984(2) -.0028(3) 0.4682(2) 1. 0 1.69 
F1 F1- 8 f 0.0701(5) 0.2027(9) 0.4863(6) 1. 0 1.92 
F2 F1- 8 f 0.1855(6) 0.1958(9) 0.1940(6) 1. 0 2.05 
F3 F1- 4 e 0 0.4525(14) 0.25 1. 0 1.55 
O1 O2- 4 e 0 -.0592(21) 0.25 1. 0 2.71 
H1 H1+ 8 f -.023 -.117 0.333 1. 0 0 

#End of data_16090-ICSD


