data_171422-ICSD
#?2014 by Fachinformationszentrum Karlsruhe, and the U.S. Secretary of 
#Commerce on behalf of the United States.  All rights reserved.
_database_code_ICSD                171422
_audit_creation_date               2006/10/01
_chemical_name_systematic          'Potassium Tetracalcium Borate'
_chemical_formula_structural       'K Ca4 (B O3)3'
_chemical_formula_sum              'B3 Ca4 K1 O9'
_publ_section_title
;
Structure determination and relative properties of novel non-
centrosymmetric borates M M'4 (B O3)3 (M = Na, M' = Ca and M = K, M' 
= Ca, Sr)
;
loop_
_citation_id
_citation_journal_abbrev
_citation_year
_citation_journal_volume
_citation_journal_issue
_citation_page_first
_citation_page_last
_citation_journal_id_ASTM
primary 'Inorganic Chemistry' 2006 45 7 3042 3047 INOCAJ
_publ_author_name
;
Wu, L.;Chen, X.-L.;Xu, Y.-P.;Sun, Y.P.
;
_cell_length_a                     10.63455(10)
_cell_length_b                     11.51705(11)
_cell_length_c                     6.51942(6)
_cell_angle_alpha                  90.00
_cell_angle_beta                   90.00
_cell_angle_gamma                  90.00
_cell_volume                       798.49
_cell_formula_units_Z              4
_symmetry_space_group_name_H-M     'A m a 2'
_symmetry_Int_Tables_number        40
_refine_ls_R_factor_all            .0878
loop_
_symmetry_equiv_pos_site_id
_symmetry_equiv_pos_as_xyz
  1	'x+.5, -y, z'
  2	'-x+.5, y, z'
  3	'-x, -y, z'
  4	'x, y, z'
  5	'x+.5, -y+.5, z+.5'
  6	'-x+.5, y+.5, z+.5'
  7	'-x, -y+.5, z+.5'
  8	'x, y+.5, z+.5'
loop_
_atom_type_symbol
_atom_type_oxidation_number
B3+	3
Ca2+	2
K1+	1
O2-	-2
loop_
_atom_site_label
_atom_site_type_symbol
_atom_site_symmetry_multiplicity
_atom_site_Wyckoff_symbol
_atom_site_fract_x
_atom_site_fract_y
_atom_site_fract_z
_atom_site_occupancy
_atom_site_attached_hydrogens
_atom_site_U_iso_or_equiv
Ca1 Ca2+ 4 b .2500 .3476(3) .0578(8) 1 0 .0089(11) 
Ca2 Ca2+ 8 c -.0283(2) .2139(2) .9256(6) 1 0 .0134(7) 
Ca3 Ca2+ 4 a .0000 .0000 .2829 1 0 .0190(10) 
K1 K1+ 4 b .2500 .5803(3) .3144(9) 1 0 .0215(13) 
O1 O2- 4 b .2500 .3554(8) .4283(19) 1 0 .013(4) 
O2 O2- 4 b .2500 .5488(8) .8976(22) 1 0 .027(4) 
O3 O2- 8 c .1359(7) .6708(6) .6769(11) 1 0 .024(2) 
O4 O2- 8 c .0307(6) .4021(6) .1027(16) 1 0 .002(2) 
O5 O2- 8 c .8602(6) .1978(6) .2397(11) 1 0 .002(2) 
O6 O2- 4 a .0000 .5000 .417(2) 1 0 .003(3) 
B1 B3+ 4 b .2500 .619(3) .735(4) 1 0 .039(8) 
B2 B3+ 4 b .2500 .323(2) .625(3) 1 0 .004(5) 
B3 B3+ 4 a .0000 .5000 .209(4) 1 0 .024(8) 

#End of data_171422-ICSD


