data_241121-ICSD
#?2014 by Fachinformationszentrum Karlsruhe, and the U.S. Secretary of 
#Commerce on behalf of the United States.  All rights reserved.
_database_code_ICSD                241121
_audit_creation_date               2008/08/01
_chemical_name_systematic          'Dizinc Tellurate(IV) Dibromide'
_chemical_formula_structural       'Zn2 (Te O3) Br2'
_chemical_formula_sum              'Br2 O3 Te1 Zn2'
_publ_section_title                'Zn2 (Te O3) Br2'
loop_
_citation_id
_citation_journal_abbrev
_citation_year
_citation_journal_volume
_citation_journal_issue
_citation_page_first
_citation_page_last
_citation_journal_id_ASTM
primary 'Acta Crystallographica, Section E. Structure Reports Online'
 2008 64 5 i26 i26 ACSEBH
_publ_author_name                  'Zhang Dong;Johnsson, M.'
_cell_length_a                     10.5446(2)
_cell_length_b                     16.0928(2)
_cell_length_c                     7.72420(10)
_cell_angle_alpha                  90.00
_cell_angle_beta                   90.00
_cell_angle_gamma                  90.00
_cell_volume                       1310.74
_cell_formula_units_Z              8
_symmetry_space_group_name_H-M     'P c c n'
_symmetry_Int_Tables_number        56
_refine_ls_R_factor_all            .0219
loop_
_symmetry_equiv_pos_site_id
_symmetry_equiv_pos_as_xyz
  1	'x, -y+.5, z+.5'
  2	'-x+.5, y, z+.5'
  3	'x+.5, y+.5, -z'
  4	'-x, -y, -z'
  5	'-x, y+.5, -z+.5'
  6	'x+.5, -y, -z+.5'
  7	'-x+.5, -y+.5, z'
  8	'x, y, z'
loop_
_atom_type_symbol
_atom_type_oxidation_number
Br1-	-1
O2-	-2
Te4+	4
Zn2+	2
loop_
_atom_site_label
_atom_site_type_symbol
_atom_site_symmetry_multiplicity
_atom_site_Wyckoff_symbol
_atom_site_fract_x
_atom_site_fract_y
_atom_site_fract_z
_atom_site_occupancy
_atom_site_attached_hydrogens
_atom_site_U_iso_or_equiv
Te1 Te4+ 8 e 0.02983(3) 0.592957(18) 0.21187(3) 1 0 0.01207(12) 
Zn1 Zn2+ 8 e -0.00948(6) 0.39234(4) 0.34333(7) 1 0 0.01639(15) 
Zn2 Zn2+ 8 e 0.26526(5) 0.52410(4) 0.39968(7) 1 0 0.01671(16) 
Br1 Br1- 8 e 0.20748(5) 0.37261(3) 0.43887(7) 1 0 0.02286(16) 
Br2 Br1- 8 e -0.08838(7) 0.29014(3) 0.15586(7) 1 0 0.03163(18) 
O1 O2- 8 e 0.1882(3) 0.5524(2) 0.1440(4) 1 0 0.0160(7) 
O2 O2- 8 e -0.0568(3) 0.4903(2) 0.1969(4) 1 0 0.0155(7) 
O3 O2- 8 e 0.0906(3) 0.5786(2) 0.4378(4) 1 0 0.0158(7) 

loop_
_atom_site_aniso_label
_atom_site_aniso_type_symbol
_atom_site_aniso_U_11
_atom_site_aniso_U_22
_atom_site_aniso_U_33
_atom_site_aniso_U_12
_atom_site_aniso_U_13
_atom_site_aniso_U_23
Te1 Te4+ 0.0105(2) 0.01301(18) 0.01267(17) 0.00006(11) -0.00162(10) 
0.00168(10)
Zn1 Zn2+ 0.0188(3) 0.0174(3) 0.0130(3) 0.0018(2) 0.0002(2) -0.0011(2)
Zn2 Zn2+ 0.0110(3) 0.0260(3) 0.0132(3) 0.0033(2) -0.0005(2) -0.0016(2)
Br1 Br1- 0.0163(3) 0.0204(3) 0.0318(3) 0.0013(2) -0.00128(19) 0.00377(19)
Br2 Br1- 0.0530(4) 0.0191(3) 0.0227(3) -0.0070(3) -0.0101(2) -0.0017(2)
O1 O2- 0.0094(17) 0.0266(19) 0.0120(14) 0.0012(14) 0.0001(12) -0.0007(13)
O2 O2- 0.0125(18) 0.0165(16) 0.0174(15) -0.0034(14) -0.0037(13) 0.0013(13)
O3 O2- 0.0138(18) 0.0230(18) 0.0105(15) 0.0024(15) -0.0023(12) -0.0016(12)
#End of data_241121-ICSD


