data_98365-ICSD
#?2014 by Fachinformationszentrum Karlsruhe, and the U.S. Secretary of 
#Commerce on behalf of the United States.  All rights reserved.
_database_code_ICSD                98365
_audit_creation_date               2005/04/01
_chemical_name_systematic          'Aluminium Phosphate(V) - Zon'
_chemical_formula_structural       'Al (P O4)'
_chemical_formula_sum              'Al1 O4 P1'
_publ_section_title
;
Solid state NMR and X-ray diffraction study of three forms of the 
aluminophosphate Al P O4 - ZON
;
loop_
_citation_id
_citation_journal_abbrev
_citation_year
_citation_journal_volume
_citation_page_first
_citation_page_last
_citation_journal_id_ASTM
primary 'Microporous and Mesoporous Materials' 2003 63 163 176 MIMMFJ
_publ_author_name
;
Roux, M.;Marichal, C.;le Meins, J.M.;Baerlocher, C.;Chezeau, J.M.
;
_cell_length_a                     14.0343(2)
_cell_length_b                     15.1794(2)
_cell_length_c                     17.4024(2)
_cell_angle_alpha                  90
_cell_angle_beta                   90
_cell_angle_gamma                  90
_cell_volume                       3707.27
_cell_formula_units_Z              32
_symmetry_space_group_name_H-M     'P b c a'
_symmetry_Int_Tables_number        61
_refine_ls_R_factor_all            .0336
loop_
_symmetry_equiv_pos_site_id
_symmetry_equiv_pos_as_xyz
  1	'x+.5, y, -z+.5'
  2	'x, -y+.5, z+.5'
  3	'-x+.5, y+.5, z'
  4	'-x, -y, -z'
  5	'-x+.5, -y, z+.5'
  6	'-x, y+.5, -z+.5'
  7	'x+.5, -y+.5, -z'
  8	'x, y, z'
loop_
_atom_type_symbol
_atom_type_oxidation_number
Al3+	3
O2-	-2
P5+	5
loop_
_atom_site_label
_atom_site_type_symbol
_atom_site_symmetry_multiplicity
_atom_site_Wyckoff_symbol
_atom_site_fract_x
_atom_site_fract_y
_atom_site_fract_z
_atom_site_occupancy
_atom_site_attached_hydrogens
_atom_site_B_iso_or_equiv
Al1 Al3+ 8 c 0.0558(9) 0.4023(9) 0.0650(6) 1. 0 0.40(2) 
Al2 Al3+ 8 c 0.0565(9) 0.2265(9) 0.3388(6) 1. 0 0.40(2) 
Al3 Al3+ 8 c 0.4248(8) 0.1010(7) 0.4259(7) 1. 0 0.40(2) 
Al4 Al3+ 8 c 0.2143(9) 0.1590(9) 0.0389(5) 1. 0 0.40(2) 
P1 P5+ 8 c 0.0504(8) 0.4025(8) 0.4289(5) 1. 0 0.40(2) 
P2 P5+ 8 c 0.0615(9) 0.2266(8) 0.1561(5) 1. 0 0.40(2) 
P3 P5+ 8 c 0.4203(7) 0.0994(6) 0.0744(6) 1. 0 0.40(2) 
P4 P5+ 8 c 0.2142(8) 0.1616(7) 0.4544(5) 1. 0 0.40(2) 
O1 O2- 8 c 0.046(1) 0.496(1) 0.399(1) 1. 0 1.67(6) 
O2 O2- 8 c 0.469(1) 0.391(1) 0.017(1) 1. 0 1.67(6) 
O3 O2- 8 c 0.147(1) 0.399(1) 0.4718(9) 1. 0 1.67(6) 
O4 O2- 8 c 0.052(1) 0.333(1) 0.364(1) 1. 0 1.67(6) 
O5 O2- 8 c 0.148(1) 0.184(1) 0.1209(9) 1. 0 1.67(6) 
O6 O2- 8 c 0.0735(7) 0.2183(6) 0.241(1) 1. 0 1.67(6) 
O7 O2- 8 c 0.471(1) 0.176(1) 0.367(1) 1. 0 1.67(6) 
O8 O2- 8 c 0.045(1) 0.327(1) 0.137(1) 1. 0 1.67(6) 
O9 O2- 8 c 0.451(1) 0.0076(8) 0.106(1) 1. 0 1.67(6) 
O10 O2- 8 c 0.459(1) 0.380(1) 0.4965(9) 1. 0 1.67(6) 
O11 O2- 8 c 0.452(1) 0.171(1) 0.134(1) 1. 0 1.67(6) 
O12 O2- 8 c 0.312(1) 0.102(1) 0.068(1) 1. 0 1.67(6) 
O13 O2- 8 c 0.152(1) 0.187(1) 0.3891(8) 1. 0 1.67(6) 
O14 O2- 8 c 0.158(1) 0.390(1) 0.0127(9) 1. 0 1.67(6) 
O15 O2- 8 c 0.2498(7) 0.241(1) 0.496(1) 1. 0 1.67(6) 
O16 O2- 8 c 0.301(1) 0.109(1) 0.427(1) 1. 0 1.67(6) 

#End of data_98365-ICSD


