data_411335-ICSD
#?2014 by Fachinformationszentrum Karlsruhe, and the U.S. Secretary of 
#Commerce on behalf of the United States.  All rights reserved.
_database_code_ICSD                411335
_audit_creation_date               2002/04/01
_audit_update_record               2014/08/01
_chemical_name_systematic
;
Ammonium Hexaaquazinc Hexafluoroaluminate
;
_chemical_formula_structural       '(N H4) (Zn (H2 O)6) (Al F6)'
_chemical_formula_sum              'H16 Al1 F6 N1 O6 Zn1'
_publ_section_title
;
Synthese, Kristallstruktur and thermischer Abbau von Fluoroaluminaten 
der Zusammensetzung (N H4) (M (H2 O)6) (Al F6) (M= Zn, Ni), (Zn (H2 
O)6) (Al F5 (H2 O)) und (Py H)4 (Al2 F10) x 4(H2 O)
;
loop_
_citation_id
_citation_journal_abbrev
_citation_year
_citation_journal_volume
_citation_page_first
_citation_page_last
_citation_journal_id_ASTM
primary 'Zeitschrift fuer Anorganische und Allgemeine Chemie (1950) (DE)'
 2000 626 2543 2548 ZAACAB
_publ_author_name
;
Adamczyk, B.;Troyanov, S.I.;Schneider, M.;Kemnitz, E.
;
_cell_length_a                     12.688(2)
_cell_length_b                     6.554(1)
_cell_length_c                     12.697(2)
_cell_angle_alpha                  90.
_cell_angle_beta                   95.21(2)
_cell_angle_gamma                  90.
_cell_volume                       1051.48
_cell_formula_units_Z              4
_symmetry_space_group_name_H-M     'P 1 21/c 1'
_symmetry_Int_Tables_number        14
_refine_ls_R_factor_all            .0264
loop_
_symmetry_equiv_pos_site_id
_symmetry_equiv_pos_as_xyz
  1	'x, -y+.5, z+.5'
  2	'-x, -y, -z'
  3	'-x, y+.5, -z+.5'
  4	'x, y, z'
loop_
_atom_type_symbol
_atom_type_oxidation_number
Al3+	3
F1-	-1
H1+	1
N3-	-3
O2-	-2
Zn2+	2
loop_
_atom_site_label
_atom_site_type_symbol
_atom_site_symmetry_multiplicity
_atom_site_Wyckoff_symbol
_atom_site_fract_x
_atom_site_fract_y
_atom_site_fract_z
_atom_site_occupancy
_atom_site_attached_hydrogens
_atom_site_U_iso_or_equiv
Zn1 Zn2+ 4 e 0.770660(14) 0.02979(3) 0.807110(13) 1. 0 0 
Al1 Al3+ 2 d 0.5 0 0.5 1. 0 0 
Al2 Al3+ 2 c 1 0.5 1 1. 0 0 
F1 F1- 4 e 0.63944(7) 0.0574(2) 0.51372(8) 1. 0 0 
F2 F1- 4 e 0.52853(8) -.24468(15) 0.44422(8) 1. 0 0 
F3 F1- 4 e 0.48876(7) 0.11498(15) 0.36821(7) 1. 0 0 
F4 F1- 4 e 0.88277(8) 0.54050(15) 0.91164(8) 1. 0 0 
F5 F1- 4 e 0.95727(8) 0.69195(15) 1.08862(7) 1. 0 0 
F6 F1- 4 e 1.06841(7) 0.69764(15) 0.93117(7) 1. 0 0 
O1 O2- 4 e 0.92966(10) -.0211(2) 0.84731(11) 1. 0 0 
O2 O2- 4 e 0.77472(10) -.1048(2) 0.66066(9) 1. 0 0 
O3 O2- 4 e 0.71215(11) -.2504(2) 0.85305(10) 1. 0 0 
O4 O2- 4 e 0.76191(10) 0.1524(2) 0.95817(9) 1. 0 0 
O5 O2- 4 e 0.61555(10) 0.1339(2) 0.76932(11) 1. 0 0 
O6 O2- 4 e 0.82443(9) 0.3133(2) 0.74232(10) 1. 0 0 
N1 N3- 4 e 0.36226(14) 0.4828(3) 0.37706(15) 1. 0 0 
H1 H1+ 4 e 0.968(2) 0.0817(39) 0.8698(19) 1. 0 0.028(6) 
H2 H1+ 4 e 0.9551(19) -.1056(39) 0.8752(19) 1. 0 0.024(6) 
H3 H1+ 4 e 0.8346(21) -.1241(38) 0.6401(17) 1. 0 0.029(6) 
H4 H1+ 4 e 0.7311(23) -.0532(40) 0.6081(23) 1. 0 0.039(7) 
H5 H1+ 4 e 0.6619(22) -.2552(42) 0.8874(19) 1. 0 0.038(7) 
H6 H1+ 4 e 0.7549(22) -.3134(44) 0.8843(20) 1. 0 0.036(7) 
H7 H1+ 4 e 0.7186(18) 0.2469(39) 0.9648(16) 1. 0 0.027(6) 
H8 H1+ 4 e 0.8156(20) 0.1908(38) 0.9867(18) 1. 0 0.025(6) 
H9 H1+ 4 e 0.5752(24) 0.0720(49) 0.7253(24) 1. 0 0.046(8) 
H10 H1+ 4 e 0.5792(20) 0.1959(43) 0.8019(18) 1. 0 0.030(6) 
H11 H1+ 4 e 0.8473(18) 0.3895(41) 0.7848(19) 1. 0 0.023(6) 
H12 H1+ 4 e 0.8674(21) 0.2880(41) 0.7012(19) 1. 0 0.036(7) 
H13 H1+ 4 e 0.3199(24) 0.5027(38) 0.4295(24) 1. 0 0.037(7) 
H14 H1+ 4 e 0.3868(27) 0.3564(65) 0.3781(26) 1. 0 0.076(11) 
H15 H1+ 4 e 0.4138(26) 0.5660(47) 0.3863(24) 1. 0 0.050(8) 
H16 H1+ 4 e 0.3140(46) 0.5244(69) 0.3251(43) 1. 0 0.112(18) 

loop_
_atom_site_aniso_label
_atom_site_aniso_type_symbol
_atom_site_aniso_U_11
_atom_site_aniso_U_22
_atom_site_aniso_U_33
_atom_site_aniso_U_12
_atom_site_aniso_U_13
_atom_site_aniso_U_23
Zn1 Zn2+ 0.0115(2) 0.0097(2) 0.0173(2) 0.00052(6) 0.00065(9) -.00029(6)
Al1 Al3+ 0.0086(3) 0.0088(3) 0.0149(4) -.0011(2) 0.0003(3) 0.0011(2)
Al2 Al3+ 0.0093(3) 0.0086(3) 0.0161(4) 0.0006(2) 0.0001(3) 0.0006(2)
F1 F1- 0.0098(5) 0.0194(5) 0.0249(5) -.0038(4) -.0001(4) 0.0033(4)
F2 F1- 0.0180(5) 0.0120(5) 0.0292(5) -.0012(4) 0.0044(4) -.0040(4)
F3 F1- 0.0181(5) 0.0175(5) 0.0180(4) -.0048(4) -.0013(3) 0.0048(4)
F4 F1- 0.0148(5) 0.0172(5) 0.0252(6) 0.0020(4) -.0057(4) 0.0017(4)
F5 F1- 0.0172(5) 0.0129(5) 0.0253(5) -.0016(4) 0.0056(4) -.0043(4)
F6 F1- 0.0156(5) 0.0123(5) 0.0206(5) -.0008(4) 0.0015(3) 0.0030(4)
O1 O2- 0.0130(6) 0.0110(6) 0.0300(8) 0.0016(5) -.0040(5) 0.0037(5)
O2 O2- 0.0125(6) 0.0170(6) 0.0179(6) 0.0011(5) 0.0016(4) -.0008(5)
O3 O2- 0.0162(6) 0.0156(6) 0.0319(7) 0.0025(5) 0.0071(6) 0.0081(5)
O4 O2- 0.0131(6) 0.0180(6) 0.0212(6) 0.0015(5) -.0003(5) -.0042(5)
O5 O2- 0.0135(6) 0.0205(7) 0.0268(6) 0.0063(5) -.0028(5) -.0096(5)
O6 O2- 0.0169(6) 0.0134(6) 0.0189(6) -.0013(5) 0.0014(5) -.0016(5)
N1 N3- 0.0177(8) 0.0149(8) 0.0308(9) -.0006(6) -.0003(7) 0.0010(6)
#End of data_411335-ICSD


