data_90381-ICSD
#?2014 by Fachinformationszentrum Karlsruhe, and the U.S. Secretary of 
#Commerce on behalf of the United States.  All rights reserved.
_database_code_ICSD                90381
_audit_creation_date               2002/04/01
_audit_update_record               2005/10/01
_chemical_name_systematic          'Potassium Yttrium Ditungstate'
_chemical_formula_structural       'K Y (W2 O8)'
_chemical_formula_sum              'K1 O8 W2 Y1'
_publ_section_title
;
A neutron diffraction study of nonstoichiometric alpha-(K Y W2 O8)
;
loop_
_citation_id
_citation_journal_abbrev
_citation_year
_citation_journal_volume
_citation_page_first
_citation_page_last
_citation_journal_id_ASTM
primary 'Journal of Alloys and Compounds' 2000 306 227 234 JALCEU
2 'Golden Book of Phase Transitions, Wroclaw' 2002 1 1 123 GBOPT5
_publ_author_name
;
Gallucci, E.;Goutaudier, C.;Cohen-Addad, M.T.;Mentzen, U.0.F.;Hansen, 
T.
;
_cell_length_a                     10.6271(2)
_cell_length_b                     10.3398(4)
_cell_length_c                     7.5515(1)
_cell_angle_alpha                  90.
_cell_angle_beta                   130.746(1)
_cell_angle_gamma                  90.
_cell_volume                       628.65
_cell_formula_units_Z              4
_symmetry_space_group_name_H-M     'C 1 2/c 1'
_symmetry_Int_Tables_number        15
_refine_ls_R_factor_all            .042
loop_
_symmetry_equiv_pos_site_id
_symmetry_equiv_pos_as_xyz
  1	'x, -y, z+.5'
  2	'-x, -y, -z'
  3	'-x, y, -z+.5'
  4	'x, y, z'
  5	'x+.5, -y+.5, z+.5'
  6	'-x+.5, -y+.5, -z'
  7	'-x+.5, y+.5, -z+.5'
  8	'x+.5, y+.5, z'
loop_
_atom_type_symbol
_atom_type_oxidation_number
K1+	1
O2-	-2
W6+	6
Y3+	3
loop_
_atom_site_label
_atom_site_type_symbol
_atom_site_symmetry_multiplicity
_atom_site_Wyckoff_symbol
_atom_site_fract_x
_atom_site_fract_y
_atom_site_fract_z
_atom_site_occupancy
_atom_site_attached_hydrogens
W1 W6+ 8 f 0.1963(2) 0.0002(2) 0.2369(3) 1. 0 
Y1 Y3+ 4 e 0 0.2720(2) 0.75 1. 0 
K1 K1+ 4 e 0 0.7018(4) 0.75 1. 0 
O1 O2- 8 f 0.1247(2) 0.5794(2) 0.1863(4) 1. 0 
O2 O2- 8 f 0.0233(2) 0.1083(1) 0.9709(4) 1. 0 
O3 O2- 8 f 0.2259(2) 0.3422(1) 0.1269(4) 1. 0 
O4 O2- 8 f 0.1900(1) 0.9241(1) 0.9416(3) 1. 0 

loop_
_atom_site_aniso_label
_atom_site_aniso_type_symbol
_atom_site_aniso_U_11
_atom_site_aniso_U_22
_atom_site_aniso_U_33
_atom_site_aniso_U_12
_atom_site_aniso_U_13
_atom_site_aniso_U_23
W1 W6+ 0.00161 0.00878 0.00828 -.00185 0.00033 -.00398
Y1 Y3+ 0.00659 0.00655 0.0063 0 0.00305 0
K1 K1+ 0.02166 0.00918 0.01051 0 0.01063 0
O1 O2- 0.01142 0.01248 0.00998 0.00211 0.00657 -.00024
O2 O2- 0.0052 0.00701 0.01264 0.00183 0.00642 0.00136
O3 O2- 0.00731 0.01164 0.01055 -.00383 0.00497 -.00297
O4 O2- 0.01439 0.0101 0.00474 0.00011 0.00586 -.00101
#End of data_90381-ICSD


