data_166749-ICSD
#?2014 by Fachinformationszentrum Karlsruhe, and the U.S. Secretary of 
#Commerce on behalf of the United States.  All rights reserved.
_database_code_ICSD                166749
_audit_creation_date               2010/08/01
_chemical_name_systematic          'Trisodium Hexachloroscandate'
_chemical_formula_structural       'Na3 (Sc Cl6)'
_chemical_formula_sum              'Cl6 Na3 Sc1'
_publ_section_title
;
Na Sc (B H4)4: a novel scandium-based borohydride
;
loop_
_citation_id
_citation_journal_abbrev
_citation_year
_citation_journal_volume
_citation_page_first
_citation_page_last
_citation_journal_id_ASTM
primary 'Journal of Physical Chemistry C' 2010 114 1357 1364 JPCCCK
_publ_author_name
;
Cerny, R.;Severa, G.;Ravnsbaek, D.B.;Filinchuk, Ya.;D'Anna, 
V.;Hagemann, H.;Haase, D.;Jensen, C.M.;Jensen, T.R.
;
_cell_length_a                     6.7375(3)
_cell_length_b                     7.1567(3)
_cell_length_c                     9.9316(5)
_cell_angle_alpha                  90.
_cell_angle_beta                   90.491(3)
_cell_angle_gamma                  90.
_cell_volume                       478.87
_cell_formula_units_Z              2
_symmetry_space_group_name_H-M     'P 1 21/n 1'
_symmetry_Int_Tables_number        14
loop_
_symmetry_equiv_pos_site_id
_symmetry_equiv_pos_as_xyz
  1	'-x+.5, y+.5, -z+.5'
  2	'-x, -y, -z'
  3	'x+.5, -y+.5, z+.5'
  4	'x, y, z'
loop_
_atom_type_symbol
_atom_type_oxidation_number
Cl1-	-1
Na1+	1
Sc3+	3
loop_
_atom_site_label
_atom_site_type_symbol
_atom_site_symmetry_multiplicity
_atom_site_Wyckoff_symbol
_atom_site_fract_x
_atom_site_fract_y
_atom_site_fract_z
_atom_site_occupancy
_atom_site_attached_hydrogens
_atom_site_B_iso_or_equiv
Na1 Na1+ 4 e 0.9747(5) 0.4226(4) 0.2582(5) 1. 0 1.93(9) 
Na2 Na1+ 2 b 0.5 0.5 0 1. 0 1.93(9) 
Sc1 Sc3+ 2 a 0 0 0 1. 0 1.93(9) 
Cl1 Cl1- 4 e 0.1299(3) 0.0537(3) 0.2333(3) 1. 0 2.24(8) 
Cl2 Cl1- 4 e 0.1659(4) 0.2942(4) 0.9264(3) 1. 0 2.24(8) 
Cl3 Cl1- 4 e 0.6994(4) 0.1747(4) 0.0596(3) 1. 0 2.24(8) 

#End of data_166749-ICSD


