data_86242-ICSD
#?2014 by Fachinformationszentrum Karlsruhe, and the U.S. Secretary of 
#Commerce on behalf of the United States.  All rights reserved.
_database_code_ICSD                86242
_audit_creation_date               1999/11/30
_chemical_name_systematic          'Tetracalcium Trititanate'
_chemical_formula_structural       'Ca4 (Ti3 O10)'
_chemical_formula_sum              'Ca4 O10 Ti3'
_publ_section_title
;
Defect structure and chemistry of (Cax Sr1-x)n+1 Tin O3n+1 layer 
perovskites
;
loop_
_citation_id
_citation_journal_abbrev
_citation_year
_citation_journal_volume
_citation_page_first
_citation_page_last
_citation_journal_id_ASTM
primary
;
Philosophical Transactions of the Royal Society of London, Series A: 
Mathematical and Physical Sciences
;
 1991 336 541 569 PTRMAD
_publ_author_name                  'Hawkins, K.D.;White, T.J.'
_cell_length_a                     5.4083(1)
_cell_length_b                     27.14319(40)
_cell_length_c                     5.4337(1)
_cell_angle_alpha                  90.
_cell_angle_beta                   90.
_cell_angle_gamma                  90.
_cell_volume                       797.66
_cell_formula_units_Z              4
_symmetry_space_group_name_H-M     'P c a b'
_symmetry_Int_Tables_number        61
_refine_ls_R_factor_all            .015
loop_
_symmetry_equiv_pos_site_id
_symmetry_equiv_pos_as_xyz
  1	'x+.5, -y+.5, z'
  2	'x, y+.5, -z+.5'
  3	'-x+.5, y, z+.5'
  4	'-x, -y, -z'
  5	'-x+.5, y+.5, -z'
  6	'-x, -y+.5, z+.5'
  7	'x+.5, -y, -z+.5'
  8	'x, y, z'
loop_
_atom_type_symbol
_atom_type_oxidation_number
Ca2+	2
O2-	-2
Ti4+	4
loop_
_atom_site_label
_atom_site_type_symbol
_atom_site_symmetry_multiplicity
_atom_site_Wyckoff_symbol
_atom_site_fract_x
_atom_site_fract_y
_atom_site_fract_z
_atom_site_occupancy
_atom_site_attached_hydrogens
Ca1 Ca2+ 8 c 0.5038(8) 0.0693(3) 0.4665(9) 1. 0 
Ca2 Ca2+ 8 c 0.9921(5) 0.2053(2) 0.0238(12) 1. 0 
Ti1 Ti4+ 4 b 0 0 0.5 1. 0 
Ti2 Ti4+ 8 c 0.4973(13) 0.1426(2) 0 1. 0 
O1 O2- 8 c 0.4332(5) 0.0708(2) 0.0142(3) 1. 0 
O2 O2- 8 c 0.5548(8) 0.2118(2) 0.9858(3) 1. 0 
O3 O2- 8 c 0.7125(8) 0.1321(1) 0.7115(2) 1. 0 
O4 O2- 8 c 0.2875(7) 0.1499(1) 0.2885(2) 1. 0 
O5 O2- 8 c 0.2099(7) 0.9900(2) 0.7885(2) 1. 0 

#End of data_86242-ICSD


