data_68696-ICSD
#?2014 by Fachinformationszentrum Karlsruhe, and the U.S. Secretary of 
#Commerce on behalf of the United States.  All rights reserved.
_database_code_ICSD                68696
_audit_creation_date               1992/01/20
_audit_update_record               2006/04/01
_chemical_name_systematic          'Potassium Dihydrogenphosphate(V)'
_chemical_formula_structural       'K (H2 P O4)'
_chemical_formula_sum              'H2 K1 O4 P1'
_publ_section_title
;
Refinement of the crystal structure of K H2 P O4 in the ferroelectric 
phase
;
loop_
_citation_id
_citation_journal_abbrev
_citation_year
_citation_journal_volume
_citation_page_first
_citation_page_last
_citation_journal_id_ASTM
primary 'Physica Status Solidi A - Applications and Materials'
 1990 117 93 96 PSSABA
2 'Golden Book of Phase Transitions, Wroclaw' 2002 1 1 123 GBOPT5
_publ_author_name                  'Fukami, T.'
_cell_length_a                     10.467(1)
_cell_length_b                     10.467(1)
_cell_length_c                     6.926(1)
_cell_angle_alpha                  90.
_cell_angle_beta                   90.
_cell_angle_gamma                  90.
_cell_volume                       758.8
_cell_formula_units_Z              8
_symmetry_space_group_name_H-M     'F d d 2'
_symmetry_Int_Tables_number        43
_refine_ls_R_factor_all            .045
loop_
_symmetry_equiv_pos_site_id
_symmetry_equiv_pos_as_xyz
  1	'x+.25, -y+.25, z+.25'
  2	'-x+.25, y+.25, z+.25'
  3	'-x, -y, z'
  4	'x, y, z'
  5	'x+.25, -y+.75, z+.75'
  6	'x+.75, -y+.25, z+.75'
  7	'x+.75, -y+.75, z+.25'
  8	'-x+.25, y+.75, z+.75'
  9	'-x+.75, y+.25, z+.75'
 10	'-x+.75, y+.75, z+.25'
 11	'-x, -y+.5, z+.5'
 12	'-x+.5, -y, z+.5'
 13	'-x+.5, -y+.5, z'
 14	'x, y+.5, z+.5'
 15	'x+.5, y, z+.5'
 16	'x+.5, y+.5, z'
loop_
_atom_type_symbol
_atom_type_oxidation_number
H1+	1
K1+	1
O2-	-2
P5+	5
loop_
_atom_site_label
_atom_site_type_symbol
_atom_site_symmetry_multiplicity
_atom_site_Wyckoff_symbol
_atom_site_fract_x
_atom_site_fract_y
_atom_site_fract_z
_atom_site_occupancy
_atom_site_attached_hydrogens
K1 K1+ 8 a 0.25 0.25 0.4992(1) 1. 0 
P1 P5+ 8 a 0.25 0.25 0.0125(1) 1. 0 
O1 O2- 16 b 0.2841(1) 0.3660(1) 0.1329(2) 1. 0 
O2 O2- 16 b 0.3655(1) 0.2160(1) -.1212(2) 1. 0 
H1 H1+ 16 b 0.177(6) 0.483(4) 0.129(10) 1. 0 

loop_
_atom_site_aniso_label
_atom_site_aniso_type_symbol
_atom_site_aniso_U_11
_atom_site_aniso_U_22
_atom_site_aniso_U_33
_atom_site_aniso_U_12
_atom_site_aniso_U_13
_atom_site_aniso_U_23
K1 K1+ 0.0085(1) 0.0081(1) 0.0040(1) 0.0002(1) 0 0
P1 P5+ 0.0056(2) 0.0047(2) 0.0118(2) -0.0001(2) 0 0
O1 O2- 0.0070(3) 0.0068(4) 0.0103(4) -0.0002(3) -0.0010(4) -0.0023(4)
O2 O2- 0.0073(4) 0.0065(3) 0.0109(4) -0.0006(3) 0.0030(4) 0.0000(4)
#End of data_68696-ICSD


