data_71872-ICSD
#?2014 by Fachinformationszentrum Karlsruhe, and the U.S. Secretary of 
#Commerce on behalf of the United States.  All rights reserved.
_database_code_ICSD                71872
_audit_creation_date               1993/08/22
_audit_update_record               2003/04/01
_chemical_name_systematic
;
Tripotassium Hydrogen Bis(selenate(VI))
;
_chemical_formula_structural       'K3 H (Se O4)2'
_chemical_formula_sum              'H1 K3 O8 Se2'
_publ_section_title
;
Structure of ferroelastic K3 H (Se O4)2
;
loop_
_citation_id
_citation_journal_abbrev
_citation_year
_citation_journal_volume
_citation_page_first
_citation_page_last
_citation_journal_id_ASTM
primary 'Acta Crystallographica, Section C: Crystal Structure Communications'
 1992 48 1569 1571 ACSCEE
2 'Phase Transition' 1992 38 127 220 PHTRDP
_publ_author_name
;
Ichikawa, M.;Sato, S.;Komukae, M.;Osaka, T.
;
_cell_length_a                     10.1291(8)
_cell_length_b                     5.9038(5)
_cell_length_c                     14.961(1)
_cell_angle_alpha                  90.
_cell_angle_beta                   103.640(8)
_cell_angle_gamma                  90.
_cell_volume                       869.44
_cell_formula_units_Z              4
_symmetry_space_group_name_H-M     'A 1 2/a 1'
_symmetry_Int_Tables_number        15
_refine_ls_R_factor_all            .029
loop_
_symmetry_equiv_pos_site_id
_symmetry_equiv_pos_as_xyz
  1	'-x+.5, y, -z'
  2	'-x, -y, -z'
  3	'x+.5, -y, z'
  4	'x, y, z'
  5	'-x+.5, y+.5, -z+.5'
  6	'-x, -y+.5, -z+.5'
  7	'x+.5, -y+.5, z+.5'
  8	'x, y+.5, z+.5'
loop_
_atom_type_symbol
_atom_type_oxidation_number
H1+	1
K1+	1
O2-	-2
Se6+	6
loop_
_atom_site_label
_atom_site_type_symbol
_atom_site_symmetry_multiplicity
_atom_site_Wyckoff_symbol
_atom_site_fract_x
_atom_site_fract_y
_atom_site_fract_z
_atom_site_occupancy
_atom_site_attached_hydrogens
_atom_site_U_iso_or_equiv
K1 K1+ 4 e 0.25 0.75538(18) 0 1. 0 0 
K2 K1+ 8 f 0.65190(7) 0.73701(13) 0.19654(5) 1. 0 0 
Se1 Se6+ 8 f 0.46014(3) 0.23210(5) 0.11609(2) 1. 0 0 
O1 O2- 8 f 0.39881(25) 0.01293(38) 0.15747(16) 1. 0 0 
O2 O2- 8 f 0.43475(24) 0.18139(41) 0.00184(14) 1. 0 0 
O3 O2- 8 f 0.62361(19) 0.24982(46) 0.15443(15) 1. 0 0 
O4 O2- 8 f 0.38256(26) 0.46412(40) 0.12910(17) 1. 0 0 
H1 H1+ 4 a 0.5 0 0 1. 0 0.124(33) 

loop_
_atom_site_aniso_label
_atom_site_aniso_type_symbol
_atom_site_aniso_U_11
_atom_site_aniso_U_22
_atom_site_aniso_U_33
_atom_site_aniso_U_12
_atom_site_aniso_U_13
_atom_site_aniso_U_23
K1 K1+ 0.02306(37) 0.02889(46) 0.01898(36) 0 0.00296(30) 0
K2 K1+ 0.02436(28) 0.02856(33) 0.03010(32) 0.00087(29) 0.00399(25) 
0.00635(30)
Se1 Se6+ 0.01591(12) 0.01774(13) 0.01534(12) 0.00081(12) 0.00326(9) 
0.00041(12)
O1 O2- 0.0386(14) 0.0238(11) 0.0269(12) -0.008(1) 0.0128(11) 0.0024(9)
O2 O2- 0.0374(13) 0.0405(14) 0.0137(10) 0.0032(11) 0.0055(9) -0.0002(9)
O3 O2- 0.0141(8) 0.0482(15) 0.0264(10) -0.0008(11) 0.0011(8) -0.0072(12)
O4 O2- 0.0364(14) 0.0240(11) 0.0310(13) 0.0132(10) 0.0085(11) 0.0028(10)
#End of data_71872-ICSD


