data_26408-ICSD
#?2014 by Fachinformationszentrum Karlsruhe, and the U.S. Secretary of 
#Commerce on behalf of the United States.  All rights reserved.
_database_code_ICSD                26408
_audit_creation_date               1981/12/31
_chemical_name_systematic          'Potassium Chlorate'
_chemical_formula_structural       'K Cl O3'
_chemical_formula_sum              'Cl1 K1 O3'
_publ_section_title
;
The Structure of Potassium Chlorate at 77 and 298 K
;
loop_
_citation_id
_citation_journal_abbrev
_citation_year
_citation_journal_volume
_citation_page_first
_citation_page_last
_citation_journal_id_ASTM
primary 'Acta Crystallographica B (24,1968-38,1982)' 1981 37 913 915 ACBCAR
_publ_author_name
;
Danielsen, J.;Hazell, A.;Larsen, F.K.
;
_cell_length_a                     4.630(2)
_cell_length_b                     5.568(3)
_cell_length_c                     7.047(3)
_cell_angle_alpha                  90.
_cell_angle_beta                   110.21
_cell_angle_gamma                  90.
_cell_volume                       170.49
_cell_formula_units_Z              2
_symmetry_space_group_name_H-M     'P 1 21/m 1'
_symmetry_Int_Tables_number        11
_refine_ls_R_factor_all            .03
loop_
_symmetry_equiv_pos_site_id
_symmetry_equiv_pos_as_xyz
  1	'x, -y+.5, z'
  2	'-x, -y, -z'
  3	'-x, y+.5, -z'
  4	'x, y, z'
loop_
_atom_type_symbol
_atom_type_oxidation_number
Cl5+	5
K1+	1
O2-	-2
loop_
_atom_site_label
_atom_site_type_symbol
_atom_site_symmetry_multiplicity
_atom_site_Wyckoff_symbol
_atom_site_fract_x
_atom_site_fract_y
_atom_site_fract_z
_atom_site_occupancy
_atom_site_attached_hydrogens
K1 K1+ 2 e 0.3555(2) 0.25 0.7086(1) 1. 0 
Cl1 Cl5+ 2 e 0.1210(2) 0.25 0.1745(1) 1. 0 
O1 O2- 2 e 0.4009(6) 0.25 0.1165(4) 1. 0 
O2 O2- 4 f 0.1456(4) 0.4639(3) 0.3057(3) 1. 0 

loop_
_atom_site_aniso_label
_atom_site_aniso_type_symbol
_atom_site_aniso_U_11
_atom_site_aniso_U_22
_atom_site_aniso_U_33
_atom_site_aniso_U_12
_atom_site_aniso_U_13
_atom_site_aniso_U_23
K1 K1+ 0.0161(4) 0.0124(4) 0.0176(4) 0 0.0097(3) 0
Cl1 Cl5+ 0.0141(4) 0.0113(4) 0.0157(4) 0 0.0064(3) 0
O1 O2- 0.0231(13) 0.0305(14) 0.0254(13) 0 0.0168(11) 0
O2 O2- 0.0248(9) 0.0111(7) 0.0299(9) 0.0005(6) 0.0135(7) -.0052(7)
#End of data_26408-ICSD


