data_423118-ICSD
#?2014 by Fachinformationszentrum Karlsruhe, and the U.S. Secretary of 
#Commerce on behalf of the United States.  All rights reserved.
_database_code_ICSD                423118
_audit_creation_date               2012/02/01
_chemical_name_systematic
;
Dicalcium(II) Tetra-mu-imidocyclotetraphosphate Octahydrate
;
_chemical_formula_structural       'Ca2 (P O2 N H)4 (H2 O)8'
_chemical_formula_sum              'H20 Ca2 N4 O16 P4'
_publ_section_title
;
Synthesis and characterization of Ca2 (P O2 N H)4 * 8 H2 O
;
loop_
_citation_id
_citation_journal_abbrev
_citation_year
_citation_journal_volume
_citation_journal_issue
_citation_page_first
_citation_page_last
_citation_journal_id_ASTM
primary 'Zeitschrift fuer Anorganische und Allgemeine Chemie (1950) (DE)'
 2011 637 14-15 2228 2232 ZAACAB
_publ_author_name
;
Sedlmaier, S.J.;Roemer, S.R.;Schnick, W.
;
_cell_length_a                     17.006(3)
_cell_length_b                     10.693(2)
_cell_length_c                     9.6320(19)
_cell_angle_alpha                  90.00
_cell_angle_beta                   90.00
_cell_angle_gamma                  90.00
_cell_volume                       1751.53
_cell_formula_units_Z              4
_symmetry_space_group_name_H-M     'P b c n'
_symmetry_Int_Tables_number        60
_refine_ls_R_factor_all            .0435
loop_
_symmetry_equiv_pos_site_id
_symmetry_equiv_pos_as_xyz
  1	'x, -y, z+.5'
  2	'-x+.5, y+.5, z'
  3	'x+.5, y+.5, -z+.5'
  4	'-x, -y, -z'
  5	'-x, y, -z+.5'
  6	'x+.5, -y+.5, -z'
  7	'-x+.5, -y+.5, z+.5'
  8	'x, y, z'
loop_
_atom_type_symbol
_atom_type_oxidation_number
Ca2+	2
H1+	1
N3-	-3
O2-	-2
P5+	5
loop_
_atom_site_label
_atom_site_type_symbol
_atom_site_symmetry_multiplicity
_atom_site_Wyckoff_symbol
_atom_site_fract_x
_atom_site_fract_y
_atom_site_fract_z
_atom_site_occupancy
_atom_site_attached_hydrogens
_atom_site_U_iso_or_equiv
Ca1 Ca2+ 8 d 0.34903(4) 0.27687(7) 0.00108(7) 1 0 0.02235(19) 
P1 P5+ 8 d 0.38273(5) 0.55763(8) 0.19254(9) 1 0 0.0191(2) 
P2 P5+ 4 c 0.5000 0.36021(11) 0.2500 1 0 0.0179(3) 
P3 P5+ 4 c 0.5000 0.24350(10) -0.2500 1 0 0.0198(3) 
N1 N3- 8 d 0.4488(1) 0.66379(10) 0.1453(1) 1 0 0.0215(6) 
H1 H1+ 8 d 0.4610 0.6611 0.0616 1 0 0.026 
N2 N3- 8 d 0.4259(1) 0.45209(10) 0.2937(1) 1 0 0.0202(6) 
H2 H1+ 8 d 0.4129 0.4585 0.3759 1 0 0.024 
O1 O2- 8 d 0.32294(14) 0.6193(2) 0.2846(2) 1 0 0.0240(5) 
O2 O2- 8 d 0.44461(15) 0.1759(2) -0.1555(3) 1 0 0.0243(5) 
O3 O2- 8 d 0.47740(14) 0.2894(2) 0.1211(2) 1 0 0.0228(5) 
O4 O2- 8 d 0.35579(8) 0.49610(13) 0.06074(14) 1 0 0.0242(5) 
O5 O2- 8 d 0.26724(8) 0.11850(13) -0.09998(14) 1 0 0.0542(9) 
H3 H1+ 8 d 0.2279 0.0675 -0.0632 1 0 0.065 
H4 H1+ 8 d 0.2753 0.1133 -0.1961 1 0 0.065 
O6 O2- 8 d 0.58022(8) 0.07710(13) 0.09215(14) 1 0 0.0464(8) 
H5 H1+ 8 d 0.5596 -0.0039 0.1096 1 0 0.056 
H6 H1+ 8 d 0.5369 0.1316 0.0915 1 0 0.056 
O7 O2- 8 d 0.21388(8) 0.34420(13) 0.08441(14) 1 0 0.0550(9) 
H7 H1+ 8 d 0.1729 0.3992 0.0603 1 0 0.066 
H8 H1+ 8 d 0.1801 0.2806 0.1171 1 0 0.066 
O8 O2- 8 d 0.32686(8) 0.15024(13) 0.19528(14) 1 0 0.0631(12) 
H9 H1+ 8 d 0.3624 0.1311 0.2673 1 0 0.076 
H10 H1+ 8 d 0.2776 0.1414 0.2398 1 0 0.076 

loop_
_atom_site_aniso_label
_atom_site_aniso_type_symbol
_atom_site_aniso_U_11
_atom_site_aniso_U_22
_atom_site_aniso_U_33
_atom_site_aniso_U_12
_atom_site_aniso_U_13
_atom_site_aniso_U_23
Ca1 Ca2+ 0.0225(4) 0.0228(4) 0.0218(3) -0.0031(3) 0.0003(3) 0.0012(3)
P1 P5+ 0.0205(5) 0.0194(4) 0.0175(4) 0.0006(4) -0.0006(3) -0.0002(3)
P2 P5+ 0.0186(6) 0.0184(6) 0.0167(6) 0.000 0.0003(5) 0.000
P3 P5+ 0.0210(6) 0.0189(6) 0.0195(6) 0.000 0.0011(5) 0.000
N1 N3- 0.0245(15) 0.0242(15) 0.0159(13) -0.0034(12) 0.0024(12) 0.0023(12)
N2 N3- 0.0211(15) 0.0223(14) 0.0172(13) 0.0035(12) 0.0025(11) 0.0018(12)
O1 O2- 0.0221(13) 0.0255(13) 0.0245(12) 0.0032(10) 0.0008(10) -0.0024(10)
O2 O2- 0.0261(13) 0.0213(12) 0.0254(13) -0.0031(10) 0.0031(10) 0.0015(10)
O3 O2- 0.0240(14) 0.0241(13) 0.0202(12) 0.0004(10) -0.0009(10) -0.0048(10)
O4 O2- 0.0282(14) 0.0244(12) 0.0199(12) -0.0010(11) -0.0036(11) -0.0018(10)
O5 O2- 0.056(2) 0.057(2) 0.0501(19) -0.0326(18) 0.0051(16) -0.0108(16)
O6 O2- 0.0436(19) 0.0270(15) 0.068(2) 0.0020(14) -0.0102(16) 0.0010(14)
O7 O2- 0.0307(18) 0.051(2) 0.083(3) 0.0026(15) 0.0113(17) 0.0116(18)
O8 O2- 0.0288(17) 0.106(3) 0.055(2) -0.0122(18) -0.0040(15) 0.050(2)
#End of data_423118-ICSD


