data_27193-ICSD
#?2014 by Fachinformationszentrum Karlsruhe, and the U.S. Secretary of 
#Commerce on behalf of the United States.  All rights reserved.
_database_code_ICSD                27193
_audit_creation_date               1982/12/31
_chemical_name_systematic
;
Tricadmium Potassium Heptachloride Tetrahydrate
;
_chemical_formula_structural       'Cd3 K Cl7 (H2 O)4'
_chemical_formula_sum              'H8 Cd3 Cl7 K1 O4'
_publ_section_title
;
Structure de l'Heptachlorure de Tricadmium et de Potassium 
Tetrahydrate
;
loop_
_citation_id
_citation_journal_abbrev
_citation_year
_citation_journal_volume
_citation_page_first
_citation_page_last
_citation_journal_id_ASTM
primary 'Acta Crystallographica B (24,1968-38,1982)' 1982 38 1569 1571 ACBCAR
_publ_author_name                  'Ledesert, M.'
_cell_length_a                     6.6736(7)
_cell_length_b                     16.1224(13)
_cell_length_c                     7.0373(5)
_cell_angle_alpha                  90.
_cell_angle_beta                   91.81(1)
_cell_angle_gamma                  90.
_cell_volume                       756.8
_cell_formula_units_Z              2
_symmetry_space_group_name_H-M     'P 1 21/m 1'
_symmetry_Int_Tables_number        11
_refine_ls_R_factor_all            .024
loop_
_symmetry_equiv_pos_site_id
_symmetry_equiv_pos_as_xyz
  1	'x, -y+.5, z'
  2	'-x, -y, -z'
  3	'-x, y+.5, -z'
  4	'x, y, z'
loop_
_atom_type_symbol
_atom_type_oxidation_number
Cd2+	2
Cl1-	-1
H1+	1
K1+	1
O2-	-2
loop_
_atom_site_label
_atom_site_type_symbol
_atom_site_symmetry_multiplicity
_atom_site_Wyckoff_symbol
_atom_site_fract_x
_atom_site_fract_y
_atom_site_fract_z
_atom_site_occupancy
_atom_site_attached_hydrogens
_atom_site_B_iso_or_equiv
Cd1 Cd2+ 2 a 0 0 0 1. 0 0 
Cd2 Cd2+ 4 f 0.50431(3) 0.09677(1) 0.16322(3) 1. 0 0 
K1 K1+ 2 e -.03529(20) 0.25 0.32773(20) 1. 0 0 
Cl1 Cl1- 4 f 0.32806(10) 0.05425(4) -.16976(11) 1. 0 0 
Cl2 Cl1- 4 f 0.18253(11) 0.05003(5) 0.31982(11) 1. 0 0 
Cl3 Cl1- 4 f -.17975(11) 0.14001(5) -.02619(12) 1. 0 0 
Cl4 Cl1- 2 e 0.38504(10) 0.25 0.15035(22) 1. 0 0 
O1 O2- 4 f -.31881(44) 0.12242(18) 0.44571(41) 1. 0 0 
O2 O2- 2 e 0.11639(94) 0.25 -.31016(82) 1. 0 0 
O3 O2- 2 e -.46864(73) 0.25 -.34321(62) 1. 0 0 
H1 H1+ 4 f -.252(13) 0.081(6) 0.492(13) 1. 0 3. 
H2 H1+ 4 f -.373(13) 0.154(6) 0.504(13) 1. 0 3. 
H3 H1+ 4 f 0.086(13) 0.201(6) -.249(13) 1. 0 3. 
H4 H1+ 2 e -.595(19) 0.25 -.348(19) 1. 0 3. 
H5 H1+ 2 e -.406(19) 0.25 -.231(18) 1. 0 3. 

#End of data_27193-ICSD


