data_37099-ICSD
#?2014 by Fachinformationszentrum Karlsruhe, and the U.S. Secretary of 
#Commerce on behalf of the United States.  All rights reserved.
_database_code_ICSD                37099
_audit_creation_date               1980/01/01
_audit_update_record               2008/02/01
_chemical_name_systematic          'Dithallium Tetraiodozincate'
_chemical_formula_structural       'Tl2 (Zn I4)'
_chemical_formula_sum              'I4 Tl2 Zn1'
_publ_section_title
;
Trends in heavy-metal solid state ionic conductors: a comparison of 
Cu+, Ag+, IN+, and Tl+ transport
;
loop_
_citation_id
_citation_journal_abbrev
_citation_year
_citation_journal_volume
_citation_page_first
_citation_page_last
_citation_journal_id_ASTM
primary 'Journal of Solid State Chemistry' 1979 29 401 415 JSSCBI
2 'Golden Book of Phase Transitions, Wroclaw' 2002 1 1 123 GBOPT5
_publ_author_name
;
Ammlung, R.L.;Scaringe, R.P.;Ibers, J.A.;Shriver, D.F.;Whitmore, D.H.
;
_cell_length_a                     7.661(9)
_cell_length_b                     7.971(8)
_cell_length_c                     10.074(13)
_cell_angle_alpha                  90.
_cell_angle_beta                   118.39(4)
_cell_angle_gamma                  90.
_cell_volume                       541.19
_cell_formula_units_Z              2
_symmetry_space_group_name_H-M     'P 1 21 1'
_symmetry_Int_Tables_number        4
_refine_ls_R_factor_all            .12
loop_
_symmetry_equiv_pos_site_id
_symmetry_equiv_pos_as_xyz
  1	'-x, y+.5, -z'
  2	'x, y, z'
loop_
_atom_type_symbol
_atom_type_oxidation_number
I1-	-1
Tl1+	1
Zn2+	2
loop_
_atom_site_label
_atom_site_type_symbol
_atom_site_symmetry_multiplicity
_atom_site_Wyckoff_symbol
_atom_site_fract_x
_atom_site_fract_y
_atom_site_fract_z
_atom_site_occupancy
_atom_site_attached_hydrogens
_atom_site_B_iso_or_equiv
Tl1 Tl1+ 2 a 0.17253(94) 0.5125 0.94563(69) 1. 0 0 
Tl2 Tl1+ 2 a 0.68955(95) 0.52333(95) 0.43317(75) 1. 0 0 
I1 I1- 2 a 0.2744(18) 0.2464(13) 0.2562(13) 1. 0 1.68 
I2 I1- 2 a 0.2036(19) 0.4523(16) -.3801(12) 1. 0 2.19 
I3 I1- 2 a 0.6785(17) 0.4447(15) 0.0832(12) 1. 0 2.19 
I4 I1- 2 a 0.7625(18) 0.2356(13) -.2725(13) 1. 0 1.66 
Zn1 Zn2+ 2 a 0.5789(31) 0.4725(24) -.2024(19) 1. 0 1.85 

#End of data_37099-ICSD


