data_47142-ICSD
#?2014 by Fachinformationszentrum Karlsruhe, and the U.S. Secretary of 
#Commerce on behalf of the United States.  All rights reserved.
_database_code_ICSD                47142
_audit_creation_date               1985/06/11
_chemical_name_systematic
;
Ammonium Dialuminium Hydroxide Bis(phosphate) Dihydrate
;
_chemical_formula_structural       'N H4 Al2 (O H) (P O4)2 (H2 O)2'
_chemical_formula_sum              'H9 Al2 N1 O11 P2'
_publ_section_title
;
Structure of N H4 Al2 (O H) (H2 O) (P O4)2 (H2 O), the Ammonium 
Aluminium Analog of Ga P O4 (H2 O)2 and Leucophosphite.
;
loop_
_citation_id
_citation_journal_abbrev
_citation_year
_citation_journal_volume
_citation_page_first
_citation_page_last
_citation_journal_id_ASTM
primary 'Acta Crystallographica, Section C: Crystal Structure Communications'
 1984 40 2008 2011 ACSCEE
_publ_author_name                  'Pluth, J.J.;Smith, J.V.'
_cell_length_a                     9.6167(3)
_cell_length_b                     9.5720(4)
_cell_length_c                     9.5563(3)
_cell_angle_alpha                  90.
_cell_angle_beta                   103.589(2)
_cell_angle_gamma                  90.
_cell_volume                       855.04
_cell_formula_units_Z              4
_symmetry_space_group_name_H-M     'P 1 21/n 1'
_symmetry_Int_Tables_number        14
_refine_ls_R_factor_all            .031
loop_
_symmetry_equiv_pos_site_id
_symmetry_equiv_pos_as_xyz
  1	'-x+.5, y+.5, -z+.5'
  2	'-x, -y, -z'
  3	'x+.5, -y+.5, z+.5'
  4	'x, y, z'
loop_
_atom_type_symbol
_atom_type_oxidation_number
Al3+	3
H1+	1
N3-	-3
O2-	-2
P5+	5
loop_
_atom_site_label
_atom_site_type_symbol
_atom_site_symmetry_multiplicity
_atom_site_Wyckoff_symbol
_atom_site_fract_x
_atom_site_fract_y
_atom_site_fract_z
_atom_site_occupancy
_atom_site_attached_hydrogens
P1 P5+ 4 e 0.34830(2) 0.53183(2) 0.69853(2) 1. 0 
P2 P5+ 4 e 0.13673(2) 0.30797(2) 0.29463(2) 1. 0 
Al1 Al3+ 4 e 0.37209(3) 0.53719(3) 0.38618(3) 1. 0 
Al2 Al3+ 4 e 0.31503(3) 0.22896(3) 0.60731(3) 1. 0 
O1 O2- 4 e 0.29674(6) 0.58593(6) 0.54344(6) 1. 0 
O2 O2- 4 e 0.19438(7) 0.12742(7) 0.69302(7) 1. 0 
O3 O2- 4 e 0.48683(6) 0.48033(6) 0.26314(6) 1. 0 
O4 O2- 4 e 0.28440(7) 0.38569(6) 0.70988(7) 1. 0 
O5 O2- 4 e 0.16583(7) 0.26782(7) 0.45379(6) 1. 0 
O6 O2- 4 e 0.20999(6) 0.44859(6) 0.27945(6) 1. 0 
O7 O2- 4 e 0.30331(7) 0.69867(6) 0.29189(7) 1. 0 
O8 O2- 4 e 0.47629(6) 0.17560(7) 0.73909(7) 1. 0 
O9 O2- 4 e 0.44566(6) 0.36468(6) 0.50306(6) 1. 0 
O10 O2- 4 e 0.35324(8) 0.06688(8) 0.49997(8) 1. 0 
O11 O2- 4 e 0.53720(9) 0.14339(9) 0.31701(10) 1. 0 
N1 N3- 4 e 0.10388(10) 0.80953(11) 0.48671(10) 1. 0 
H1 H1+ 4 e 0.4748(18) 0.3109(18) 0.4499(18) 1. 0 
H2 H1+ 4 e 0.3938(18) 0.9970(19) 0.5477(18) 1. 0 
H3 H1+ 4 e 0.3202(19) 0.0438(18) 0.4218(20) 1. 0 
H4 H1+ 4 e 0.6000(23) 0.1442(21) 0.2698(21) 1. 0 
H5 H1+ 4 e 0.4675(23) 0.0928(22) 0.2750(23) 1. 0 
H6 H1+ 4 e 0.0240(24) 0.7849(23) 0.4936(23) 1. 0 
H7 H1+ 4 e 0.0928(21) 0.8565(20) 0.4179(22) 1. 0 
H8 H1+ 4 e 0.1581(22) 0.7310(23) 0.4901(21) 1. 0 
H9 H1+ 4 e 0.1445(20) 0.8500(19) 0.5601(20) 1. 0 

loop_
_atom_site_aniso_label
_atom_site_aniso_type_symbol
_atom_site_aniso_U_11
_atom_site_aniso_U_22
_atom_site_aniso_U_33
_atom_site_aniso_U_12
_atom_site_aniso_U_13
_atom_site_aniso_U_23
P1 P5+ 0.00557(7) 0.00529(7) 0.00511(7) 0.00044(5) 0.00147(5) -.00034(5)
P2 P5+ 0.00490(7) 0.00477(7) 0.00503(7) -.00026(5) 0.00017(5) 0.00015(5)
Al1 Al3+ 0.00541(8) 0.00612(9) 0.00543(9) 0.00028(7) 0.00083(7) 0.00033(7)
Al2 Al3+ 0.00578(8) 0.00623(9) 0.00541(9) 0.00031(7) 0.00029(7) 0.00026(7)
O1 O2- 0.00854(20) 0.00896(21) 0.00588(21) 0.00222(16) 0.00141(15) 
0.00074(16)
O2 O2- 0.00927(21) 0.00988(22) 0.00890(22) -.00154(17) 0.00347(17) 
0.00343(17)
O3 O2- 0.00566(18) 0.01056(22) 0.00715(20) 0.00099(16) 0.00110(15) 
-.00142(16)
O4 O2- 0.00976(21) 0.00586(19) 0.00932(22) -.00084(16) 0.00399(17) 
-.00082(16)
O5 O2- 0.00804(20) 0.01243(23) 0.00604(20) -.00035(17) -.00009(16) 
0.00260(17)
O6 O2- 0.00818(19) 0.00557(18) 0.00833(21) -.00227(15) -.00033(15) 
0.00056(16)
O7 O2- 0.00839(20) 0.00765(20) 0.01134(24) 0.00034(16) 0.00261(17) 
0.00396(17)
O8 O2- 0.00529(18) 0.01012(22) 0.00969(22) -.00008(16) -.00113(16) 
0.00131(17)
O9 O2- 0.00811(19) 0.00844(21) 0.00706(21) 0.00139(16) 0.00174(16) 
-.00111(16)
O10 O2- 0.01858(29) 0.01336(26) 0.00897(25) 0.0046(22) 0.00089(21) 
-.00233(20)
O11 O2- 0.01747(32) 0.01707(32) 0.02569(42) -.00253(26) 0.00897(29) 
0.00043(28)
N1 N3- 0.01357(30) 0.02049(37) 0.01310(32) 0.00420(27) 0.00270(25) 
0.00181(27)
#End of data_47142-ICSD


