data_601453-ICSD
#?2014 by Fachinformationszentrum Karlsruhe, and the U.S. Secretary of 
#Commerce on behalf of the United States.  All rights reserved.
_database_code_ICSD                601453
_audit_creation_date               2013/02/01
_chemical_name_systematic          'Silver Germanium Sulfide (8/1/6)'
_chemical_formula_structural       'Ag8 Ge S6'
_chemical_formula_sum              'Ag8 Ge1 S6'
_publ_section_title
;
New data for Ag8 Sn S6 (canfieldite) and Ag8 Ge S6 (argyrodite)
;
loop_
_citation_id
_citation_journal_abbrev
_citation_year
_citation_journal_volume
_citation_page_first
_citation_page_last
_citation_journal_id_ASTM
primary 'Neues Jahrbuch fuer Mineralogie. Monatshefte (Band=Jahr) (1950-)'
 1978 1978 269 . NJMMAW
_publ_author_name                  'Wang, N.'
_cell_length_a                     15.133(2)
_cell_length_b                     7.463(1)
_cell_length_c                     10.583(2)
_cell_angle_alpha                  90.0
_cell_angle_beta                   90.0
_cell_angle_gamma                  90.0
_cell_volume                       1195.22
_cell_formula_units_Z              4
_symmetry_space_group_name_H-M     'P n a 21'
_symmetry_Int_Tables_number        33
loop_
_symmetry_equiv_pos_site_id
_symmetry_equiv_pos_as_xyz
  1	'x+.5, -y+.5, z'
  2	'-x+.5, y+.5, z+.5'
  3	'-x, -y, z+.5'
  4	'x, y, z'
loop_
_atom_type_symbol
_atom_type_oxidation_number
Ag1+	1
Ge4+	4
S2-	-2
loop_
_atom_site_label
_atom_site_type_symbol
_atom_site_symmetry_multiplicity
_atom_site_Wyckoff_symbol
_atom_site_fract_x
_atom_site_fract_y
_atom_site_fract_z
_atom_site_occupancy
_atom_site_attached_hydrogens
Ag1 Ag1+ 4 a 0.127 0.241 0 1. 0 
Ag2 Ag1+ 4 a 0.484 0.992 0.277 1. 0 
Ag3 Ag1+ 4 a 0.228 0.614 0.197 1. 0 
Ag4 Ag1+ 4 a 0.429 0.437 0.360 1. 0 
Ag5 Ag1+ 4 a 0.276 0.007 0.302 1. 0 
Ag6 Ag1+ 4 a 0.078 0.906 0.187 1. 0 
Ag7 Ag1+ 4 a 0.437 0.773 0.041 1. 0 
Ag8 Ag1+ 4 a 0.240 0.886 -.013 1. 0 
Ge1 Ge4+ 4 a 0.376 0.271 0.027 1. 0 
S1 S2- 4 a 0.377 0.734 0.276 1. 0 
S2 S2- 4 a 0.114 0.689 0.016 1. 0 
S3 S2- 4 a 0.264 0.266 0.149 1. 0 
S4 S2- 4 a 0.490 0.271 0.147 1. 0 
S5 S2- 4 a 0.378 0.506 -.088 1. 0 
S6 S2- 4 a 0.372 0.043 -.090 1. 0 

#End of data_601453-ICSD


