data_22245-ICSD
#?2014 by Fachinformationszentrum Karlsruhe, and the U.S. Secretary of 
#Commerce on behalf of the United States.  All rights reserved.
_database_code_ICSD                22245
_audit_creation_date               1980/01/01
_audit_update_record               2007/04/01
_chemical_name_systematic          'Dipotassium Manganate(VI)'
_chemical_formula_structural       'K2 (Mn O4)'
_chemical_formula_sum              'K2 Mn1 O4'
_publ_section_title
;
Crystal structure of potassium manganate
;
loop_
_citation_id
_citation_journal_abbrev
_citation_year
_citation_journal_volume
_citation_page_first
_citation_page_last
_citation_journal_id_ASTM
primary 'Inorganic Chemistry' 1967 6 507 511 INOCAJ
_publ_author_name                  'Palenik, G.J.'
_cell_length_a                     7.667(4)
_cell_length_b                     5.895(3)
_cell_length_c                     10.359(5)
_cell_angle_alpha                  90.
_cell_angle_beta                   90.
_cell_angle_gamma                  90.
_cell_volume                       468.2
_cell_formula_units_Z              4
_symmetry_space_group_name_H-M     'P n m a'
_symmetry_Int_Tables_number        62
_refine_ls_R_factor_all            .058
loop_
_symmetry_equiv_pos_site_id
_symmetry_equiv_pos_as_xyz
  1	'x+.5, y, -z+.5'
  2	'x, -y+.5, z'
  3	'-x+.5, y+.5, z+.5'
  4	'-x, -y, -z'
  5	'-x+.5, -y, z+.5'
  6	'-x, y+.5, -z'
  7	'x+.5, -y+.5, -z+.5'
  8	'x, y, z'
loop_
_atom_type_symbol
_atom_type_oxidation_number
K1+	1
Mn6+	6
O2-	-2
loop_
_atom_site_label
_atom_site_type_symbol
_atom_site_symmetry_multiplicity
_atom_site_Wyckoff_symbol
_atom_site_fract_x
_atom_site_fract_y
_atom_site_fract_z
_atom_site_occupancy
_atom_site_attached_hydrogens
Mn1 Mn6+ 4 c 0.22946(11) 0.25 0.42058(56) 1. 0 
O1 O2- 4 c 0.01659(69) 0.25 0.41677(47) 1. 0 
O2 O2- 4 c 0.30122(76) 0.25 0.57172(39) 1. 0 
O3 O2- 8 d 0.30584(54) 0.02227(65) 0.34773(9) 1. 0 
K1 K1+ 4 c 0.16338(19) 0.25 0.08698(15) 1. 0 
K2 K1+ 4 c -.01217(17) 0.25 0.69855(14) 1. 0 

#End of data_22245-ICSD


