data_36629-ICSD
#?2014 by Fachinformationszentrum Karlsruhe, and the U.S. Secretary of 
#Commerce on behalf of the United States.  All rights reserved.
_database_code_ICSD                36629
_audit_creation_date               1993/01/06
_audit_update_record               2000/07/15
_chemical_name_systematic          'Dicalcium Lead(IV) Oxide'
_chemical_formula_structural       'Ca2 Pb O4'
_chemical_formula_sum              'Ca2 O4 Pb1'
_publ_section_title                'Zur Kristallstruktur von Ca2 Pb O4'
loop_
_citation_id
_citation_journal_abbrev
_citation_year
_citation_journal_volume
_citation_page_first
_citation_page_last
_citation_journal_id_ASTM
primary 'Zeitschrift fuer Anorganische und Allgemeine Chemie (1950) (DE)'
 1992 607 128 130 ZAACAB
_publ_author_name                  'Teichert, A.;Mueller Buschbaum, H.'
_cell_length_a                     5.832(1)
_cell_length_b                     9.766(11)
_cell_length_c                     3.375(1)
_cell_angle_alpha                  90.
_cell_angle_beta                   90.
_cell_angle_gamma                  90.
_cell_volume                       192.22
_cell_formula_units_Z              2
_symmetry_space_group_name_H-M     'P b a m'
_symmetry_Int_Tables_number        55
_refine_ls_R_factor_all            .044
loop_
_symmetry_equiv_pos_site_id
_symmetry_equiv_pos_as_xyz
  1	'x+.5, -y+.5, z'
  2	'-x+.5, y+.5, z'
  3	'x, y, -z'
  4	'-x, -y, -z'
  5	'-x+.5, y+.5, -z'
  6	'x+.5, -y+.5, -z'
  7	'-x, -y, z'
  8	'x, y, z'
loop_
_atom_type_symbol
_atom_type_oxidation_number
Ca2+	2
O2-	-2
Pb4+	4
loop_
_atom_site_label
_atom_site_type_symbol
_atom_site_symmetry_multiplicity
_atom_site_Wyckoff_symbol
_atom_site_fract_x
_atom_site_fract_y
_atom_site_fract_z
_atom_site_occupancy
_atom_site_attached_hydrogens
_atom_site_B_iso_or_equiv
Pb1 Pb4+ 2 a 0 0 0 1. 0 0.45(2) 
Ca1 Ca2+ 4 h 0.0730(7) 0.3175(4) 0.5 1. 0 0.53(5) 
O1 O2- 4 h 0.2379(30) 0.0492(16) 0.5 1. 0 0.77(20) 
O2 O2- 4 g 0.3611(24) 0.3009(15) 0 1. 0 0.46(18) 

#End of data_36629-ICSD


