data_407062-ICSD
#?2014 by Fachinformationszentrum Karlsruhe, and the U.S. Secretary of 
#Commerce on behalf of the United States.  All rights reserved.
_database_code_ICSD                407062
_audit_creation_date               1998/06/26
_audit_update_record               2013/02/01
_chemical_name_systematic
;
Barium Dysprosium Zinc Platinum Oxide (17/16/8/4/57)
;
_chemical_formula_structural       'Ba17 Ho16 Zn8 Pt4 O57'
_chemical_formula_sum              'Ba17 Ho16 O57 Pt4 Zn8'
_publ_section_title
;
Weitere Verbindungen zum Ba17 Ln16 Zn8 Pt4 O57-Typ mit Ln= Dy, Ho, 
Er, Y
;
loop_
_citation_id
_citation_journal_abbrev
_citation_year
_citation_journal_volume
_citation_page_first
_citation_page_last
_citation_journal_id_ASTM
primary 'Zeitschrift fuer Naturforschung, B: Chemical Sciences'
 1997 52 1067 1071 ZNBSEN
_publ_author_name                  'Sfreddo, O.;Mueller Buschbaum, H.'
_cell_length_a                     22.8403(10)
_cell_length_b                     22.8403(10)
_cell_length_c                     5.722(1)
_cell_angle_alpha                  90.
_cell_angle_beta                   90.
_cell_angle_gamma                  90.
_cell_volume                       2985.05
_cell_formula_units_Z              2
_symmetry_space_group_name_H-M     'I 4/m'
_symmetry_Int_Tables_number        87
_refine_ls_R_factor_all            .039
loop_
_symmetry_equiv_pos_site_id
_symmetry_equiv_pos_as_xyz
  1	'-y, x, -z'
  2	'y, -x, -z'
  3	'x, y, -z'
  4	'-x, -y, -z'
  5	'y, -x, z'
  6	'-y, x, z'
  7	'-x, -y, z'
  8	'x, y, z'
  9	'-y+.5, x+.5, -z+.5'
 10	'y+.5, -x+.5, -z+.5'
 11	'x+.5, y+.5, -z+.5'
 12	'-x+.5, -y+.5, -z+.5'
 13	'y+.5, -x+.5, z+.5'
 14	'-y+.5, x+.5, z+.5'
 15	'-x+.5, -y+.5, z+.5'
 16	'x+.5, y+.5, z+.5'
loop_
_atom_type_symbol
_atom_type_oxidation_number
Ba2+	2
Ho3+	3
O2-	-2
Pt4+	4
Zn2+	2
loop_
_atom_site_label
_atom_site_type_symbol
_atom_site_symmetry_multiplicity
_atom_site_Wyckoff_symbol
_atom_site_fract_x
_atom_site_fract_y
_atom_site_fract_z
_atom_site_occupancy
_atom_site_attached_hydrogens
Pt1 Pt4+ 8 h 0.35590(3) 0.08298(3) 0.5 1. 0 
Ho1 Ho3+ 8 h 0.40008(3) 0.48765(3) 0 1. 0 
Ho2 Ho3+ 8 h 0.24963(3) 0.00664(3) 0.5 1. 0 
Ho3 Ho3+ 8 h 0.44711(3) 0.32763(3) 0.5 1. 0 
Ho4 Ho3+ 8 h 0.45036(3) 0.17378(3) 0.5 1. 0 
Ba1 Ba2+ 2 a 0 0 0 1. 0 
Ba2 Ba2+ 8 h 0.38797(5) -.22424(5) 0.5 1. 0 
Ba3 Ba2+ 8 h 0.34193(5) 0.34967(5) 0 1. 0 
Ba4 Ba2+ 8 h 0.18943(4) 0.26813(4) 0 1. 0 
Ba5 Ba2+ 8 h 0.44167(5) 0.06729(5) 0 1. 0 
Zn1 Zn2+ 8 h 0.28881(9) -.12141(9) -.5 1. 0 
Zn2 Zn2+ 8 h 0.36639(9) 0.42409(8) 0.5 1. 0 
O1 O2- 2 b 0 0 0.5 1. 0 
O2 O2- 8 h 0.4442(6) 0.0646(6) 0.5 1. 0 
O3 O2- 8 h 0.3387(6) 0.3425(5) 0.5 1. 0 
O4 O2- 8 h 0.2693(5) 0.1088(6) 0.5 1. 0 
O5 O2- 8 h 0.2606(6) -.2030(5) -.5 1. 0 
O6 O2- 16 i 0.3237(3) 0.4714(4) 0.2548(16) 1. 0 
O7 O2- 16 i 0.3765(3) 0.1436(3) 0.7461(16) 1. 0 
O8 O2- 16 i 0.3338(4) 0.0224(3) 0.7427(17) 1. 0 
O9 O2- 16 i 0.2475(3) -.0721(4) -.2490(18) 1. 0 
O10 O2- 16 i 0.4344(3) 0.4101(4) 0.2501(15) 1. 0 

loop_
_atom_site_aniso_label
_atom_site_aniso_type_symbol
_atom_site_aniso_U_11
_atom_site_aniso_U_22
_atom_site_aniso_U_33
_atom_site_aniso_U_12
_atom_site_aniso_U_13
_atom_site_aniso_U_23
Pt1 Pt4+ 0.0062(3) 0.0060(3) 0.0041(3) -.0009(2) 0 0
Ho1 Ho3+ 0.0050(3) 0.0068(3) 0.0050(4) -.0001(2) 0 0
Ho2 Ho3+ 0.0055(3) 0.0059(3) 0.0040(4) -.0001(2) 0 0
Ho3 Ho3+ 0.0065(3) 0.0055(3) 0.0048(4) 0.0001(2) 0 0
Ho4 Ho3+ 0.0064(3) 0.0065(3) 0.0047(4) 0.0000(2) 0 0
Ba1 Ba2+ 0.0101(5) 0.0101(5) 0.0057(10) 0 0 0
Ba2 Ba2+ 0.0091(4) 0.0096(4) 0.0072(5) -.0002(3) 0 0
Ba3 Ba2+ 0.0104(5) 0.0096(5) 0.0095(5) -.0021(3) 0 0
Ba4 Ba2+ 0.0076(4) 0.0079(4) 0.0075(5) 0.0005(3) 0 0
Ba5 Ba2+ 0.0112(5) 0.0097(5) 0.0074(5) 0.0025(3) 0 0
Zn1 Zn2+ 0.0091(9) 0.0071(8) 0.0072(10) 0.0017(7) 0 0
Zn2 Zn2+ 0.0075(8) 0.0060(8) 0.0058(10) 0.0009(6) 0 0
O1 O2- 0.006(6) 0.006(6) 0.027(17) 0 0 0
O2 O2- 0.011(6) 0.011(6) 0.029(9) 0.004(5) 0 0
O3 O2- 0.021(7) 0.003(5) 0.019(8) 0.005(5) 0 0
O4 O2- 0.009(6) 0.010(6) 0.016(7) -.001(5) 0 0
O5 O2- 0.017(6) 0.008(5) 0.012(7) -.011(5) 0 0
O6 O2- 0.006(3) 0.012(4) 0.006(5) 0.002(3) 0.002(3) 0.006(3)
O7 O2- 0.007(3) 0.009(4) 0.003(4) -.002(3) 0.004(3) -.003(3)
O8 O2- 0.019(4) 0.004(3) 0.010(5) -.001(3) -.006(4) 0.005(3)
O9 O2- 0.005(3) 0.012(4) 0.017(5) 0.002(3) 0.003(4) 0.001(4)
O10 O2- 0.011(4) 0.011(4) 0.006(4) -.001(3) 0.007(3) 0.000(3)
#End of data_407062-ICSD


