data_250215-ICSD
#?2014 by Fachinformationszentrum Karlsruhe, and the U.S. Secretary of 
#Commerce on behalf of the United States.  All rights reserved.
_database_code_ICSD                250215
_audit_creation_date               2005/04/01
_chemical_name_systematic
;
Calcium Tetralithium Bis(dihydroxooctaoxopentaborate)
;
_chemical_formula_structural       'Ca Li4 (B5 O8 (O H)2)2'
_chemical_formula_sum              'H4 B10 Ca1 Li4 O20'
_publ_section_title
;
Crystal structure of new synthetic Ca, Li pentaborate Ca Li4 (B5 O8 
(OH )2)2
;
loop_
_citation_id
_citation_journal_abbrev
_citation_year
_citation_journal_volume
_citation_page_first
_citation_page_last
_citation_journal_id_ASTM
primary Kristallografiya 2004 49 1031 1036 KRISAJ
2 'Crystallography Reports' 2004 49 936 941 CYSTE3
_publ_author_name
;
Kantor, A.P.;Yamnova, N.A.;Egorov Tismenko, Yu.K.;Dimitrova, O.V.
;
_cell_length_a                     8.807(7)
_cell_length_b                     9.372(7)
_cell_length_c                     8.265(6)
_cell_angle_alpha                  90
_cell_angle_beta                   90
_cell_angle_gamma                  90
_cell_volume                       682.19
_cell_formula_units_Z              2
_symmetry_space_group_name_H-M     'P b 2 n'
_symmetry_Int_Tables_number        30
_refine_ls_R_factor_all            .0602
loop_
_symmetry_equiv_pos_site_id
_symmetry_equiv_pos_as_xyz
  1	'-x+.5, y+.5, z'
  2	'x+.5, y+.5, -z+.5'
  3	'-x, y, -z+.5'
  4	'x, y, z'
loop_
_atom_type_symbol
_atom_type_oxidation_number
B3+	3
Ca2+	2
H1+	1
Li1+	1
O2-	-2
loop_
_atom_site_label
_atom_site_type_symbol
_atom_site_symmetry_multiplicity
_atom_site_Wyckoff_symbol
_atom_site_fract_x
_atom_site_fract_y
_atom_site_fract_z
_atom_site_occupancy
_atom_site_attached_hydrogens
_atom_site_B_iso_or_equiv
Ca1 Ca2+ 2 a 0 0.6653 0.25 1. 0 0.86(2) 
B1 B3+ 4 c 0.2396(2) 0.3882(2) 0.6810(2) 1. 0 0.73(3) 
B2 B3+ 4 c 0.7507(3) 0.4009(2) 0.3217(2) 1. 0 0.67(3) 
B3 B3+ 2 b 0 0.2619(3) 0.75 1. 0 0.58(2) 
B4 B3+ 4 c 0.7765(2) 0.2446(2) 0.5667(2) 1. 0 0.62(3) 
B5 B3+ 4 c 0.2251(2) 0.0438(2) 0.4320(2) 1. 0 0.66(3) 
B6 B3+ 2 a 0 0.0132(3) 0.25 1. 0 0.54(4) 
Li1 Li1+ 4 c 0.0567(6) 0.2911(6) 0.4253(7) 1. 0 1.27(8) 
Li2 Li1+ 4 c 0.5471(6) 0.4850(6) 0.5737(7) 1. 0 1.25(8) 
O1 O2- 4 c 0.0930(1) 0.0995(1) 0.3525(1) 1. 0 0.60(2) 
O2 O2- 4 c 0.0925(1) 0.3576(2) 0.6449(2) 1. 0 0.81(2) 
O3 O2- 4 c 0.8383(1) 0.3273(1) 0.4273(2) 1. 0 0.80(2) 
O4 O2- 4 c 0.3255(1) 0.4657(2) 0.5755(2) 1. 0 0.81(2) 
O5 O2- 4 c 0.9011(1) 0.1756(1) 0.6484(1) 1. 0 0.63(2) 
O6 O2- 4 c 0.1818(1) 0.4538(2) 0.3162(1) 1. 0 0.76(2) 
O7 O2- 4 c 0.6932(1) 0.3434(2) 0.6778(2) 1. 0 0.94(2) 
O8 O2- 4 c 0.3257(1) 0.1651(2) 0.4703(2) 1. 0 1.17(3) 
O9 O2- 4 c 0.6687(2) 0.1413(1) 0.4956(2) 1. 0 1.04(3) 
O10 O2- 4 c 0.5976(1) 0.4120(1) 0.3478(2) 1. 0 0.72(2) 
H1 H1+ 4 c 0.38(1) 0.15(2) 0.55(1) 1. 0 5 
H2 H1+ 4 c 0.63(1) 0.09(2) 0.57(1) 1. 0 5 

#End of data_250215-ICSD


