data_404035-ICSD
#?2014 by Fachinformationszentrum Karlsruhe, and the U.S. Secretary of 
#Commerce on behalf of the United States.  All rights reserved.
_database_code_ICSD                404035
_audit_creation_date               1996/10/14
_audit_update_record               2000/07/15
_chemical_name_systematic
;
Tetrazink Bis(arsenate(V)) Oxide - Lt
;
_chemical_formula_structural       'Zn4 (As O4)2 O'
_chemical_formula_sum              'As2 O9 Zn4'
_publ_section_title
;
Zur Kenntnis der Tief- und Hochtemperaturform eines Oxidarsenates des 
Zinks: Zn O Zn3 (As O4)3
;
loop_
_citation_id
_citation_journal_abbrev
_citation_year
_citation_journal_volume
_citation_page_first
_citation_page_last
_citation_journal_id_ASTM
primary 'Zeitschrift fuer Naturforschung, B: Chemical Sciences'
 1996 51 233 239 ZNBSEN
_publ_author_name                  'Mueller Buschbaum, H.;Park, C.-H.'
_cell_length_a                     9.807(3)
_cell_length_b                     8.180(2)
_cell_length_c                     9.967(2)
_cell_angle_alpha                  90.
_cell_angle_beta                   116.528(12)
_cell_angle_gamma                  90.
_cell_volume                       715.38
_cell_formula_units_Z              4
_symmetry_space_group_name_H-M     'P 1 21/n 1'
_symmetry_Int_Tables_number        14
_refine_ls_R_factor_all            .0998
loop_
_symmetry_equiv_pos_site_id
_symmetry_equiv_pos_as_xyz
  1	'-x+.5, y+.5, -z+.5'
  2	'-x, -y, -z'
  3	'x+.5, -y+.5, z+.5'
  4	'x, y, z'
loop_
_atom_type_symbol
_atom_type_oxidation_number
As5+	5
O2-	-2
Zn2+	2
loop_
_atom_site_label
_atom_site_type_symbol
_atom_site_symmetry_multiplicity
_atom_site_Wyckoff_symbol
_atom_site_fract_x
_atom_site_fract_y
_atom_site_fract_z
_atom_site_occupancy
_atom_site_attached_hydrogens
Zn1 Zn2+ 4 e 0.32326(9) -.31813(11) 0.47773(9) 1. 0 
Zn2 Zn2+ 4 e 0.55291(10) -.01998(12) 0.65584(10) 1. 0 
Zn3 Zn2+ 4 e 0.33654(10) 0.25858(11) 0.53982(11) 1. 0 
Zn4 Zn2+ 4 e 0.99062(10) 0.19307(12) 0.50455(11) 1. 0 
As1 As5+ 4 e 0.28632(8) 0.01655(8) 0.78562(8) 1. 0 
As2 As5+ 4 e 0.10799(8) 0.00311(8) 0.26426(8) 1. 0 
O1 O2- 4 e 0.1227(6) -.1803(6) 0.3459(6) 1. 0 
O2 O2- 4 e 0.2999(6) 0.1703(6) 0.9044(6) 1. 0 
O3 O2- 4 e -.0617(6) 0.0212(6) 0.1139(6) 1. 0 
O4 O2- 4 e 0.4088(6) 0.0702(8) 0.7178(6) 1. 0 
O5 O2- 4 e 0.3306(6) -.1576(7) 0.8874(6) 1. 0 
O6 O2- 4 e 0.1143(6) 0.0010(6) 0.6378(6) 1. 0 
O7 O2- 4 e 0.4867(5) -.1741(7) 0.4916(6) 1. 0 
O8 O2- 4 e 0.2371(6) 0.0132(7) 0.1913(6) 1. 0 
O9 O2- 4 e 0.1451(6) 0.1616(7) 0.3833(6) 1. 0 

loop_
_atom_site_aniso_label
_atom_site_aniso_type_symbol
_atom_site_aniso_U_11
_atom_site_aniso_U_22
_atom_site_aniso_U_33
_atom_site_aniso_U_12
_atom_site_aniso_U_13
_atom_site_aniso_U_23
Zn1 Zn2+ 0.0093(3) 0.0123(4) 0.0135(3) -.0004(3) 0.0087(3) -.0001(3)
Zn2 Zn2+ 0.0079(3) 0.0190(4) 0.0130(4) 0.0005(3) 0.0072(3) -.0025(3)
Zn3 Zn2+ 0.0091(3) 0.0157(4) 0.0195(4) -.0029(3) 0.0093(3) -.0061(3)
Zn4 Zn2+ 0.0137(4) 0.0151(4) 0.0210(4) 0.0004(3) 0.0069(3) -.0007(3)
As1 As5+ 0.0057(3) 0.0091(3) 0.0093(3) -.0001(2) 0.0057(2) -.0003(2)
As2 As5+ 0.0062(3) 0.0099(3) 0.0096(3) -.0001(2) 0.0054(2) 0.0007(2)
O1 O2- 0.019(2) 0.019(2) 0.029(3) 0.004(2) 0.017(2) 0.006(2)
O2 O2- 0.018(2) 0.018(2) 0.021(2) -.004(2) 0.012(2) -.004(2)
O3 O2- 0.011(2) 0.018(2) 0.017(2) 0.000(2) 0.006(2) 0.000(2)
O4 O2- 0.017(2) 0.026(3) 0.029(3) 0.004(2) 0.018(2) 0.007(2)
O5 O2- 0.012(2) 0.019(2) 0.025(2) 0.002(2) 0.006(2) 0.007(2)
O6 O2- 0.012(2) 0.020(2) 0.014(2) 0.001(2) 0.006(2) 0.000(2)
O7 O2- 0.014(2) 0.021(2) 0.023(2) -.001(2) 0.013(2) -.001(2)
O8 O2- 0.012(2) 0.028(3) 0.020(2) 0.002(2) 0.010(2) 0.005(2)
O9 O2- 0.018(2) 0.027(3) 0.022(2) -.006(2) 0.010(2) -.005(2)
#End of data_404035-ICSD


