data_62138-ICSD
#?2014 by Fachinformationszentrum Karlsruhe, and the U.S. Secretary of 
#Commerce on behalf of the United States.  All rights reserved.
_database_code_ICSD                62138
_audit_creation_date               1988/02/22
_chemical_name_systematic          'Dipotassium Trioxoplumbate'
_chemical_formula_structural       'K2 Pb O3'
_chemical_formula_sum              'K2 O3 Pb1'
_publ_section_title                'Ueber K2PbO3, Rb2PbO3 und Cs2PbO3'
loop_
_citation_id
_citation_journal_abbrev
_citation_year
_citation_journal_volume
_citation_page_first
_citation_page_last
_citation_journal_id_ASTM
primary 'Zeitschrift fuer Anorganische und Allgemeine Chemie (1950) (DE)'
 1987 551 151 162 ZAACAB
_publ_author_name                  'Stoll, H.;Hoppe, R.'
_cell_length_a                     10.5232(5)
_cell_length_b                     7.0187(3)
_cell_length_c                     5.9733(3)
_cell_angle_alpha                  90.
_cell_angle_beta                   90.
_cell_angle_gamma                  90.
_cell_volume                       441.18
_cell_formula_units_Z              4
_symmetry_space_group_name_H-M     'P m c n'
_symmetry_Int_Tables_number        62
_refine_ls_R_factor_all            .0695
loop_
_symmetry_equiv_pos_site_id
_symmetry_equiv_pos_as_xyz
  1	'x, -y+.5, z+.5'
  2	'-x+.5, y, z'
  3	'x+.5, y+.5, -z+.5'
  4	'-x, -y, -z'
  5	'-x, y+.5, -z+.5'
  6	'x+.5, -y, -z'
  7	'-x+.5, -y+.5, z+.5'
  8	'x, y, z'
loop_
_atom_type_symbol
_atom_type_oxidation_number
K1+	1
O2-	-2
Pb4+	4
loop_
_atom_site_label
_atom_site_type_symbol
_atom_site_symmetry_multiplicity
_atom_site_Wyckoff_symbol
_atom_site_fract_x
_atom_site_fract_y
_atom_site_fract_z
_atom_site_occupancy
_atom_site_attached_hydrogens
Pb1 Pb4+ 4 c 0.25 0.1522(1) 0.2684(1) 1. 0 
K1 K1+ 8 d 0.0860(3) 0.6113(4) 0.2333(6) 1. 0 
O1 O2- 8 d 0.1171(9) 0.2175(17) 0.0060(18) 1. 0 
O2 O2- 4 c 0.25 0.6223(19) 0.8673(25) 1. 0 

loop_
_atom_site_aniso_label
_atom_site_aniso_type_symbol
_atom_site_aniso_U_11
_atom_site_aniso_U_22
_atom_site_aniso_U_33
_atom_site_aniso_U_12
_atom_site_aniso_U_13
_atom_site_aniso_U_23
Pb1 Pb4+ 0.0101(3) 0.0125(3) 0.0053(4) 0 0 0.0006(4)
K1 K1+ 0.0177(14) 0.0226(17) 0.0233(15) 0.0024(11) 0.0011(16) -.0002(16)
O1 O2- 0.0124(39) 0.0338(60) 0.0167(43) -.0045(41) 0.000(4) 0.0156(42)
O2 O2- 0.0460(63) 0.0027(53) 0.0197(54) 0 0 -.0064(48)
#End of data_62138-ICSD


