data_416933-ICSD
#?2014 by Fachinformationszentrum Karlsruhe, and the U.S. Secretary of 
#Commerce on behalf of the United States.  All rights reserved.
_database_code_ICSD                416933
_audit_creation_date               2008/08/01
_chemical_name_systematic
;
Tripotassium Trigadolinium Tetrathiophosphate(V)
;
_chemical_formula_structural       'K3 Gd3 (P S4)4'
_chemical_formula_sum              'Gd3 K3 P4 S16'
_publ_section_title
;
Two potassium gadolinium(III) ortho-thiophosphates(V): K3 Gd3 (P S4)4 
and K9 Gd (P S4)4
;
loop_
_citation_id
_citation_journal_abbrev
_citation_year
_citation_journal_volume
_citation_page_first
_citation_page_last
_citation_journal_id_ASTM
primary 'Journal of Alloys and Compounds' 2008 451 648 653 JALCEU
_publ_author_name                  'Komm, T.;Strobel, S.;Schleid, T.'
_cell_length_a                     16.0187(9)
_cell_length_b                     11.6248(6)
_cell_length_c                     14.5239(8)
_cell_angle_alpha                  90.00
_cell_angle_beta                   90.773(5)
_cell_angle_gamma                  90.00
_cell_volume                       2704.31
_cell_formula_units_Z              4
_symmetry_space_group_name_H-M     'C 1 2/c 1'
_symmetry_Int_Tables_number        15
_refine_ls_R_factor_all            .0418
loop_
_symmetry_equiv_pos_site_id
_symmetry_equiv_pos_as_xyz
  1	'x, -y, z+.5'
  2	'-x, -y, -z'
  3	'-x, y, -z+.5'
  4	'x, y, z'
  5	'x+.5, -y+.5, z+.5'
  6	'-x+.5, -y+.5, -z'
  7	'-x+.5, y+.5, -z+.5'
  8	'x+.5, y+.5, z'
loop_
_atom_type_symbol
_atom_type_oxidation_number
Gd3+	3
K1+	1
P5+	5
S2-	-2
loop_
_atom_site_label
_atom_site_type_symbol
_atom_site_symmetry_multiplicity
_atom_site_Wyckoff_symbol
_atom_site_fract_x
_atom_site_fract_y
_atom_site_fract_z
_atom_site_occupancy
_atom_site_attached_hydrogens
_atom_site_U_iso_or_equiv
K1 K1+ 4 a 0.0000 0.0000 0.0000 1 0 0.0294(3) 
K2 K1+ 8 f 0.20756(7) 0.17928(9) 0.33709(8) 1 0 0.0332(3) 
Gd1 Gd3+ 4 e 0.0000 0.75039(2) 0.2500 1 0 0.01450(7) 
Gd2 Gd3+ 8 f 0.130595(12) 0.383053(17) 0.011918(14) 1 0 0.01548(6) 
P1 P5+ 8 f 0.41898(7) 0.18273(9) 0.47626(8) 1 0 0.0161(2) 
P2 P5+ 8 f 0.31553(7) 0.35320(9) 0.13881(8) 1 0 0.0157(2) 
S1 S2- 8 f 0.38887(7) 0.31564(9) 0.39303(8) 1 0 0.0200(2) 
S2 S2- 8 f 0.00574(7) 0.26344(9) 0.41805(8) 1 0 0.0228(2) 
S3 S2- 8 f 0.18386(7) 0.39518(9) 0.47295(8) 1 0 0.0224(2) 
S4 S2- 8 f 0.48044(7) 0.06345(9) 0.39514(8) 1 0 0.0162(2) 
S5 S2- 8 f 0.40857(7) 0.45024(9) 0.19364(8) 1 0 0.0202(2) 
S6 S2- 8 f 0.20201(7) 0.39727(9) 0.18787(8) 1 0 0.0219(2) 
S7 S2- 8 f 0.18659(7) 0.13335(9) 0.00152(8) 1 0 0.0176(2) 
S8 S2- 8 f 0.34205(7) 0.18382(9) 0.17217(8) 1 0 0.0180(2) 

loop_
_atom_site_aniso_label
_atom_site_aniso_type_symbol
_atom_site_aniso_U_11
_atom_site_aniso_U_22
_atom_site_aniso_U_33
_atom_site_aniso_U_12
_atom_site_aniso_U_13
_atom_site_aniso_U_23
K1 K1+ 0.0294(8) 0.0235(7) 0.0354(8) 0.0035(6) 0.0060(6) 0.0067(6)
K2 K1+ 0.0333(6) 0.0301(6) 0.0364(6) -0.0063(5) 0.0052(5) -0.0035(5)
Gd1 Gd3+ 0.01111(14) 0.01530(14) 0.01705(15) 0.000 -0.00179(11) 0.000
Gd2 Gd3+ 0.01149(10) 0.01642(11) 0.01848(11) 0.00205(8) -0.00176(7) 
-0.00035(8)
P1 P5+ 0.0134(5) 0.0154(5) 0.0196(5) -0.0019(4) 0.0012(4) -0.0007(4)
P2 P5+ 0.0126(5) 0.0163(5) 0.0182(5) 0.0019(4) -0.0027(4) -0.0012(4)
S1 S2- 0.0185(5) 0.0180(5) 0.0236(6) 0.0021(4) 0.0010(4) 0.0004(4)
S2 S2- 0.0194(5) 0.0246(6) 0.0242(6) -0.0003(4) -0.0028(4) -0.0055(5)
S3 S2- 0.0173(5) 0.0196(5) 0.0304(6) -0.0028(4) 0.0085(4) -0.0016(5)
S4 S2- 0.0131(5) 0.0163(5) 0.0194(5) -0.0001(4) 0.0013(4) -0.0008(4)
S5 S2- 0.0175(5) 0.0161(5) 0.0267(6) -0.0005(4) -0.0074(4) -0.0002(4)
S6 S2- 0.0165(5) 0.0296(6) 0.0195(5) 0.0066(4) -0.0003(4) -0.0018(5)
S7 S2- 0.0149(5) 0.0202(5) 0.0175(5) 0.0018(4) -0.0021(4) 0.0013(4)
S8 S2- 0.0176(5) 0.0165(5) 0.0199(5) 0.0018(4) -0.0029(4) -0.0012(4)
#End of data_416933-ICSD


