data_619574-ICSD
#?2014 by Fachinformationszentrum Karlsruhe, and the U.S. Secretary of 
#Commerce on behalf of the United States.  All rights reserved.
_database_code_ICSD                619574
_audit_creation_date               2013/02/01
_chemical_name_systematic          'Calcium Tetraselenosilicate'
_chemical_formula_structural       'Ca2 (Si Se4)'
_chemical_formula_sum              'Ca2 Se4 Si1'
_publ_section_title
;
Ternary chalcogenides with group IVA elements and their olivine 
structure
;
loop_
_citation_id
_citation_journal_abbrev
_citation_year
_citation_journal_volume
_citation_page_first
_citation_page_last
_citation_journal_id_ASTM
primary
;
Zeitschrift fuer Naturforschung, Teil B. Anorganische Chemie, 
Organische Chemie (2,1947-32,1977)
;
 1964 19 958 958 ZENBAX
_publ_author_name
;
Rocktaeschel, G.;Ritter, W.;Weiss, A.
;
_cell_length_a                     14.08
_cell_length_b                     8.56
_cell_length_c                     6.52
_cell_angle_alpha                  90.0
_cell_angle_beta                   90.0
_cell_angle_gamma                  90.0
_cell_volume                       785.82
_cell_formula_units_Z              4
_symmetry_space_group_name_H-M     'P n m a'
_symmetry_Int_Tables_number        62
loop_
_symmetry_equiv_pos_site_id
_symmetry_equiv_pos_as_xyz
  1	'x+.5, y, -z+.5'
  2	'x, -y+.5, z'
  3	'-x+.5, y+.5, z+.5'
  4	'-x, -y, -z'
  5	'-x+.5, -y, z+.5'
  6	'-x, y+.5, -z'
  7	'x+.5, -y+.5, -z+.5'
  8	'x, y, z'
loop_
_atom_type_symbol
_atom_type_oxidation_number
Ca2+	2
Se2-	-2
Si4+	4
loop_
_atom_site_label
_atom_site_type_symbol
_atom_site_symmetry_multiplicity
_atom_site_Wyckoff_symbol
_atom_site_fract_x
_atom_site_fract_y
_atom_site_fract_z
_atom_site_occupancy
_atom_site_attached_hydrogens
Ca1 Ca2+ 4 a 0 0 0 1. 0 
Ca2 Ca2+ 4 c 0.230 0.25 0.510 1. 0 
Si1 Si4+ 4 c 0.411 0.25 0.092 1. 0 
Se1 Se2- 4 c 0.408 0.25 0.728 1. 0 
Se2 Se2- 4 c 0.569 0.25 0.238 1. 0 
Se3 Se2- 8 d 0.334 0.017 0.249 1. 0 

#End of data_619574-ICSD


