data_63705-ICSD
#?2014 by Fachinformationszentrum Karlsruhe, and the U.S. Secretary of 
#Commerce on behalf of the United States.  All rights reserved.
_database_code_ICSD                63705
_audit_creation_date               1992/08/20
_chemical_name_systematic          'Tricalcium Dititanium Oxide'
_chemical_formula_structural       'Ca3 Ti2 O7'
_chemical_formula_sum              'Ca3 O7 Ti2'
_publ_section_title
;
Structure Determinations for Ca3 Ti2 O7, Ca4 Ti3 O10,Ca3.6 Sr0.4 Ti3 
O10 and a Refinement of Sr3 Ti2 O7
;
loop_
_citation_id
_citation_journal_abbrev
_citation_year
_citation_journal_volume
_citation_page_first
_citation_page_last
_citation_journal_id_ASTM
primary 'Acta Crystallographica, Section B: Structural Science'
 1991 47 305 314 ASBSDK
_publ_author_name
;
Elcombe, M.M.;Kisi, E.H.;Hawkins, K.D.;White, T.J.;Goodman, 
P.;Matheson, S.
;
_cell_length_a                     5.4172(1)
_cell_length_b                     19.4169(4)
_cell_length_c                     5.4234(1)
_cell_angle_alpha                  90.
_cell_angle_beta                   90.
_cell_angle_gamma                  90.
_cell_volume                       570.46
_cell_formula_units_Z              4
_symmetry_space_group_name_H-M     'C c m 21'
_symmetry_Int_Tables_number        36
_refine_ls_R_factor_all            .013
loop_
_symmetry_equiv_pos_site_id
_symmetry_equiv_pos_as_xyz
  1	'-x, y, z+.5'
  2	'-x, -y, z+.5'
  3	'x, -y, z'
  4	'x, y, z'
  5	'-x+.5, y+.5, z+.5'
  6	'-x+.5, -y+.5, z+.5'
  7	'x+.5, -y+.5, z'
  8	'x+.5, y+.5, z'
loop_
_atom_type_symbol
_atom_type_oxidation_number
Ca2+	2
O2-	-2
Ti4+	4
loop_
_atom_site_label
_atom_site_type_symbol
_atom_site_symmetry_multiplicity
_atom_site_Wyckoff_symbol
_atom_site_fract_x
_atom_site_fract_y
_atom_site_fract_z
_atom_site_occupancy
_atom_site_attached_hydrogens
_atom_site_B_iso_or_equiv
Ca1 Ca2+ 4 a 0.2517(9) 0 0.0290(12) 1. 0 0.62(8) 
Ca2 Ca2+ 8 b 0.7410(5) 0.1876(2) 0.4747(8) 1. 0 0.74(6) 
Ti1 Ti4+ 8 b 0.2491(9) 0.0989(2) 0.5 1. 0 0.24(5) 
O1 O2- 4 a 0.8124(6) 0 -.0132(3) 1. 0 0.58(7) 
O2 O2- 8 b 0.6958(5) 0.1972(14) 0.0132(3) 1. 0 0.77(5) 
O3 O2- 8 b 0.6378(2) 0.0860(1) 0.2883(2) 1. 0 0.52(2) 
O4 O2- 8 b 0.0378(2) 0.1099(1) 0.2117(2) 1. 0 0.52(2) 

#End of data_63705-ICSD


