data_80606-ICSD
#?2014 by Fachinformationszentrum Karlsruhe, and the U.S. Secretary of 
#Commerce on behalf of the United States.  All rights reserved.
_database_code_ICSD                80606
_audit_creation_date               1997/05/13
_chemical_name_systematic
;
Tetrabarium Sodium Copper(III) Tetraoxide Bis(carbonate)
;
_chemical_formula_structural       'Ba4 Na Cu O4 (C O3)2'
_chemical_formula_sum              'C2 Ba4 Cu1 Na1 O10'
_publ_section_title
;
Synthesis and characterization of two new Cu(III) compounds: Ba4 Li 
Cu O4 (C O3)2 and Ba4 Na Cu O4 (C O3)2
;
loop_
_citation_id
_citation_journal_abbrev
_citation_year
_citation_journal_volume
_citation_page_first
_citation_page_last
_citation_journal_id_ASTM
primary 'Journal of Solid State Chemistry' 1991 95 270 274 JSSCBI
_publ_author_name                  'VerNooy, P.D.;Stacy, A.M.'
_cell_length_a                     5.8322(6)
_cell_length_b                     5.8322(6)
_cell_length_c                     15.3712(9)
_cell_angle_alpha                  90.
_cell_angle_beta                   90.
_cell_angle_gamma                  90.
_cell_volume                       522.84
_cell_formula_units_Z              2
_symmetry_space_group_name_H-M     'I -4 2 m'
_symmetry_Int_Tables_number        121
_refine_ls_R_factor_all            .03
loop_
_symmetry_equiv_pos_site_id
_symmetry_equiv_pos_as_xyz
  1	'-y, -x, z'
  2	'y, x, z'
  3	'y, -x, -z'
  4	'-y, x, -z'
  5	'x, -y, -z'
  6	'-x, y, -z'
  7	'-x, -y, z'
  8	'x, y, z'
  9	'-y+.5, -x+.5, z+.5'
 10	'y+.5, x+.5, z+.5'
 11	'y+.5, -x+.5, -z+.5'
 12	'-y+.5, x+.5, -z+.5'
 13	'x+.5, -y+.5, -z+.5'
 14	'-x+.5, y+.5, -z+.5'
 15	'-x+.5, -y+.5, z+.5'
 16	'x+.5, y+.5, z+.5'
loop_
_atom_type_symbol
_atom_type_oxidation_number
Ba2+	2
C4+	4
Cu3+	3
Na1+	1
O2-	-2
loop_
_atom_site_label
_atom_site_type_symbol
_atom_site_symmetry_multiplicity
_atom_site_Wyckoff_symbol
_atom_site_fract_x
_atom_site_fract_y
_atom_site_fract_z
_atom_site_occupancy
_atom_site_attached_hydrogens
_atom_site_B_iso_or_equiv
Ba1 Ba2+ 8 h 0 0.5 0.11703(2) 1. 0 0.545(6) 
Cu1 Cu3+ 2 b 0 0 0.5 1. 0 0.28(1) 
Na1 Na1+ 2 a 0 0 0 1. 0 1.03(5) 
C1 C4+ 4 e 0 0 0.2326(5) 1. 0 0.82(9) 
O1 O2- 8 i 0.2758(4) 0.2758(4) 0.0054(5) 1. 0 0.42(5) 
O2 O2- 4 e 0 0 0.1503(3) 1. 0 1.37(8) 
O3 O2- 8 i 0.8664(7) 0.1336(7) 0.2742(3) 1. 0 2.24(9) 

#End of data_80606-ICSD


