data_245791-ICSD
#?2014 by Fachinformationszentrum Karlsruhe, and the U.S. Secretary of 
#Commerce on behalf of the United States.  All rights reserved.
_database_code_ICSD                245791
_audit_creation_date               2008/08/01
_chemical_name_systematic          'Tetrasilver Iodide Phosphate'
_chemical_formula_structural       'Ag4 I (P O4)'
_chemical_formula_sum              'Ag4 I1 O4 P1'
_publ_section_title
;
Trapping phosphate anions inside the [Ag4 I]3+ framework: Structure, 
bonding, and properties of Ag4 I (P O4)
;
loop_
_citation_id
_citation_journal_abbrev
_citation_year
_citation_journal_volume
_citation_journal_issue
_citation_page_first
_citation_page_last
_citation_journal_id_ASTM
primary 'Journal of Solid State Chemistry' 2008 181 1 37 44 JSSCBI
_publ_author_name
;
Oleneva, O.S.;Kirsanova, M.A.;Shestimerova, T.A.;Abramchuk, 
N.S.;Davliatshin, D.I.;Bykov, M.A;Dikarev, E.V.;Shevelkov, A.V.
;
_cell_length_a                     9.0874(6)
_cell_length_b                     6.8809(5)
_cell_length_c                     11.1260(7)
_cell_angle_alpha                  90
_cell_angle_beta                   109.450(1)
_cell_angle_gamma                  90
_cell_volume                       656
_cell_formula_units_Z              4
_symmetry_space_group_name_H-M     'P 1 21/m 1'
_symmetry_Int_Tables_number        11
_refine_ls_R_factor_all            .026
loop_
_symmetry_equiv_pos_site_id
_symmetry_equiv_pos_as_xyz
  1	'x, -y+.5, z'
  2	'-x, -y, -z'
  3	'-x, y+.5, -z'
  4	'x, y, z'
loop_
_atom_type_symbol
_atom_type_oxidation_number
Ag1+	1
I1-	-1
O2-	-2
P5+	5
loop_
_atom_site_label
_atom_site_type_symbol
_atom_site_symmetry_multiplicity
_atom_site_Wyckoff_symbol
_atom_site_fract_x
_atom_site_fract_y
_atom_site_fract_z
_atom_site_occupancy
_atom_site_attached_hydrogens
_atom_site_U_iso_or_equiv
I1 I1- 2 e 0.90651(6) 0.25 0.97768(6) 1. 0 0.0153(1) 
I2 I1- 2 e 0.94716(7) 0.25 0.43046(6) 1. 0 0.0211(1) 
Ag1 Ag1+ 2 e 0.62218(8) 0.25 0.68815(6) 1. 0 0.0163(1) 
Ag2 Ag1+ 2 e 0.68250(8) 0.25 0.21247(7) 1. 0 0.0184(1) 
Ag3 Ag1+ 4 f 0.64827(6) 0.02601(7) 0.92785(5) 1. 0 0.0164(1) 
Ag4 Ag1+ 4 f 0.70976(6) 0.01090(7) 0.46145(5) 1. 0 0.0195(1) 
Ag5 Ag1+ 4 f 0.99640(6) 0.03115(8) 0.22093(5) 1. 0 0.0221(1) 
P1 P5+ 2 e 0.3653(2) 0.25 0.3234(2) 1. 0 0.0094(4) 
P2 P5+ 2 e 0.3077(2) 0.25 0.7976(1) 1. 0 0.0094(4) 
O1 O2- 2 e 0.3543(7) 0.25 0.6755(5) 1. 0 0.014(1) 
O2 O2- 2 e 0.5101(7) 0.25 0.4440(6) 1. 0 0.015(1) 
O3 O2- 2 e 0.4124(7) 0.25 0.2017(6) 1. 0 0.013(1) 
O4 O2- 2 e 0.1295(7) 0.25 0.7654(6) 1. 0 0.015(1) 
O5 O2- 4 f 0.7333(5) 0.9355(6) 0.6764(4) 1. 0 0.0139(8) 
O6 O2- 4 f 0.3776(5) 0.0657(6) 0.8756(4) 1. 0 0.0141(8) 

#End of data_245791-ICSD


