data_248267-ICSD
#?2014 by Fachinformationszentrum Karlsruhe, and the U.S. Secretary of 
#Commerce on behalf of the United States.  All rights reserved.
_database_code_ICSD                248267
_audit_creation_date               2011/02/01
_chemical_name_systematic          'Potassium(I) Amidotrihydroborate'
_chemical_formula_structural       'K (N H2 B H3)'
_chemical_formula_sum              'H5 B1 K1 N1'
_publ_section_title
;
Potassium(I) amidotrihydroborate: Structure and hydrogen release
;
loop_
_citation_id
_citation_journal_abbrev
_citation_year
_citation_journal_volume
_citation_journal_issue
_citation_page_first
_citation_page_last
_citation_journal_id_ASTM
primary 'Journal of the American Chemical Society' 2010 132 34 11836 11837 JACSAT
_publ_author_name
;
Diyabalanage, H.V.K.;Nakagawa, T.;Shrestha, R.P.;Semelsberger, 
T.A.;Davis, B.L.;Scott, B.L.;Burrell, A.K.;David, W.I.F.;Ryan, 
K.R.;Jones, M.O.;Edwards, P.P.
;
_cell_length_a                     9.349(5)
_cell_length_b                     8.209(5)
_cell_length_c                     17.192(10)
_cell_angle_alpha                  90.00
_cell_angle_beta                   90.00
_cell_angle_gamma                  90.00
_cell_volume                       1319.42
_cell_formula_units_Z              16
_symmetry_space_group_name_H-M     'P b c a'
_symmetry_Int_Tables_number        61
_refine_ls_R_factor_all            .0439
loop_
_symmetry_equiv_pos_site_id
_symmetry_equiv_pos_as_xyz
  1	'x+.5, y, -z+.5'
  2	'x, -y+.5, z+.5'
  3	'-x+.5, y+.5, z'
  4	'-x, -y, -z'
  5	'-x+.5, -y, z+.5'
  6	'-x, y+.5, -z+.5'
  7	'x+.5, -y+.5, -z'
  8	'x, y, z'
loop_
_atom_type_symbol
_atom_type_oxidation_number
B3+	3
H1-	-1
H1+	1
K1+	1
N3-	-3
loop_
_atom_site_label
_atom_site_type_symbol
_atom_site_symmetry_multiplicity
_atom_site_Wyckoff_symbol
_atom_site_fract_x
_atom_site_fract_y
_atom_site_fract_z
_atom_site_occupancy
_atom_site_attached_hydrogens
_atom_site_U_iso_or_equiv
K1 K1+ 8 c 0.35375(12) 0.13495(15) 0.60967(6) 1 0 0.0208(4) 
K2 K1+ 8 c 0.23827(11) 0.08076(15) 0.32612(6) 1 0 0.0169(4) 
N1 N3- 8 c 0.0933(5) 0.0118(6) 0.6809(2) 1 0 0.0207(10) 
N2 N3- 8 c 0.4155(5) -0.3101(6) 0.4699(3) 1 0 0.0201(10) 
B1 B3+ 8 c 0.0369(7) 0.1642(7) 0.7222(4) 1 0 0.0194(13) 
B2 B3+ 8 c 0.3181(7) -0.1602(7) 0.4719(3) 1 0 0.0181(13) 
H1 H1+ 8 c 0.058(8) 0.015(12) 0.634(6) 1 0 0.080 
H2 H1+ 8 c 0.057(10) -0.102(12) 0.700(5) 1 0 0.080 
H3 H1- 8 c 0.078(9) 0.167(11) 0.788(6) 1 0 0.080 
H4 H1- 8 c 0.079(8) 0.285(12) 0.693(5) 1 0 0.080 
H5 H1- 8 c -0.078(9) 0.174(10) 0.725(5) 1 0 0.080 
H6 H1+ 8 c 0.469(9) -0.280(11) 0.502(5) 1 0 0.080 
H7 H1+ 8 c 0.370(9) -0.397(13) 0.477(5) 1 0 0.080 
H8 H1- 8 c 0.215(8) -0.196(12) 0.428(5) 1 0 0.080 
H9 H1- 8 c 0.367(8) -0.042(12) 0.452(5) 1 0 0.080 
H10 H1- 8 c 0.270(8) -0.118(11) 0.532(5) 1 0 0.080 

loop_
_atom_site_aniso_label
_atom_site_aniso_type_symbol
_atom_site_aniso_U_11
_atom_site_aniso_U_22
_atom_site_aniso_U_33
_atom_site_aniso_U_12
_atom_site_aniso_U_13
_atom_site_aniso_U_23
K1 K1+ 0.0206(7) 0.0227(8) 0.0191(7) -0.0042(5) -0.0012(4) 0.0004(5)
K2 K1+ 0.0189(6) 0.0149(8) 0.0169(7) 0.0012(5) -0.0014(4) 0.0009(4)
N1 N3- 0.019(2) 0.023(3) 0.021(2) 0.000(2) -0.0011(17) -0.005(2)
N2 N3- 0.021(2) 0.020(3) 0.020(2) 0.0011(19) -0.0016(17) 0.002(2)
B1 B3+ 0.024(3) 0.015(4) 0.020(3) -0.001(2) -0.002(2) -0.001(2)
B2 B3+ 0.023(3) 0.018(4) 0.014(3) -0.006(2) -0.001(2) 0.000(2)
#End of data_248267-ICSD


