data_170816-ICSD
#?2014 by Fachinformationszentrum Karlsruhe, and the U.S. Secretary of 
#Commerce on behalf of the United States.  All rights reserved.
_database_code_ICSD                170816
_audit_creation_date               2006/04/01
_chemical_name_systematic          'Calcium Copper Germanate'
_chemical_formula_structural       'Ca Cu Ge2 O6'
_chemical_formula_sum              'Ca1 Cu1 Ge2 O6'
_chemical_name_mineral             Clinopyroxene
_publ_section_title
;
Crystal structure of the clinopyroxene-type compound Ca Cu Ge2 O6 
between 15 K and 700 K
;
loop_
_citation_id
_citation_journal_abbrev
_citation_year
_citation_journal_volume
_citation_page_first
_citation_page_last
_citation_journal_id_ASTM
primary 'Acta Crystallographica, Section B: Structural Science'
 2005 61 367 380 ASBSDK
_publ_author_name
;
Redhammer, G.J.;Tippelt, G.;Merz, M.;Roth, G.;Treutmann, W.;Amthauer, 
G.
;
_cell_length_a                     10.2130(12)
_cell_length_b                     9.2385(7)
_cell_length_c                     5.2359(6)
_cell_angle_alpha                  90
_cell_angle_beta                   105.870(12)
_cell_angle_gamma                  90
_cell_volume                       475.19
_cell_formula_units_Z              4
_symmetry_space_group_name_H-M     'P 1 21/c 1'
_symmetry_Int_Tables_number        14
_refine_ls_R_factor_all            .043
loop_
_symmetry_equiv_pos_site_id
_symmetry_equiv_pos_as_xyz
  1	'x, -y+.5, z+.5'
  2	'-x, -y, -z'
  3	'-x, y+.5, -z+.5'
  4	'x, y, z'
loop_
_atom_type_symbol
_atom_type_oxidation_number
Ca2+	2
Cu2+	2
Ge4+	4
O2-	-2
loop_
_atom_site_label
_atom_site_type_symbol
_atom_site_symmetry_multiplicity
_atom_site_Wyckoff_symbol
_atom_site_fract_x
_atom_site_fract_y
_atom_site_fract_z
_atom_site_occupancy
_atom_site_attached_hydrogens
_atom_site_U_iso_or_equiv
Ca1 Ca2+ 4 e 0.28122(16) 0.45209(17) 0.8037(3) 1 0 0.0155(4) 
Cu1 Cu2+ 4 e 0.22867(10) 0.66057(10) 0.25525(19) 1 0 0.0127(3) 
Ge1 Ge4+ 4 e 0.04836(8) 0.34917(9) 0.21064(16) 1 0 0.0089(2) 
Ge2 Ge4+ 4 e 0.48966(8) 0.35011(9) 0.39090(18) 1 0 0.0120(2) 
O1 O2- 4 e -0.1271(2) 0.3601(5) 0.1164(11) 1 0 0.0141(12) 
O2 O2- 4 e 0.6581(4) 0.3205(2) 0.3818(9) 1 0 0.0112(12) 
O3 O2- 4 e 0.1434(4) 0.4909(3) 0.3742(5) 1 0 0.0185(14) 
O4 O2- 4 e 0.4310(4) 0.5198(6) 0.2578(14) 1 0 0.0194(14) 
O5 O2- 4 e 0.1033(5) 0.1963(4) 0.4258(8) 1 0 0.0146(13) 
O6 O2- 4 e 0.4003(5) 0.2532(6) 0.5817(10) 1 0 0.0138(12) 

loop_
_atom_site_aniso_label
_atom_site_aniso_type_symbol
_atom_site_aniso_U_11
_atom_site_aniso_U_22
_atom_site_aniso_U_33
_atom_site_aniso_U_12
_atom_site_aniso_U_13
_atom_site_aniso_U_23
Ca1 Ca2+ 0.0164(8) 0.0148(7) 0.0144(9) 0.0018(7) 0.0031(7) 0.0022(7)
Cu1 Cu2+ 0.0139(5) 0.0120(4) 0.0096(5) -0.0026(4) -0.0010(4) 0.0003(4)
Ge1 Ge4+ 0.0079(4) 0.0090(4) 0.0089(4) -0.0010(3) 0.0006(3) -0.0006(3)
Ge2 Ge4+ 0.0102(4) 0.0096(4) 0.0171(5) 0.0013(3) 0.0051(3) 0.0031(3)
O1 O2- 0.010(2) 0.019(3) 0.012(3) 0.001(2) 0.001(2) -0.002(2)
O2 O2- 0.011(3) 0.010(3) 0.012(3) -0.0002(19) 0.001(2) -0.002(2)
O3 O2- 0.024(3) 0.012(3) 0.015(3) -0.007(2) -0.004(3) 0.001(2)
O4 O2- 0.028(3) 0.010(3) 0.020(4) 0.004(2) 0.005(3) 0.004(2)
O5 O2- 0.017(3) 0.018(3) 0.011(3) 0.005(2) 0.009(3) 0.004(2)
O6 O2- 0.011(3) 0.018(3) 0.012(3) -0.006(2) 0.004(2) 0.002(2)
#End of data_170816-ICSD


