data_635295-ICSD
#?2014 by Fachinformationszentrum Karlsruhe, and the U.S. Secretary of 
#Commerce on behalf of the United States.  All rights reserved.
_database_code_ICSD                635295
_audit_creation_date               2013/08/01
_chemical_name_systematic          'Zinc Gallium Sulfide (1/2/4)'
_chemical_formula_structural       'Zn Ga2 S4'
_chemical_formula_sum              'Ga2 S4 Zn1'
_publ_section_title
;
Structural studies in the systems Co S - Cr2 S3 - Ga2 S3 and M Ga2 S4 
- M Cr2 S4 (M = Zn, Cd, Hg)
;
loop_
_citation_id
_citation_journal_abbrev
_citation_year
_citation_journal_volume
_citation_page_first
_citation_page_last
_citation_journal_id_ASTM
primary 'Journal of Solid State Chemistry' 1988 72 324 329 JSSCBI
_publ_author_name
;
Haeuseler, H.;Kwarteng Acheampong, W.
;
_cell_length_a                     5.291(2)
_cell_length_b                     5.291(2)
_cell_length_c                     10.383(8)
_cell_angle_alpha                  90.0
_cell_angle_beta                   90.0
_cell_angle_gamma                  90.0
_cell_volume                       290.67
_cell_formula_units_Z              2
_symmetry_space_group_name_H-M     'I -4'
_symmetry_Int_Tables_number        82
loop_
_symmetry_equiv_pos_site_id
_symmetry_equiv_pos_as_xyz
  1	'-y, x, -z'
  2	'y, -x, -z'
  3	'-x, -y, z'
  4	'x, y, z'
  5	'-y+.5, x+.5, -z+.5'
  6	'y+.5, -x+.5, -z+.5'
  7	'-x+.5, -y+.5, z+.5'
  8	'x+.5, y+.5, z+.5'
loop_
_atom_type_symbol
_atom_type_oxidation_number
Ga3+	3
S2-	-2
Zn2+	2
loop_
_atom_site_label
_atom_site_type_symbol
_atom_site_symmetry_multiplicity
_atom_site_Wyckoff_symbol
_atom_site_fract_x
_atom_site_fract_y
_atom_site_fract_z
_atom_site_occupancy
_atom_site_attached_hydrogens
Zn1 Zn2+ 2 a 0 0 0 1. 0 
Ga1 Ga3+ 2 b 0 0 0.5 1. 0 
Ga2 Ga3+ 2 c 0 0.5 0.25 1. 0 
S1 S2- 8 g 0.266 0.277 0.135 1. 0 

#End of data_635295-ICSD


