data_411050-ICSD
#?2014 by Fachinformationszentrum Karlsruhe, and the U.S. Secretary of 
#Commerce on behalf of the United States.  All rights reserved.
_database_code_ICSD                411050
_audit_creation_date               2002/04/01
_chemical_name_systematic          'Trisodium Hexachlorotitanate(III)'
_chemical_formula_structural       'Na3 (Ti Cl6)'
_chemical_formula_sum              'Cl6 Na3 Ti1'
_publ_section_title
;
Ternaere Halogenide vom Typ A3 M X6. IX Kristallstrukturen von Na3 Ti 
Cl6 und K3 Ti Cl6
;
loop_
_citation_id
_citation_journal_abbrev
_citation_year
_citation_journal_volume
_citation_page_first
_citation_page_last
_citation_journal_id_ASTM
primary 'Zeitschrift fuer Anorganische und Allgemeine Chemie (1950) (DE)'
 2000 626 822 824 ZAACAB
_publ_author_name                  'Hinz, D.;Gloger, T.;Meyer, G.'
_cell_length_a                     6.6802(8)
_cell_length_b                     7.0913(6)
_cell_length_c                     9.8138(12)
_cell_angle_alpha                  90.
_cell_angle_beta                   90.31(2)
_cell_angle_gamma                  90.
_cell_volume                       464.89
_cell_formula_units_Z              2
_symmetry_space_group_name_H-M     'P 1 21/n 1'
_symmetry_Int_Tables_number        14
_refine_ls_R_factor_all            .0362
loop_
_symmetry_equiv_pos_site_id
_symmetry_equiv_pos_as_xyz
  1	'-x+.5, y+.5, -z+.5'
  2	'-x, -y, -z'
  3	'x+.5, -y+.5, z+.5'
  4	'x, y, z'
loop_
_atom_type_symbol
_atom_type_oxidation_number
Cl1-	-1
Na1+	1
Ti3+	3
loop_
_atom_site_label
_atom_site_type_symbol
_atom_site_symmetry_multiplicity
_atom_site_Wyckoff_symbol
_atom_site_fract_x
_atom_site_fract_y
_atom_site_fract_z
_atom_site_occupancy
_atom_site_attached_hydrogens
Ti1 Ti3+ 2 a 0 0 0 1. 0 
Cl1 Cl1- 4 e 0.12816(6) 0.04957(6) 0.23039(4) 1. 0 
Cl2 Cl1- 4 e 0.70133(6) 0.17474(6) 0.06015(4) 1. 0 
Cl3 Cl1- 4 e 0.16136(6) 0.29132(6) 0.93057(4) 1. 0 
Na1 Na1+ 2 b 0.5 0.5 0 1. 0 
Na2 Na1+ 4 e 0.97443(12) 0.42021(12) 0.25398(9) 1. 0 

loop_
_atom_site_aniso_label
_atom_site_aniso_type_symbol
_atom_site_aniso_U_11
_atom_site_aniso_U_22
_atom_site_aniso_U_33
_atom_site_aniso_U_12
_atom_site_aniso_U_13
_atom_site_aniso_U_23
Ti1 Ti3+ 0.0224(2) 0.0194(2) 0.0202(2) 0.00016(13) 0.00071(13) -.00012(12)
Cl1 Cl1- 0.0368(2) 0.0360(2) 0.0229(2) 0.0033(2) -.00435(14) -.00259(14)
Cl2 Cl1- 0.0302(2) 0.0321(2) 0.0382(2) 0.00922(15) 0.0061(2) 0.0029(2)
Cl3 Cl1- 0.0347(2) 0.0268(2) 0.0406(2) -.00752(15) -.0019(2) 0.00732(15)
Na1 Na1+ 0.0362(5) 0.0303(5) 0.0350(5) 0.0031(4) -.0032(4) -.0033(4)
Na2 Na1+ 0.0461(5) 0.0374(4) 0.0639(5) 0.0051(3) 0.0024(4) -.0009(4)
#End of data_411050-ICSD


