data_156625-ICSD
#?2014 by Fachinformationszentrum Karlsruhe, and the U.S. Secretary of 
#Commerce on behalf of the United States.  All rights reserved.
_database_code_ICSD                156625
_audit_creation_date               2007/08/01
_chemical_name_systematic
;
Pentacalcium Bis(silicate) Carbonate
;
_chemical_formula_structural       'Ca5 (Si O4)2 (C O3)'
_chemical_formula_sum              'C1 Ca5 O11 Si2'
_chemical_name_mineral             Spurrite
_publ_section_title
;
The structure of spurrite, tilleyite and scawtite, and relationships 
to other silicate-carbonate minerals
;
loop_
_citation_id
_citation_journal_abbrev
_citation_year
_citation_journal_volume
_citation_page_first
_citation_page_last
_citation_journal_id_ASTM
primary 'Canadian Mineralogist' 2005 43 1489 1500 CAMIA6
_publ_author_name                  'Grice, J.D.'
_cell_length_a                     10.484(1)
_cell_length_b                     6.712(1)
_cell_length_c                     14.156(2)
_cell_angle_alpha                  90
_cell_angle_beta                   101.27(1)
_cell_angle_gamma                  90
_cell_volume                       976.93
_cell_formula_units_Z              4
_symmetry_space_group_name_H-M     'P 1 21/a 1'
_symmetry_Int_Tables_number        14
_refine_ls_R_factor_all            .036
loop_
_symmetry_equiv_pos_site_id
_symmetry_equiv_pos_as_xyz
  1	'x+.5, -y+.5, z'
  2	'-x, -y, -z'
  3	'-x+.5, y+.5, -z'
  4	'x, y, z'
loop_
_atom_type_symbol
_atom_type_oxidation_number
C4+	4
Ca2+	2
O2-	-2
Si4+	4
loop_
_atom_site_label
_atom_site_type_symbol
_atom_site_symmetry_multiplicity
_atom_site_Wyckoff_symbol
_atom_site_fract_x
_atom_site_fract_y
_atom_site_fract_z
_atom_site_occupancy
_atom_site_attached_hydrogens
_atom_site_U_iso_or_equiv
Ca1 Ca2+ 4 e 0.14005(5) 0.66295(8) 0.07182(4) 1. 0 0.0101(1) 
Ca2 Ca2+ 4 e 0.03225(5) 0.24170(8) 0.61152(4) 1. 0 0.0114(1) 
Ca3 Ca2+ 4 e 0.23999(5) 0.05991(8) 0.45584(4) 1. 0 0.0092(1) 
Ca4 Ca2+ 4 e 0.04556(5) 0.99104(7) 0.83065(4) 1. 0 0.0086(1) 
Ca5 Ca2+ 4 e 0.13164(5) 0.50700(7) 0.82619(4) 1. 0 0.0084(1) 
Si1 Si4+ 4 e 0.13420(6) 0.2241(1) 0.05667(5) 1. 0 0.0065(1) 
Si2 Si4+ 4 e 0.02636(66) 0.7494(1) 0.60459(5) 1. 0 0.0062(1) 
C1 C4+ 4 e 0.1891(2) 0.6990(4) 0.2804(2) 1. 0 0.0090(4) 
O1 O2- 4 e 0.1235(2) 0.24165(3) 0.9404(1) 1. 0 0.0107(3) 
O2 O2- 4 e 0.1401(2) 0.9973(3) 0.0970(1) 1. 0 0.0097(3) 
O3 O2- 4 e 0.0079(2) 0.3372(3) 0.0836(1) 1. 0 0.0111(4) 
O4 O2- 4 e 0.2671(2) 0.3326(3) 0.1078(1) 1. 0 0.0142(4) 
O5 O2- 4 e 0.8843(2) 0.1530(3) 0.4662(1) 1. 0 0.0106(4) 
O6 O2- 4 e 0.8907(2) 0.4305(3) 0.3346(1) 1. 0 0.0105(4) 
O7 O2- 4 e 0.0227(2) 0.0774(3) 0.3300(1) 1. 0 0.0109(4) 
O8 O2- 4 e 0.1006(2) 0.3383(3) 0.4690(1) 1. 0 0.0101(4) 
O9 O2- 4 e 0.2858(2) 0.6966(3) 0.2354(1) 1. 0 0.0111(4) 
O10 O2- 4 e 0.0713(2) 0.6899(3) 0.2304(1) 1. 0 0.0113(4) 
O11 O2- 4 e 0.2088(2) 0.7183(3) 0.3710(1) 1. 0 0.0135(4) 

loop_
_atom_site_aniso_label
_atom_site_aniso_type_symbol
_atom_site_aniso_U_11
_atom_site_aniso_U_22
_atom_site_aniso_U_33
_atom_site_aniso_U_12
_atom_site_aniso_U_13
_atom_site_aniso_U_23
Ca1 Ca2+ 0.0090(2) 0.0065(2) 0.0140(2) 0.0001(2) -0.0001(2) -0.0014(2)
Ca2 Ca2+ 0.0109(2) 0.0121(2) 0.0107(2) -0.0050(2) 0.0006(2) 0.0004(2)
Ca3 Ca2+ 0.0058(2) 0.0060(2) 0.0159(2) 0.0001(2) 0.0021(2) 0.0002(2)
Ca4 Ca2+ 0.0068(2) 0.0067(2) 0.0119(2) 0.0009(2) 0.0009(2) -0.0002(2)
Ca5 Ca2+ 0.0069(2) 0.0063(2) 0.0116(2) 0.0005(2) 0.0011(2) -0.0005(2)
Si1 Si4+ 0.0047(3) 0.0044(3) 0.0100(3) 0.000(2) 0.0005(9) 0.0001(2)
Si2 Si4+ 0.0049(3) 0.0043(3) 0.0092(3) 0.0003(2) 0.0005(2) 0.0000(2)
C1 C4+ 0.0090(2) 0.0065(2) 0.0140(2) 0.0001(2) -0.0001(2) -0.0014(2)
O1 O2- 0.0133(8) 0.0078(8) 0.0111(8) -0.0005(7) 0.0022(6) 0.0001(6)
O2 O2- 0.0093(8) 0.0059(8) 0.0141(8) 0.0000(6) 0.0031(7) 0.0010(6)
O3 O2- 0.0093(8) 0.0094(8) 0.0152(8) 0.0027(7) 0.0035(6) -0.0008(7)
O4 O2- 0.0079(8) 0.0118(9) 0.0208(9) -0.0043(7) -0.0019(7) 0.0007(7)
O5 O2- 0.0068(8) 0.0108(9) 0.0143(8) -0.0002(7) 0.0024(6) 0.0031(7)
O6 O2- 0.0102(8) 0.0074(8) 0.0132(8) 0.0017(7) 0.0008(6) 0.0028(7)
O7 O2- 0.0111(8) 0.0074(8) 0.0142(8) 0.0012(7) 0.0025(7) -0.0024(7)
O8 O2- 0.0067(8) 0.0102(9) 0.0130(8) -0.0011(7) 0.0010(6) -0.0020(7)
O9 O2- 0.0082(8) 0.0104(8) 0.0149(8) -0.0001(7) 0.0030(6) -0.0002(7)
O10 O2- 0.0062(8) 0.0110(9) 0.0154(9) -0.0003(7) -0.0012(7) 0.0005(7)
O11 O2- 0.0141(9) 0.0137(9) 0.0127(8) 0.0002(8) 0.0023(7) -0.0006(7)
#End of data_156625-ICSD


