data_87958-ICSD
#?2014 by Fachinformationszentrum Karlsruhe, and the U.S. Secretary of 
#Commerce on behalf of the United States.  All rights reserved.
_database_code_ICSD                87958
_audit_creation_date               2001/07/16
_chemical_name_systematic
;
Dipotassium Iron Bis(sulfate(VI)) Dihydrate - Ht
;
_chemical_formula_structural       'K2 Fe (S O4)2 (H2 O)2'
_chemical_formula_sum              'H4 Fe1 K2 O10 S2'
_publ_section_title
;
Phase transition in K2 Fe (S O4)2 . 2(H2 O)
;
loop_
_citation_id
_citation_journal_abbrev
_citation_year
_citation_journal_volume
_citation_page_first
_citation_page_last
_citation_journal_id_ASTM
primary Ferroelectrics 1999 229 109 114 FEROA8
_publ_author_name                  'Ishigami, H.;Sumita, M.;Sato, S.'
_cell_length_a                     7.296(2)
_cell_length_b                     5.377(2)
_cell_length_c                     6.567(2)
_cell_angle_alpha                  107.99(2)
_cell_angle_beta                   110.13(2)
_cell_angle_gamma                  94.59(2)
_cell_volume                       225
_cell_formula_units_Z              1
_symmetry_space_group_name_H-M     'P -1'
_symmetry_Int_Tables_number        2
_refine_ls_R_factor_all            .034
loop_
_symmetry_equiv_pos_site_id
_symmetry_equiv_pos_as_xyz
  1	'-x, -y, -z'
  2	'x, y, z'
loop_
_atom_type_symbol
_atom_type_oxidation_number
Fe2+	2
H1+	1
K1+	1
O2-	-2
S6+	6
loop_
_atom_site_label
_atom_site_type_symbol
_atom_site_symmetry_multiplicity
_atom_site_Wyckoff_symbol
_atom_site_fract_x
_atom_site_fract_y
_atom_site_fract_z
_atom_site_occupancy
_atom_site_attached_hydrogens
_atom_site_B_iso_or_equiv
Fe1 Fe2+ 1 h 0.5 0.5 0.5 1. 0 1.384(7) 
K1 K1+ 2 i 0.24321(6) 0.19502(9) 0.82003(7) 1. 0 2.592(9) 
S1 S6+ 2 i 0.72303(5) 0.14916(6) 0.81236(5) 1. 0 1.377(8) 
O1 O2- 2 i 0.5862(2) 0.8962(2) 0.7572(2) 1. 0 1.92(2) 
O2 O2- 2 i 0.8557(3) 0.2450(3) 0.0577(2) 1. 0 2.72(2) 
O3 O2- 2 i 0.8342(2) 0.1061(3) 0.6592(3) 1. 0 2.41(2) 
O4 O2- 2 i 0.5985(2) 0.3505(2) 0.7731(2) 1. 0 1.73(2) 
O5 O2- 2 i 0.2048 0.4610(3) 0.4961(2) 1. 0 2.26(2) 
H1 H1+ 2 i 0.134 0.286 0.372 1. 0 3.3(2) 
H2 H1+ 2 i 0.173 0.579 0.441 1. 0 3.3(2) 

#End of data_87958-ICSD


