data_15928-ICSD
#?2014 by Fachinformationszentrum Karlsruhe, and the U.S. Secretary of 
#Commerce on behalf of the United States.  All rights reserved.
_database_code_ICSD                15928
_audit_creation_date               1980/01/01
_audit_update_record               2012/08/01
_chemical_name_systematic
;
Pentasodium Triiron(III) Fluoride - Gamma
;
_chemical_formula_structural       'Na5 Fe3 F14'
_chemical_formula_sum              'F14 Fe3 Na5'
_publ_section_title
;
Etude cristallographique et par effet moessbauer du fluorure 
ferrimagnetique Na5 Fe3 F14-gamma
;
loop_
_citation_id
_citation_journal_abbrev
_citation_year
_citation_journal_volume
_citation_page_first
_citation_page_last
_citation_journal_id_ASTM
primary 'Journal of Solid State Chemistry' 1976 17 291 298 JSSCBI
2 'Phase Transition' 1992 38 127 220 PHTRDP
_publ_author_name
;
Vlasse, M.;Menil, F.;Moriliere, C.;Dance, J.M.;Tressaud, A.;Portier, 
J.
;
_cell_length_a                     7.345(7)
_cell_length_b                     7.345
_cell_length_c                     10.400(7)
_cell_angle_alpha                  90.
_cell_angle_beta                   90.
_cell_angle_gamma                  90.
_cell_volume                       561.07
_cell_formula_units_Z              2
_symmetry_space_group_name_H-M     'P 42 21 2'
_symmetry_Int_Tables_number        94
_refine_ls_R_factor_all            .091
loop_
_symmetry_equiv_pos_site_id
_symmetry_equiv_pos_as_xyz
  1	'-y+.5, x+.5, z+.5'
  2	'y+.5, -x+.5, z+.5'
  3	'-y, -x, -z'
  4	'y, x, -z'
  5	'x+.5, -y+.5, -z+.5'
  6	'-x+.5, y+.5, -z+.5'
  7	'-x, -y, z'
  8	'x, y, z'
loop_
_atom_type_symbol
_atom_type_oxidation_number
F1-	-1
Fe3+	3
Na1+	1
loop_
_atom_site_label
_atom_site_type_symbol
_atom_site_symmetry_multiplicity
_atom_site_Wyckoff_symbol
_atom_site_fract_x
_atom_site_fract_y
_atom_site_fract_z
_atom_site_occupancy
_atom_site_attached_hydrogens
Fe1 Fe3+ 4 d 0 0.5 0.4984(4) 1. 0 
Fe2 Fe3+ 2 a 0 0 0 1. 0 
Na1 Na1+ 8 g 0.2652(9) 0.7312(12) 0.2597(4) 1. 0 
Na2 Na1+ 2 b 0 0 0.5 1. 0 
F1 F1- 8 g 0.9976(24) 0.2914(10) 0.3719(9) 1. 0 
F2 F1- 8 g 0.3425(10) 0.9713(28) 0.3758(8) 1. 0 
F3 F1- 8 g 0.2500(11) 0.5400(13) 0.4552(11) 1. 0 
F4 F1- 4 c 0 0 0.1775(12) 1. 0 

#End of data_15928-ICSD


