data_25384-ICSD
#?2014 by Fachinformationszentrum Karlsruhe, and the U.S. Secretary of 
#Commerce on behalf of the United States.  All rights reserved.
_database_code_ICSD                25384
_audit_creation_date               1980/01/01
_audit_update_record               1988/01/22
_chemical_name_systematic
;
Lithium Vanadium Oxide (1/2/5) - Gamma
;
_chemical_formula_structural       'Li V2 O5'
_chemical_formula_sum              'Li1 O5 V2'
_publ_section_title
;
Les bronzes Lix V2 O5. Structure de la phase beta' et affinement de 
la structure de la phase gamma
;
loop_
_citation_id
_citation_journal_abbrev
_citation_year
_citation_journal_volume
_citation_page_first
_citation_page_last
_citation_journal_id_ASTM
primary 'Revue de Chimie Minerale' 1971 8 509 522 RVCMA8
_publ_author_name
;
Galy, J.;Darriet, J.;Hagenmuller, P.
;
_cell_length_a                     9.702(5)
_cell_length_b                     3.607(2)
_cell_length_c                     10.664(6)
_cell_angle_alpha                  90.
_cell_angle_beta                   90.
_cell_angle_gamma                  90.
_cell_volume                       373.19
_cell_formula_units_Z              4
_symmetry_space_group_name_H-M     'P n m a'
_symmetry_Int_Tables_number        62
_refine_ls_R_factor_all            .068
loop_
_symmetry_equiv_pos_site_id
_symmetry_equiv_pos_as_xyz
  1	'x+.5, y, -z+.5'
  2	'x, -y+.5, z'
  3	'-x+.5, y+.5, z+.5'
  4	'-x, -y, -z'
  5	'-x+.5, -y, z+.5'
  6	'-x, y+.5, -z'
  7	'x+.5, -y+.5, -z+.5'
  8	'x, y, z'
loop_
_atom_type_symbol
_atom_type_oxidation_number
Li1+	1
O2-	-2
V4.5+	4.5
loop_
_atom_site_label
_atom_site_type_symbol
_atom_site_symmetry_multiplicity
_atom_site_Wyckoff_symbol
_atom_site_fract_x
_atom_site_fract_y
_atom_site_fract_z
_atom_site_occupancy
_atom_site_attached_hydrogens
_atom_site_B_iso_or_equiv
V1 V4.5+ 4 c 0.3762(5) 0.25 0.4991(5) 1. 0 0.84 
V2 V4.5+ 4 c 0.0661(5) 0.25 0.5995(5) 1. 0 0.84 
O1 O2- 4 c 0.241(2) 0.25 0.633(2) 1. 0 1. 
O2 O2- 4 c 0.483(2) 0.25 0.770(2) 1. 0 1.6 
O3 O2- 4 c 0.282(2) 0.25 0.376(2) 1. 0 1.7 
O4 O2- 4 c 0.574(2) 0.25 0.451(2) 1. 0 1.2 
O5 O2- 4 c 0.440(2) 0.25 0.046(2) 1. 0 1.5 
Li1 Li1+ 4 c 0.163(6) 0.25 0.225(5) 1. 0 1.5 

#End of data_25384-ICSD


