data_172856-ICSD
#?2014 by Fachinformationszentrum Karlsruhe, and the U.S. Secretary of 
#Commerce on behalf of the United States.  All rights reserved.
_database_code_ICSD                172856
_audit_creation_date               2008/02/01
_chemical_name_systematic
;
Cesium Aluminium Bis(dihydrogen Arsenate(V)) Hydrogen Arsenate(V)
;
_chemical_formula_structural       'Cs Al (H2 As O4)2 (H As O4)'
_chemical_formula_sum              'H5 Al1 As3 Cs1 O12'
_publ_section_title
;
Cs Al (H2 As O4)2 (H As O4): a new monoclinic protonated arsenate 
with decorated kroehnkite-like chains
;
loop_
_citation_id
_citation_journal_abbrev
_citation_year
_citation_journal_volume
_citation_journal_issue
_citation_page_first
_citation_page_last
_citation_journal_id_ASTM
primary 'Acta Crystallographica, Section C: Crystal Structure Communications'
 2007 63 3 i17 i20 ACSCEE
_publ_author_name                  'Schwendtner, K.;Kolitsch, U.'
_cell_length_a                     4.6340(10)
_cell_length_b                     14.672(3)
_cell_length_c                     15.153(3)
_cell_angle_alpha                  90.00
_cell_angle_beta                   93.11(3)
_cell_angle_gamma                  90.00
_cell_volume                       1028.74
_cell_formula_units_Z              4
_symmetry_space_group_name_H-M     'C 1 c 1'
_symmetry_Int_Tables_number        9
_refine_ls_R_factor_all            .027
loop_
_symmetry_equiv_pos_site_id
_symmetry_equiv_pos_as_xyz
  1	'x, -y, z+.5'
  2	'x, y, z'
  3	'x+.5, -y+.5, z+.5'
  4	'x+.5, y+.5, z'
loop_
_atom_type_symbol
_atom_type_oxidation_number
Al3+	3
As5+	5
Cs1+	1
H1+	1
O2-	-2
loop_
_atom_site_label
_atom_site_type_symbol
_atom_site_symmetry_multiplicity
_atom_site_Wyckoff_symbol
_atom_site_fract_x
_atom_site_fract_y
_atom_site_fract_z
_atom_site_occupancy
_atom_site_attached_hydrogens
_atom_site_U_iso_or_equiv
Cs1 Cs1+ 4 a -0.00002(7) -0.009538(17 0.00001(2) 1 0 0.02820(7) 
Al1 Al3+ 4 a -0.0307(3) 0.14086(6) 0.24624(8) 1 0 0.00818(13) 
As1 As5+ 4 a 0.49219(5) 0.21759(2) 0.36942(2) 1 0 0.00885(6) 
As2 As5+ 4 a 0.47210(7) -0.00622(2) 0.24955(3) 1 0 0.00921(6) 
As3 As5+ 4 a 0.44465(5) 0.20973(2) 0.11976(2) 1 0 0.00878(6) 
O1 O2- 4 a 0.7498(5) 0.14258(16) 0.34791(16) 1 0 0.0107(4) 
O2 O2- 4 a 0.2138(5) 0.23278(16) 0.29550(17) 1 0 0.0113(4) 
O3 O2- 4 a 0.3831(6) 0.1974(2) 0.47177(17) 1 0 0.0185(5) 
O4 O2- 4 a 0.6303(6) 0.32747(18) 0.3707(2) 1 0 0.0224(6) 
H1 H1+ 4 a 0.7859 0.3283 0.3992 1 0 0.034 
O5 O2- 4 a 0.7187(5) 0.04969(17) 0.19569(17) 1 0 0.0111(4) 
O6 O2- 4 a 0.2129(5) 0.04928(17) 0.30031(17) 1 0 0.0116(4) 
O7 O2- 4 a 0.3175(7) -0.07964(19) 0.1726(2) 1 0 0.0198(5) 
H2 H1+ 4 a 0.2986 -0.1300 0.1951 1 0 0.030 
O8 O2- 4 a 0.6294(6) -0.0709(2) 0.3336(2) 1 0 0.0194(5) 
H3 H1+ 4 a 0.7681 -0.0985 0.3154 1 0 0.029 
O9 O2- 4 a 0.1886(5) 0.13530(17) 0.14408(17) 1 0 0.0120(4) 
O10 O2- 4 a 0.7244(5) 0.23282(16) 0.19080(16) 1 0 0.0108(4) 
O11 O2- 4 a 0.5659(6) 0.1710(2) 0.02259(19) 1 0 0.0202(5) 
H4 H1+ 4 a 0.6817 0.2076 0.0039 1 0 0.030 
O12 O2- 4 a 0.2957(6) 0.31461(18) 0.0985(2) 1 0 0.0179(5) 
H5 H1+ 4 a 0.1507 0.3090 0.0654 1 0 0.027 

loop_
_atom_site_aniso_label
_atom_site_aniso_type_symbol
_atom_site_aniso_U_11
_atom_site_aniso_U_22
_atom_site_aniso_U_33
_atom_site_aniso_U_12
_atom_site_aniso_U_13
_atom_site_aniso_U_23
Cs1 Cs1+ 0.04127(16) 0.02128(11) 0.02123(10) -0.00028(11) -0.00575(9) 
-0.00348(9)
Al1 Al3+ 0.0062(3) 0.0095(3) 0.0089(3) 0.0002(3) 0.0004(2) 0.0002(3)
As1 As5+ 0.00701(13) 0.01019(12) 0.00932(14) 0.00092(9) 0.00010(10) 
-0.00164(9)
As2 As5+ 0.00697(11) 0.00857(11) 0.01210(12) 0.00053(11) 0.00069(9) 
0.00054(11)
As3 As5+ 0.00777(13) 0.01035(12) 0.00817(14) -0.00140(9) -0.00011(10) 
0.00064(10)
O1 O2- 0.0079(9) 0.0130(10) 0.0115(10) 0.0035(7) 0.0030(8) 0.0027(8)
O2 O2- 0.0081(10) 0.0109(9) 0.0145(11) 0.0001(7) -0.0027(8) 0.0007(8)
O3 O2- 0.0179(12) 0.0294(13) 0.0082(10) 0.0044(10) 0.0019(9) -0.0011(9)
O4 O2- 0.0170(12) 0.0117(11) 0.0379(17) -0.0040(9) -0.0035(11) -0.0045(10)
O5 O2- 0.0079(9) 0.0126(9) 0.0132(10) -0.0027(7) 0.0023(8) -0.0005(8)
O6 O2- 0.0095(10) 0.0127(10) 0.0127(10) 0.0031(7) 0.0027(8) 0.0020(8)
O7 O2- 0.0215(13) 0.0128(10) 0.0245(13) -0.0054(9) -0.0044(10) -0.0053(9)
O8 O2- 0.0162(12) 0.0189(12) 0.0228(13) 0.0060(9) 0.0000(10) 0.0089(10)
O9 O2- 0.0077(10) 0.0155(10) 0.0127(11) -0.0032(7) 0.0018(8) -0.0002(8)
O10 O2- 0.0080(10) 0.0116(9) 0.0123(10) -0.0013(7) -0.0037(8) 0.0019(8)
O11 O2- 0.0191(12) 0.0285(13) 0.0138(11) -0.0085(10) 0.0078(9) -0.0047(10)
O12 O2- 0.0167(12) 0.0126(10) 0.0236(13) 0.0010(8) -0.0072(9) 0.0056(9)
#End of data_172856-ICSD


