data_262943-ICSD
#?2014 by Fachinformationszentrum Karlsruhe, and the U.S. Secretary of 
#Commerce on behalf of the United States.  All rights reserved.
_database_code_ICSD                262943
_audit_creation_date               2013/02/01
_chemical_name_systematic
;
Dilithium Disodium Nickel(II) Cyclohexaphosphate Dodecahydrate
;
_chemical_formula_structural       'Li2 Na2 Ni P6 O18 (H2 O)12'
_chemical_formula_sum              'H24 Li2 Na2 Ni1 O30 P6'
_publ_section_title
;
Dilithium disodium nickel(II) cyclohexaphosphate dodecahydrate, Li2 
Na2 Ni P6 O18 * 12 H2 O
;
loop_
_citation_id
_citation_journal_abbrev
_citation_year
_citation_journal_volume
_citation_journal_issue
_citation_page_first
_citation_page_last
_citation_journal_id_ASTM
primary 'Acta Crystallographica, Section E. Structure Reports Online'
 2012 68 8 i62 i63 ACSEBH
_publ_author_name
;
Abid, S.;Al-Deyab, S.S.;Rzaigui, M.
;
_cell_length_a                     17.728(9)
_cell_length_b                     10.213(2)
_cell_length_c                     14.801(7)
_cell_angle_alpha                  90.00
_cell_angle_beta                   112.04(4)
_cell_angle_gamma                  90.00
_cell_volume                       2483.98
_cell_formula_units_Z              4
_symmetry_space_group_name_H-M     'C 1 2/c 1'
_symmetry_Int_Tables_number        15
_refine_ls_R_factor_all            .0442
loop_
_symmetry_equiv_pos_site_id
_symmetry_equiv_pos_as_xyz
  1	'x, -y, z+.5'
  2	'-x, -y, -z'
  3	'-x, y, -z+.5'
  4	'x, y, z'
  5	'x+.5, -y+.5, z+.5'
  6	'-x+.5, -y+.5, -z'
  7	'-x+.5, y+.5, -z+.5'
  8	'x+.5, y+.5, z'
loop_
_atom_type_symbol
_atom_type_oxidation_number
H1+	1
Li1+	1
Na1+	1
Ni2+	2
O2-	-2
P5+	5
loop_
_atom_site_label
_atom_site_type_symbol
_atom_site_symmetry_multiplicity
_atom_site_Wyckoff_symbol
_atom_site_fract_x
_atom_site_fract_y
_atom_site_fract_z
_atom_site_occupancy
_atom_site_attached_hydrogens
_atom_site_U_iso_or_equiv
Na1 Na1+ 8 f 0.38942(6) 0.74638(9) 0.40089(7) 1 0 0.02302(18) 
Li1 Li1+ 8 f 0.2602(3) 0.4883(4) 0.2527(3) 1 0 0.0258(8) 
O1 O2- 8 f 0.28521(9) 0.47433(15) 0.13696(11) 1 0 0.0182(3) 
O2 O2- 8 f 0.16879(9) 0.61570(15) 0.04655(11) 1 0 0.0209(3) 
O3 O2- 8 f 0.14882(10) 0.42811(17) 0.22717(13) 1 0 0.0249(3) 
H1 H1+ 8 f 0.1134 0.4875 0.2021 1 0 0.030 
H2 H1+ 8 f 0.1389 0.4015 0.2772 1 0 0.030 
O4 O2- 8 f 0.25138(10) 0.67633(16) 0.27740(13) 1 0 0.0260(3) 
H3 H1+ 8 f 0.2134 0.6824 0.2962 1 0 0.031 
H4 H1+ 8 f 0.2414 0.7291 0.2287 1 0 0.031 
O5 O2- 8 f 0.42660(15) 0.6531(2) 0.28051(17) 1 0 0.0437(5) 
H5 H1+ 8 f 0.4775 0.6725 0.3012 1 0 0.052 
H6 H1+ 8 f 0.4065 0.6762 0.2205 1 0 0.052 
P1 P5+ 8 f 0.15702(3) 0.94221(5) 0.03614(4) 1 0 0.01251(9) 
P2 P5+ 8 f 0.21812(3) 0.48781(5) 0.04013(4) 1 0 0.01248(9) 
P3 P5+ 8 f 0.09260(3) 0.68397(5) -0.03712(4) 1 0 0.01298(9) 
O6 O2- 8 f 0.07807(9) 0.62089(15) -0.13208(11) 1 0 0.0196(3) 
O7 O2- 8 f 0.16821(9) 0.89346(15) 0.13535(10) 1 0 0.0177(3) 
O8 O2- 8 f 0.16162(10) 0.37702(15) 0.00214(12) 1 0 0.0216(3) 
O9 O2- 8 f 0.02574(9) 0.69398(17) -0.00121(12) 1 0 0.0227(3) 
O10 O2- 8 f 0.24650(8) 0.97174(17) 0.04034(11) 1 0 0.0208(3) 
O11 O2- 8 f 0.10493(10) 1.05743(15) -0.00194(12) 1 0 0.0243(3) 
O12 O2- 8 f 0.12913(10) 0.82657(15) -0.04140(11) 1 0 0.0216(3) 
Ni1 Ni2+ 4 e 0.5000 0.24488(3) 0.2500 1 0 0.01249(7) 
O13 O2- 8 f 0.48362(9) 0.09969(14) 0.33724(11) 1 0 0.0172(3) 
H7 H1+ 8 f 0.5184 0.0349 0.3502 1 0 0.021 
H8 H1+ 8 f 0.4838 0.1271 0.3902 1 0 0.021 
O14 O2- 8 f 0.37693(8) 0.24893(14) 0.16516(11) 1 0 0.0172(3) 
H9 H1+ 8 f 0.3569 0.3256 0.1540 1 0 0.021 
H10 H1+ 8 f 0.3616 0.2121 0.1087 1 0 0.021 
O15 O2- 8 f 0.47785(9) 0.38693(15) 0.33445(11) 1 0 0.0197(3) 
H11 H1+ 8 f 0.4355 0.3760 0.3454 1 0 0.024 
H12 H1+ 8 f 0.5162 0.4089 0.3860 1 0 0.024 

loop_
_atom_site_aniso_label
_atom_site_aniso_type_symbol
_atom_site_aniso_U_11
_atom_site_aniso_U_22
_atom_site_aniso_U_33
_atom_site_aniso_U_12
_atom_site_aniso_U_13
_atom_site_aniso_U_23
Na1 Na1+ 0.0231(4) 0.0223(4) 0.0243(4) -0.0004(3) 0.0097(3) -0.0018(4)
Li1 Li1+ 0.0293(19) 0.029(2) 0.0183(18) 0.0059(17) 0.0085(15) 0.0022(16)
O1 O2- 0.0169(6) 0.0231(7) 0.0128(6) 0.0045(5) 0.0036(5) 0.0027(5)
O2 O2- 0.0216(6) 0.0225(7) 0.0143(6) 0.0095(5) 0.0019(5) -0.0022(6)
O3 O2- 0.0241(7) 0.0267(8) 0.0248(8) 0.0044(6) 0.0104(6) 0.0044(7)
O4 O2- 0.0289(8) 0.0247(7) 0.0284(9) -0.0001(6) 0.0155(7) 0.0001(7)
O5 O2- 0.0520(13) 0.0494(12) 0.0371(11) 0.0085(10) 0.0251(10) 0.0033(10)
P1 P5+ 0.01273(18) 0.01321(18) 0.0114(2) -0.00086(15) 0.00431(15) 
0.00013(16)
P2 P5+ 0.01266(18) 0.01344(19) 0.0114(2) -0.00034(15) 0.00457(15) 
0.00006(16)
P3 P5+ 0.01426(19) 0.01291(18) 0.0112(2) -0.00007(15) 0.00409(16) 
-0.00088(16)
O6 O2- 0.0237(7) 0.0195(6) 0.0145(6) -0.0021(5) 0.0059(5) -0.0057(5)
O7 O2- 0.0196(6) 0.0219(6) 0.0131(6) -0.0040(5) 0.0078(5) 0.0001(5)
O8 O2- 0.0271(7) 0.0190(6) 0.0192(7) -0.0097(6) 0.0094(6) -0.0030(6)
O9 O2- 0.0182(6) 0.0324(8) 0.0196(7) 0.0028(6) 0.0096(6) 0.0047(6)
O10 O2- 0.0143(5) 0.0354(8) 0.0134(6) -0.0041(6) 0.0061(5) 0.0029(6)
O11 O2- 0.0257(7) 0.0206(7) 0.0226(8) 0.0085(6) 0.0045(6) 0.0000(6)
O12 O2- 0.0344(8) 0.0162(6) 0.0148(6) -0.0090(6) 0.0100(6) -0.0035(5)
Ni1 Ni2+ 0.01256(13) 0.01290(14) 0.01169(14) 0.000 0.00419(11) 0.000
O13 O2- 0.0206(6) 0.0162(6) 0.0149(6) 0.0014(5) 0.0069(5) 0.0012(5)
O14 O2- 0.0160(5) 0.0176(6) 0.0159(6) 0.0017(5) 0.0035(5) -0.0010(5)
O15 O2- 0.0193(6) 0.0220(7) 0.0186(7) -0.0005(5) 0.0080(5) -0.0051(6)
#End of data_262943-ICSD


