data_404537-ICSD
#?2014 by Fachinformationszentrum Karlsruhe, and the U.S. Secretary of 
#Commerce on behalf of the United States.  All rights reserved.
_database_code_ICSD                404537
_audit_creation_date               1997/11/10
_chemical_name_systematic          'Cerium Zinc Pentaborate'
_chemical_formula_structural       'Ce Zn (B5 O10)'
_chemical_formula_sum              'B5 Ce1 O10 Zn1'
_publ_section_title
;
Synthese und Kristallstruktur von Lanthanoidzinkboraten Ln Zn (B5 
O10) mit Ln = Ce, Nd, Tb
;
loop_
_citation_id
_citation_journal_abbrev
_citation_year
_citation_journal_volume
_citation_page_first
_citation_page_last
_citation_journal_id_ASTM
primary 'Zeitschrift fuer Naturforschung, B: Chemical Sciences'
 1996 51 671 676 ZNBSEN
_publ_author_name                  'Busche, S.;Bluhm, K.'
_cell_length_a                     8.7452(9)
_cell_length_b                     7.6140(9)
_cell_length_c                     9.5001(8)
_cell_angle_alpha                  90.
_cell_angle_beta                   92.798(9)
_cell_angle_gamma                  90.
_cell_volume                       631.82
_cell_formula_units_Z              4
_symmetry_space_group_name_H-M     'P 1 21/n 1'
_symmetry_Int_Tables_number        14
_refine_ls_R_factor_all            .0865
loop_
_symmetry_equiv_pos_site_id
_symmetry_equiv_pos_as_xyz
  1	'-x+.5, y+.5, -z+.5'
  2	'-x, -y, -z'
  3	'x+.5, -y+.5, z+.5'
  4	'x, y, z'
loop_
_atom_type_symbol
_atom_type_oxidation_number
B3+	3
Ce3+	3
O2-	-2
Zn2+	2
loop_
_atom_site_label
_atom_site_type_symbol
_atom_site_symmetry_multiplicity
_atom_site_Wyckoff_symbol
_atom_site_fract_x
_atom_site_fract_y
_atom_site_fract_z
_atom_site_occupancy
_atom_site_attached_hydrogens
_atom_site_U_iso_or_equiv
Zn1 Zn2+ 4 e 0.60970(6) 0.41182(7) 0.12155(6) 1. 0 0 
Ce1 Ce3+ 4 e 0.18204(2) 0.18424(3) 0.23505(2) 1. 0 0 
B1 B3+ 4 e 0.9124(5) 0.5803(6) 0.2657(4) 1. 0 0.0075(6) 
B2 B3+ 4 e 0.4839(5) 0.3279(5) 0.3909(4) 1. 0 0.0067(5) 
B3 B3+ 4 e 0.7178(5) 0.5340(6) 0.4475(4) 1. 0 0.0076(6) 
B4 B3+ 4 e 0.8482(5) 0.5957(6) 0.0047(4) 1. 0 0.0085(6) 
B5 B3+ 4 e 0.9287(5) 0.3152(6) 0.4148(4) 1. 0 0.0079(6) 
O1 O2- 4 e 0.0277(3) 0.7185(4) 0.2392(3) 1. 0 0 
O2 O2- 4 e 0.8170(3) 0.5350(4) 0.1367(3) 1. 0 0 
O3 O2- 4 e 0.9881(3) 0.4169(4) 0.3116(3) 1. 0 0 
O4 O2- 4 e 0.8138(3) 0.6535(4) 0.3714(3) 1. 0 0 
O5 O2- 4 e 0.5844(3) 0.4765(4) 0.3546(3) 1. 0 0 
O6 O2- 4 e 0.3275(3) 0.3922(4) 0.4150(3) 1. 0 0 
O7 O2- 4 e 0.5395(3) 0.2219(4) 0.5115(3) 1. 0 0 
O8 O2- 4 e 0.8096(3) 0.3728(4) 0.4906(3) 1. 0 0 
O9 O2- 4 e 0.5034(3) 0.6524(4) 0.0689(3) 1. 0 0 
O10 O2- 4 e 0.2309(3) 0.4592(4) 0.1112(3) 1. 0 0 

loop_
_atom_site_aniso_label
_atom_site_aniso_type_symbol
_atom_site_aniso_U_11
_atom_site_aniso_U_22
_atom_site_aniso_U_33
_atom_site_aniso_U_12
_atom_site_aniso_U_13
_atom_site_aniso_U_23
Zn1 Zn2+ 0.0103(2) 0.0092(2) 0.0152(2) -.00018(14) 0.0000(2) 0.0004(2)
Ce1 Ce3+ 0.00629(6) 0.00629(7) 0.00837(7) 0.00030(6) 0.00079(5) 0.00049(6)
O1 O2- 0.0058(9) 0.0091(10) 0.0094(9) -.0022(8) 0.0005(8) 0.0015(8)
O2 O2- 0.0059(9) 0.010(1) 0.0085(9) -.0035(8) 0.0001(7) 0.0010(8)
O3 O2- 0.0081(9) 0.0102(11) 0.0105(10) 0.0027(8) 0.0050(8) 0.0013(9)
O4 O2- 0.0082(9) 0.0044(9) 0.0087(9) 0.0008(7) 0.0021(8) -.0007(7)
O5 O2- 0.0059(9) 0.0076(10) 0.0092(9) -.0022(8) 0.0001(8) 0.0000(8)
O6 O2- 0.0056(9) 0.009(1) 0.0104(10) 0.0007(8) 0.0016(8) 0.0008(8)
O7 O2- 0.0051(8) 0.0080(9) 0.0095(9) 0.0009(8) -.0006(7) 0.0023(8)
O8 O2- 0.0066(9) 0.0074(10) 0.0124(10) 0.0016(8) 0.0031(8) 0.0016(9)
O9 O2- 0.0076(9) 0.0065(10) 0.011(1) -.0006(8) 0.0004(8) -.0015(8)
O10 O2- 0.0096(10) 0.0133(11) 0.0081(9) -.0044(9) 0.0001(8) -.0010(9)
#End of data_404537-ICSD


