data_20376-ICSD
#?2014 by Fachinformationszentrum Karlsruhe, and the U.S. Secretary of 
#Commerce on behalf of the United States.  All rights reserved.
_database_code_ICSD                20376
_audit_creation_date               1984/09/05
_audit_update_record               2009/02/01
_chemical_name_systematic          'Disodium Catena-beryllodisilicate'
_chemical_formula_structural       'Na2 (Be Si2 O6)'
_chemical_formula_sum              'Be1 Na2 O6 Si2'
_chemical_name_mineral             Chkalovite
_publ_section_title
;
The X-ray analysis of the crystal structure of chkalovite
;
loop_
_citation_id
_citation_journal_abbrev
_citation_year
_citation_journal_volume
_citation_page_first
_citation_page_last
_citation_journal_id_ASTM
primary 'Doklady Akademii Nauk SSSR' 1956 108 1077 1080 DANKAS
_publ_author_name
;
Pyatenko, Yu.A.;Bokii, G.B.;Belov, N.V.
;
_cell_length_a                     21.10(10)
_cell_length_b                     21.10(10)
_cell_length_c                     6.87(3)
_cell_angle_alpha                  90.
_cell_angle_beta                   90.
_cell_angle_gamma                  90.
_cell_volume                       3058.59
_cell_formula_units_Z              24
_symmetry_space_group_name_H-M     'F d d d S'
_symmetry_Int_Tables_number        70
loop_
_symmetry_equiv_pos_site_id
_symmetry_equiv_pos_as_xyz
  1	'x+.25, y+.25, -z+.25'
  2	'-x+.25, y+.25, z+.25'
  3	'-x, -y, z'
  4	'x, -y, -z'
  5	'x+.25, -y+.25, z+.25'
  6	'-x+.25, -y+.25, -z+.25'
  7	'-x, y, -z'
  8	'x, y, z'
  9	'x+.25, y+.75, -z+.75'
 10	'x+.75, y+.25, -z+.75'
 11	'x+.75, y+.75, -z+.25'
 12	'-x+.25, y+.75, z+.75'
 13	'-x+.75, y+.25, z+.75'
 14	'-x+.75, y+.75, z+.25'
 15	'-x, -y+.5, z+.5'
 16	'-x+.5, -y, z+.5'
 17	'-x+.5, -y+.5, z'
 18	'x, -y+.5, -z+.5'
 19	'x+.5, -y, -z+.5'
 20	'x+.5, -y+.5, -z'
 21	'x+.25, -y+.75, z+.75'
 22	'x+.75, -y+.25, z+.75'
 23	'x+.75, -y+.75, z+.25'
 24	'-x+.25, -y+.75, -z+.75'
 25	'-x+.75, -y+.25, -z+.75'
 26	'-x+.75, -y+.75, -z+.25'
 27	'-x, y+.5, -z+.5'
 28	'-x+.5, y, -z+.5'
 29	'-x+.5, y+.5, -z'
 30	'x, y+.5, z+.5'
 31	'x+.5, y, z+.5'
 32	'x+.5, y+.5, z'
loop_
_atom_type_symbol
_atom_type_oxidation_number
Be2+	2
Na1+	1
O2-	-2
Si4+	4
loop_
_atom_site_label
_atom_site_type_symbol
_atom_site_symmetry_multiplicity
_atom_site_Wyckoff_symbol
_atom_site_fract_x
_atom_site_fract_y
_atom_site_fract_z
_atom_site_occupancy
_atom_site_attached_hydrogens
Be1 Be2+ 8 a 0 0 0 1. 0 
Be2 Be2+ 16 f 0 0.33 0 1. 0 
Si1 Si4+ 16 e 0.346 0 0 1. 0 
Si2 Si4+ 32 h 0.071 0.093 0.25 1. 0 
Na1 Na1+ 16 e 0.154 0 0 1. 0 
Na2 Na1+ 32 h 0.071 0.093 0.75 1. 0 
O1 O2- 16 c 0.125 0.125 0.125 1. 0 
O2 O2- 32 h 0.04 0.03 0.16 1. 0 
O3 O2- 32 h 0.03 0.13 0.37 1. 0 
O4 O2- 32 h 0.13 0.06 0.37 1. 0 
O5 O2- 32 h 0.2 0.04 0.66 1. 0 

#End of data_20376-ICSD


