data_402578-ICSD
#?2014 by Fachinformationszentrum Karlsruhe, and the U.S. Secretary of 
#Commerce on behalf of the United States.  All rights reserved.
_database_code_ICSD                402578
_audit_creation_date               1997/11/10
_audit_update_record               2002/04/01
_chemical_name_systematic          'Sodium Copper Triselenohafnate(IV)'
_chemical_formula_structural       'Na Cu (Hf Se3)'
_chemical_formula_sum              'Cu1 Hf1 Na1 Se3'
_publ_section_title
;
Crystal structure of sodium copper triselenohafnate(IV) Na Cu Hf Se3
;
loop_
_citation_id
_citation_journal_abbrev
_citation_year
_citation_journal_volume
_citation_page_first
_citation_page_last
_citation_journal_id_ASTM
primary 'Zeitschrift fuer Kristallographie - New Crystal Structures'
 1997 212 75 75 ZKNSFT
_publ_author_name                  'Klepp, K.O.;Sturmayr, D.'
_cell_length_a                     13.46(1)
_cell_length_b                     3.8284(6)
_cell_length_c                     10.247(4)
_cell_angle_alpha                  90.
_cell_angle_beta                   90.
_cell_angle_gamma                  90.
_cell_volume                       528.03
_cell_formula_units_Z              4
_symmetry_space_group_name_H-M     'P n m a'
_symmetry_Int_Tables_number        62
_refine_ls_R_factor_all            .042
loop_
_symmetry_equiv_pos_site_id
_symmetry_equiv_pos_as_xyz
  1	'x+.5, y, -z+.5'
  2	'x, -y+.5, z'
  3	'-x+.5, y+.5, z+.5'
  4	'-x, -y, -z'
  5	'-x+.5, -y, z+.5'
  6	'-x, y+.5, -z'
  7	'x+.5, -y+.5, -z+.5'
  8	'x, y, z'
loop_
_atom_type_symbol
_atom_type_oxidation_number
Cu1+	1
Hf4+	4
Na1+	1
Se2-	-2
loop_
_atom_site_label
_atom_site_type_symbol
_atom_site_symmetry_multiplicity
_atom_site_Wyckoff_symbol
_atom_site_fract_x
_atom_site_fract_y
_atom_site_fract_z
_atom_site_occupancy
_atom_site_attached_hydrogens
Na1 Na1+ 4 c 0.2313(9) 0.25 0.040(1) 1. 0 
Cu1 Cu1+ 4 c 0.4913(3) 0.25 0.5911(3) 1. 0 
Hf1 Hf4+ 4 c 0.01122(9) 0.25 0.3236(1) 1. 0 
Se1 Se2- 4 c 0.1033(2) 0.25 0.5644(2) 1. 0 
Se2 Se2- 4 c 0.3950(2) 0.25 0.3776(2) 1. 0 
Se3 Se2- 4 c 0.3611(2) 0.25 0.7560(3) 1. 0 

loop_
_atom_site_aniso_label
_atom_site_aniso_type_symbol
_atom_site_aniso_U_11
_atom_site_aniso_U_22
_atom_site_aniso_U_33
_atom_site_aniso_U_12
_atom_site_aniso_U_13
_atom_site_aniso_U_23
Na1 Na1+ 0.015(7) 0.021(7) 0.059(8) 0 -0.005(6) 0
Cu1 Cu1+ 0.019(2) 0.015(2) 0.013(1) 0 0.001(1) 0
Hf1 Hf4+ 0.0124(5) 0.0126(5) 0.0109(4) 0 -0.0006(5) 0
Se1 Se2- 0.008(1) 0.008(1) 0.009(1) 0 0.001(1) 0
Se2 Se2- 0.010(1) 0.011(1) 0.010(1) 0 0.002(1) 0
Se3 Se2- 0.009(1) 0.011(1) 0.012(1) 0 0.000(1) 0
#End of data_402578-ICSD


