data_423879-ICSD
#?2014 by Fachinformationszentrum Karlsruhe, and the U.S. Secretary of 
#Commerce on behalf of the United States.  All rights reserved.
_database_code_ICSD                423879
_audit_creation_date               2013/02/01
_chemical_name_systematic
;
Dipotassium Trioxidosulfidotungstate Sesquihydrate
;
_chemical_formula_structural       'K2 (W S O3) (H2 O)1.5'
_chemical_formula_sum              'H3 K2 O4.5 S1 W1'
_publ_section_title
;
Hydrates of the alkali monothio-trioxo-molybdates and -tungstates: K2 
[(Mo, W) S O3] * 1.5 H2 O and (Rb/Cs)2 [(Mo, W) S O3] * H2 O
;
loop_
_citation_id
_citation_journal_abbrev
_citation_year
_citation_journal_volume
_citation_journal_issue
_citation_page_first
_citation_page_last
_citation_journal_id_ASTM
primary 'Zeitschrift fuer Kristallographie - Crystalline Materials'
 2012 227 8 557 568 ZKCMAJ
_publ_author_name
;
Lehner, A.J.;Braitsch, M.;Roehr, C.
;
_cell_length_a                     9.9313(11)
_cell_length_b                     8.3110(11)
_cell_length_c                     18.6516(19)
_cell_angle_alpha                  90.00
_cell_angle_beta                   99.153(8)
_cell_angle_gamma                  90.00
_cell_volume                       1519.88
_cell_formula_units_Z              8
_symmetry_space_group_name_H-M     'C 1 2/c 1'
_symmetry_Int_Tables_number        15
_refine_ls_R_factor_all            .039
loop_
_symmetry_equiv_pos_site_id
_symmetry_equiv_pos_as_xyz
  1	'x, -y, z+.5'
  2	'-x, -y, -z'
  3	'-x, y, -z+.5'
  4	'x, y, z'
  5	'x+.5, -y+.5, z+.5'
  6	'-x+.5, -y+.5, -z'
  7	'-x+.5, y+.5, -z+.5'
  8	'x+.5, y+.5, z'
loop_
_atom_type_symbol
_atom_type_oxidation_number
H1+	1
K1+	1
O2-	-2
S2-	-2
W6+	6
loop_
_atom_site_label
_atom_site_type_symbol
_atom_site_symmetry_multiplicity
_atom_site_Wyckoff_symbol
_atom_site_fract_x
_atom_site_fract_y
_atom_site_fract_z
_atom_site_occupancy
_atom_site_attached_hydrogens
_atom_site_U_iso_or_equiv
K1 K1+ 8 f 0.2913(2) 0.4851(3) 0.21526(14) 1 0 0.0396(6) 
K2 K1+ 8 f 0.0663(2) 0.1945(3) 0.06134(13) 1 0 0.0383(6) 
W1 W6+ 8 f 0.42569(5) 0.11653(5) 0.12121(2) 1 0 0.02599(13) 
S1 S2- 8 f 0.0646(3) 0.1734(3) 0.62453(17) 1 0 0.0405(7) 
O1 O2- 8 f 0.3035(7) 0.1573(8) 0.1749(4) 1 0 0.0402(19) 
O2 O2- 8 f 0.3418(7) 0.0912(10) 0.0336(4) 1 0 0.044(2) 
O3 O2- 8 f 0.0183(7) 0.4468(9) 0.1491(4) 1 0 0.0406(19) 
O4 O2- 8 f 0.1947(7) 0.1124(14) 0.4303(4) 1 0 0.055(2) 
H1 H1+ 8 f 0.241(14) 0.019(12) 0.458(8) 1 0 0.11(3) 
H2 H1+ 8 f 0.251(14) 0.198(13) 0.412(8) 1 0 0.11(3) 
O5 O2- 4 e 0.0000 0.2076(12) 0.2500 1 0 0.045(3) 
H3 H1+ 8 f -0.010(16) 0.285(13) 0.290(5) 1 0 0.11(3) 

loop_
_atom_site_aniso_label
_atom_site_aniso_type_symbol
_atom_site_aniso_U_11
_atom_site_aniso_U_22
_atom_site_aniso_U_33
_atom_site_aniso_U_12
_atom_site_aniso_U_13
_atom_site_aniso_U_23
K1 K1+ 0.0390(14) 0.0347(14) 0.0445(15) 0.0015(12) 0.0048(12) -0.0088(12)
K2 K1+ 0.0379(13) 0.0390(14) 0.0381(14) -0.0016(11) 0.0064(11) 0.0011(11)
W1 W6+ 0.0275(2) 0.02280(18) 0.0280(2) 0.0016(3) 0.00556(13) 0.0007(3)
S1 S2- 0.0422(16) 0.0280(15) 0.0512(18) 0.0057(12) 0.0068(14) 0.0000(13)
O1 O2- 0.040(4) 0.030(5) 0.051(4) 0.002(3) 0.007(3) -0.006(4)
O2 O2- 0.051(5) 0.037(5) 0.048(4) 0.000(4) 0.015(4) -0.001(4)
O3 O2- 0.036(4) 0.042(5) 0.045(5) 0.003(3) 0.009(3) -0.004(4)
O4 O2- 0.035(4) 0.066(6) 0.064(5) 0.002(5) 0.010(4) 0.024(6)
O5 O2- 0.065(7) 0.026(6) 0.049(7) 0.000 0.023(6) 0.000
#End of data_423879-ICSD


