data_420082-ICSD
#?2014 by Fachinformationszentrum Karlsruhe, and the U.S. Secretary of 
#Commerce on behalf of the United States.  All rights reserved.
_database_code_ICSD                420082
_audit_creation_date               2009/08/01
_chemical_name_systematic
;
Pentabismuth Tris(tetrachloroaluminate)
;
_chemical_formula_structural       'Bi5 (Al Cl4)3'
_chemical_formula_sum              'Al3 Bi5 Cl12'
_publ_section_title
;
Room-temperature synthesis of bismuth clusters in ionic liquids and 
crystal growth of Bi5 (Al Cl4)3
;
loop_
_citation_id
_citation_journal_abbrev
_citation_year
_citation_journal_volume
_citation_journal_issue
_citation_page_first
_citation_page_last
_citation_journal_id_ASTM
primary 'Zeitschrift fuer Anorganische und Allgemeine Chemie (1950) (DE)'
 2009 635 2 297 300 ZAACAB
_publ_author_name                  'Ahmed, E.;Koehler, D.;Ruck, M.'
_cell_length_a                     11.871(2)
_cell_length_b                     11.871(2)
_cell_length_c                     30.120(3)
_cell_angle_alpha                  90.00
_cell_angle_beta                   90.00
_cell_angle_gamma                  120.00
_cell_volume                       3675.87
_cell_formula_units_Z              6
_symmetry_space_group_name_H-M     'R -3 c H'
_symmetry_Int_Tables_number        167
_refine_ls_R_factor_all            .0421
loop_
_symmetry_equiv_pos_site_id
_symmetry_equiv_pos_as_xyz
  1	'x-y, -y, -z+.5'
  2	'-x, -x+y, -z+.5'
  3	'y, x, -z+.5'
  4	'x-y, x, -z'
  5	'y, -x+y, -z'
  6	'-x, -y, -z'
  7	'-x+y, y, z+.5'
  8	'x, x-y, z+.5'
  9	'-y, -x, z+.5'
 10	'-x+y, -x, z'
 11	'-y, x-y, z'
 12	'x, y, z'
 13	'x-y+.6666, -y+.3333, -z+.8333'
 14	'x-y+.3333, -y+.6666, -z+.1666'
 15	'-x+.6666, -x+y+.3333, -z+.8333'
 16	'-x+.3333, -x+y+.6666, -z+.1666'
 17	'y+.6666, x+.3333, -z+.8333'
 18	'y+.3333, x+.6666, -z+.1666'
 19	'x-y+.6666, x+.3333, -z+.3333'
 20	'x-y+.3333, x+.6666, -z+.6666'
 21	'y+.6666, -x+y+.3333, -z+.3333'
 22	'y+.3333, -x+y+.6666, -z+.6666'
 23	'-x+.6666, -y+.3333, -z+.3333'
 24	'-x+.3333, -y+.6666, -z+.6666'
 25	'-x+y+.6666, y+.3333, z+.8333'
 26	'-x+y+.3333, y+.6666, z+.1666'
 27	'x+.6666, x-y+.3333, z+.8333'
 28	'x+.3333, x-y+.6666, z+.1666'
 29	'-y+.6666, -x+.3333, z+.8333'
 30	'-y+.3333, -x+.6666, z+.1666'
 31	'-x+y+.6666, -x+.3333, z+.3333'
 32	'-x+y+.3333, -x+.6666, z+.6666'
 33	'-y+.6666, x-y+.3333, z+.3333'
 34	'-y+.3333, x-y+.6666, z+.6666'
 35	'x+.6666, y+.3333, z+.3333'
 36	'x+.3333, y+.6666, z+.6666'
loop_
_atom_type_symbol
_atom_type_oxidation_number
Al3+	3
Bi.6+	.6
Cl1-	-1
loop_
_atom_site_label
_atom_site_type_symbol
_atom_site_symmetry_multiplicity
_atom_site_Wyckoff_symbol
_atom_site_fract_x
_atom_site_fract_y
_atom_site_fract_z
_atom_site_occupancy
_atom_site_attached_hydrogens
_atom_site_U_iso_or_equiv
Bi1 Bi.6+ 18 e 0.16179(8) 0.0000 0.2500 1 0 0.0600(3) 
Bi2 Bi.6+ 12 c 0.0000 0.0000 0.32705(4) 1 0 0.0705(5) 
Al1 Al3+ 18 e 0.5220(5) 0.0000 0.2500 1 0 0.0368(15) 
Cl1 Cl1- 36 f 0.4197(5) 0.0081(6) 0.30747(12) 1 0 0.0469(10) 
Cl2 Cl1- 36 f 0.7124(4) 0.1662(5) 0.2421(3) 1 0 0.0563(17) 

loop_
_atom_site_aniso_label
_atom_site_aniso_type_symbol
_atom_site_aniso_U_11
_atom_site_aniso_U_22
_atom_site_aniso_U_33
_atom_site_aniso_U_12
_atom_site_aniso_U_13
_atom_site_aniso_U_23
Bi1 Bi.6+ 0.0401(4) 0.0757(8) 0.0761(7) 0.0378(4) 0.0026(4) 0.0052(7)
Bi2 Bi.6+ 0.0873(7) 0.0873(7) 0.0369(6) 0.0436(3) 0.000 0.000
Al1 Al3+ 0.029(2) 0.040(4) 0.044(3) 0.0201(19) 0.0074(18) 0.015(4)
Cl1 Cl1- 0.047(3) 0.055(2) 0.040(2) 0.027(2) -0.001(2) -0.006(2)
Cl2 Cl1- 0.033(2) 0.051(3) 0.068(5) 0.009(2) -0.002(2) 0.019(2)
#End of data_420082-ICSD


