data_14126-ICSD
#?2014 by Fachinformationszentrum Karlsruhe, and the U.S. Secretary of 
#Commerce on behalf of the United States.  All rights reserved.
_database_code_ICSD                14126
_audit_creation_date               1986/10/06
_audit_update_record               2011/02/01
_chemical_name_systematic
;
Dipotassium Hexafluorozirconate - Ht
;
_chemical_formula_structural       'K2 (Zr F6)'
_chemical_formula_sum              'F6 K2 Zr1'
_publ_section_title
;
Die Kristallstruktur des Kaliumhexafluorozirkonats und 
Kaliumhexafluorohafnats
;
loop_
_citation_id
_citation_journal_abbrev
_citation_year
_citation_journal_volume
_citation_page_first
_citation_page_last
_citation_journal_id_ASTM
primary 'Acta Crystallographica (1,1948-23,1967)' 1956 9 929 933 ACCRA9
_publ_author_name                  'Bode, H.;Teufer, G.'
_cell_length_a                     6.58(1)
_cell_length_b                     11.4(2)
_cell_length_c                     6.94(1)
_cell_angle_alpha                  90.
_cell_angle_beta                   90.
_cell_angle_gamma                  90.
_cell_volume                       520.58
_cell_formula_units_Z              4
_symmetry_space_group_name_H-M     'C m c m'
_symmetry_Int_Tables_number        63
_refine_ls_R_factor_all            .13
loop_
_symmetry_equiv_pos_site_id
_symmetry_equiv_pos_as_xyz
  1	'-x, y, -z+.5'
  2	'-x, -y, z+.5'
  3	'-x, y, z'
  4	'-x, -y, -z'
  5	'x, -y, z+.5'
  6	'x, y, -z+.5'
  7	'x, -y, -z'
  8	'x, y, z'
  9	'-x+.5, y+.5, -z+.5'
 10	'-x+.5, -y+.5, z+.5'
 11	'-x+.5, y+.5, z'
 12	'-x+.5, -y+.5, -z'
 13	'x+.5, -y+.5, z+.5'
 14	'x+.5, y+.5, -z+.5'
 15	'x+.5, -y+.5, -z'
 16	'x+.5, y+.5, z'
loop_
_atom_type_symbol
_atom_type_oxidation_number
F1-	-1
K1+	1
Zr4+	4
loop_
_atom_site_label
_atom_site_type_symbol
_atom_site_symmetry_multiplicity
_atom_site_Wyckoff_symbol
_atom_site_fract_x
_atom_site_fract_y
_atom_site_fract_z
_atom_site_occupancy
_atom_site_attached_hydrogens
Zr1 Zr4+ 4 c 0 0.052 0.25 1. 0 
K1 K1+ 8 f 0 0.346 0 1. 0 
F1 F1- 8 g 0.31 0 0.25 1. 0 
F2 F1- 8 g 0.192 0.205 0.25 1. 0 
F3 F1- 8 f 0 0.103 0.565 1. 0 

#End of data_14126-ICSD


