data_404355-ICSD
#?2014 by Fachinformationszentrum Karlsruhe, and the U.S. Secretary of 
#Commerce on behalf of the United States.  All rights reserved.
_database_code_ICSD                404355
_audit_creation_date               1996/10/14
_audit_update_record               2011/02/01
_chemical_name_systematic          'Hexasilver Disilicate'
_chemical_formula_structural       'Ag6 (Si2 O7)'
_chemical_formula_sum              'Ag6 O7 Si2'
_publ_section_title
;
Die Tieftemperaturmmodifikationen von Ag6 Si2 O7 und Ag6 Ge2 O7 
Darstellung, Kristallstrukturen und Vergleich der Ag-Ag Abstaende
;
loop_
_citation_id
_citation_journal_abbrev
_citation_year
_citation_journal_volume
_citation_page_first
_citation_page_last
_citation_journal_id_ASTM
primary 'Zeitschrift fuer Anorganische und Allgemeine Chemie (1950) (DE)'
 1996 622 486 493 ZAACAB
_publ_author_name                  'Linke, C.;Jansen, M.'
_cell_length_a                     5.3043(5)
_cell_length_b                     9.7533(7)
_cell_length_c                     15.9283(13)
_cell_angle_alpha                  90.
_cell_angle_beta                   91.165(8)
_cell_angle_gamma                  90.
_cell_volume                       823.87
_cell_formula_units_Z              4
_symmetry_space_group_name_H-M     'P 1 21 1'
_symmetry_Int_Tables_number        4
_refine_ls_R_factor_all            .0333
loop_
_symmetry_equiv_pos_site_id
_symmetry_equiv_pos_as_xyz
  1	'-x, y+.5, -z'
  2	'x, y, z'
loop_
_atom_type_symbol
_atom_type_oxidation_number
Ag1+	1
O2-	-2
Si4+	4
loop_
_atom_site_label
_atom_site_type_symbol
_atom_site_symmetry_multiplicity
_atom_site_Wyckoff_symbol
_atom_site_fract_x
_atom_site_fract_y
_atom_site_fract_z
_atom_site_occupancy
_atom_site_attached_hydrogens
Ag1 Ag1+ 2 a 0.73635(13) 0.29325(9) 0.81505(5) 1. 0 
Ag2 Ag1+ 2 a 0.7531(2) 0.29488(10) 0.32989(5) 1. 0 
Ag3 Ag1+ 2 a 0.75565(14) 0.04153(7) 0.70629(5) 1. 0 
Ag4 Ag1+ 2 a 0.76677(15) 0.03056(9) 0.19866(5) 1. 0 
Ag5 Ag1+ 2 a 0.70664(13) 0.81220(8) 0.07417(6) 1. 0 
Ag6 Ag1+ 2 a 0.2468(2) 0.75030(8) 0.96327(6) 1. 0 
Ag7 Ag1+ 2 a 0.74559(14) 0.27321(8) 0.54985(6) 1. 0 
Ag8 Ag1+ 2 a 0.72906(13) 0.50069(9) 0.67523(5) 1. 0 
Ag9 Ag1+ 2 a 0.67981(14) 0.51427(8) 0.17444(5) 1. 0 
Ag10 Ag1+ 2 a 0.29695(13) 0.32674(8) 0.42467(6) 1. 0 
Ag11 Ag1+ 2 a 0.25993(13) 0.51759(11) 0.56834(5) 1. 0 
Ag12 Ag1+ 2 a 0.17725(14) 0.50448(10) 0.07696(5) 1. 0 
Si1 Si4+ 2 a 0.7408(4) 0.5439(3) 0.94054(14) 1. 0 
Si2 Si4+ 2 a 0.2875(4) 0.2608(3) 0.1944(2) 1. 0 
Si3 Si4+ 2 a 0.7412(4) 0.5572(3) 0.4580(2) 1. 0 
Si4 Si4+ 2 a 0.2562(4) 0.2572(2) 0.6936(2) 1. 0 
O1 O2- 2 a 0.8435(11) 0.6091(6) 1.0281(4) 1. 0 
O2 O2- 2 a 0.4347(10) 0.5409(6) 0.9330(4) 1. 0 
O3 O2- 2 a 0.8570(11) 0.3908(6) 0.9301(4) 1. 0 
O4 O2- 2 a 0.1453(10) 0.1399(6) 0.1355(4) 1. 0 
O5 O2- 2 a 0.0790(12) 0.3540(7) 0.2387(4) 1. 0 
O6 O2- 2 a 0.4697(12) 0.1807(7) 0.2611(4) 1. 0 
O7 O2- 2 a 0.4492(11) 0.3524(6) 0.1281(4) 1. 0 
O8 O2- 2 a 0.8248(12) 0.6188(7) 0.5485(4) 1. 0 
O9 O2- 2 a 0.8642(12) 0.4075(6) 0.4446(4) 1. 0 
O10 O2- 2 a 0.4338(10) 0.5500(6) 0.4451(4) 1. 0 
O11 O2- 2 a 0.8502(10) 0.6621(7) 0.3855(4) 1. 0 
O12 O2- 2 a 0.1487(11) 0.1959(6) 0.7794(4) 1. 0 
O13 O2- 2 a 0.1458(11) 0.4121(6) 0.6809(4) 1. 0 
O14 O2- 2 a 0.5633(10) 0.2562(6) 0.6909(4) 1. 0 

loop_
_atom_site_aniso_label
_atom_site_aniso_type_symbol
_atom_site_aniso_U_11
_atom_site_aniso_U_22
_atom_site_aniso_U_33
_atom_site_aniso_U_12
_atom_site_aniso_U_13
_atom_site_aniso_U_23
Ag1 Ag1+ 0.0250(3) 0.0349(5) 0.0177(3) -.0010(3) 0.0019(2) -.0102(4)
Ag2 Ag1+ 0.0338(4) 0.0327(5) 0.0274(4) -.0086(4) -.0009(3) -.0072(4)
Ag3 Ag1+ 0.0279(3) 0.0159(3) 0.0270(4) 0.0024(2) 0.0017(3) 0.0049(3)
Ag4 Ag1+ 0.0369(4) 0.0322(5) 0.0183(3) 0.0065(3) 0.0035(3) 0.0053(3)
Ag5 Ag1+ 0.0218(3) 0.0169(4) 0.0413(4) 0.0030(3) 0.0054(3) -.0041(3)
Ag6 Ag1+ 0.0347(4) 0.0219(4) 0.0439(5) -.0063(3) 0.0217(4) -.0122(4)
Ag7 Ag1+ 0.0273(3) 0.0205(4) 0.0310(4) -.0029(3) 0.0028(3) 0.0099(3)
Ag8 Ag1+ 0.0306(3) 0.0239(4) 0.0270(4) 0.0069(3) 0.0082(3) 0.0039(3)
Ag9 Ag1+ 0.0315(3) 0.0211(3) 0.0228(3) -.0109(3) 0.0041(3) -.0040(3)
Ag10 Ag1+ 0.0240(3) 0.0164(4) 0.0432(5) -.0033(3) 0.0044(3) 0.0042(3)
Ag11 Ag1+ 0.0264(3) 0.0424(5) 0.0200(3) -.0030(4) 0.0049(3) 0.0090(4)
Ag12 Ag1+ 0.0305(3) 0.0307(4) 0.0286(4) 0.0088(4) -.0029(3) 0.0056(4)
Si1 Si4+ 0.0154(9) 0.0086(11) 0.0117(10) 0.0011(8) 0.0023(8) -.0015(9)
Si2 Si4+ 0.0176(10) 0.0105(11) 0.0142(12) -.0012(9) 0.0023(9) -.0040(9)
Si3 Si4+ 0.0153(9) 0.0105(10) 0.0153(11) -.0014(8) 0.0018(8) 0.0020(9)
Si4 Si4+ 0.0152(10) 0.0098(11) 0.0108(11) -.0001(8) 0.0021(8) -.0006(8)
O1 O2- 0.026(3) 0.015(3) 0.014(3) 0.003(2) -.003(2) -.006(2)
O2 O2- 0.012(2) 0.016(3) 0.027(3) -.002(2) 0.004(2) 0.002(2)
O3 O2- 0.023(3) 0.008(2) 0.017(3) 0.003(2) 0.010(2) -.001(2)
O4 O2- 0.014(2) 0.015(3) 0.018(3) -.003(2) 0.006(2) -.005(2)
O5 O2- 0.025(3) 0.025(3) 0.028(4) -.005(3) 0.011(3) -.008(3)
O6 O2- 0.034(3) 0.018(3) 0.016(3) -.008(3) -.007(3) -.001(2)
O7 O2- 0.019(2) 0.015(3) 0.015(3) 0.001(2) 0.005(2) -.003(2)
O8 O2- 0.029(3) 0.016(3) 0.018(3) 0.005(2) 0.000(2) 0.000(2)
O9 O2- 0.026(3) 0.007(2) 0.017(3) 0.000(2) 0.001(2) 0.003(2)
O10 O2- 0.018(2) 0.018(3) 0.024(3) -.007(2) 0.003(2) 0.008(3)
O11 O2- 0.014(2) 0.021(3) 0.022(3) -.002(2) 0.002(2) 0.010(3)
O12 O2- 0.021(3) 0.018(3) 0.024(3) 0.004(2) 0.006(2) 0.003(2)
O13 O2- 0.019(3) 0.017(3) 0.020(3) 0.004(2) 0.004(2) 0.000(2)
O14 O2- 0.014(2) 0.020(3) 0.017(3) 0.000(2) 0.002(2) -.005(2)
#End of data_404355-ICSD


