data_290893-ICSD
#?2014 by Fachinformationszentrum Karlsruhe, and the U.S. Secretary of 
#Commerce on behalf of the United States.  All rights reserved.
_database_code_ICSD                290893
_audit_creation_date               2014/08/01
_chemical_name_systematic          'Distrontium Magnesium Tellurate'
_chemical_formula_structural       'Sr2 Mg Te O6'
_chemical_formula_sum              'Mg1 O6 Sr2 Te1'
_chemical_name_mineral             'Double perovskite'
_publ_section_title
;
Phase transitions in heated Sr2 Mg Te O6 double perovskite oxide 
probed by X - ray diffraction and Raman spectroscopy
;
loop_
_citation_id
_citation_journal_abbrev
_citation_year
_citation_journal_volume
_citation_journal_issue
_citation_page_first
_citation_page_last
_citation_journal_id_ASTM
primary 'Applied Physics Letters' 2013 103 26 261908-1 261908-5 APPLAB
_publ_author_name
;
Manoun, Bouchaib;Tamraoui, Y.;Lazor, P.;Yang, Wenge
;
_cell_length_a                     5.6102(2)
_cell_length_b                     5.5944(2)
_cell_length_c                     7.9045(2)
_cell_angle_alpha                  90
_cell_angle_beta                   89.998(8)
_cell_angle_gamma                  90
_cell_volume                       248.09
_cell_formula_units_Z              2
_symmetry_space_group_name_H-M     'I 1 2/m 1'
_symmetry_Int_Tables_number        12
_refine_ls_R_factor_all            .0386
loop_
_symmetry_equiv_pos_site_id
_symmetry_equiv_pos_as_xyz
  1	'x, -y, z'
  2	'-x, -y, -z'
  3	'-x, y, -z'
  4	'x, y, z'
  5	'x+.5, -y+.5, z+.5'
  6	'-x+.5, -y+.5, -z+.5'
  7	'-x+.5, y+.5, -z+.5'
  8	'x+.5, y+.5, z+.5'
loop_
_atom_type_symbol
_atom_type_oxidation_number
Mg2+	2
O2-	-2
Sr2+	2
Te6+	6
loop_
_atom_site_label
_atom_site_type_symbol
_atom_site_symmetry_multiplicity
_atom_site_Wyckoff_symbol
_atom_site_fract_x
_atom_site_fract_y
_atom_site_fract_z
_atom_site_occupancy
_atom_site_attached_hydrogens
_atom_site_B_iso_or_equiv
Sr1 Sr2+ 4 i 0.5025(26) 0.5 0.2505(6) 1. 0 0.928(6) 
Mg1 Mg2+ 2 c 0.5 0 0 1. 0 0.781(21) 
Te1 Te6+ 2 b 0 0.5 0 1. 0 0.670(5) 
O1 O2- 4 i 0.5318(55) 0 0.2639(22) 1. 0 1.004(20) 
O2 O2- 8 j 0.2409(26) 0.2576(22) 0.0199(30) 1. 0 1.004(20) 

#End of data_290893-ICSD


