data_37034-ICSD
#?2014 by Fachinformationszentrum Karlsruhe, and the U.S. Secretary of 
#Commerce on behalf of the United States.  All rights reserved.
_database_code_ICSD                37034
_audit_creation_date               1982/12/31
_audit_update_record               2010/08/01
_chemical_name_systematic
;
Hexabarium Tetrafluoride Cyclo-icosafluorotetraaluminate
;
_chemical_formula_structural       'Ba6 F4 (Al4 F20)'
_chemical_formula_sum              'Al4 Ba6 F24'
_publ_section_title
;
Das erste Cyclo-Fluoroaluminat: Ba3 Al2 F12 = Ba6 F4 (Al4 F20) (Mit 
einer Bemerkung ueber Ba3 Ti2 F10 O2)
;
loop_
_citation_id
_citation_journal_abbrev
_citation_year
_citation_journal_volume
_citation_page_first
_citation_page_last
_citation_journal_id_ASTM
primary 'Zeitschrift fuer Anorganische und Allgemeine Chemie (1950) (DE)'
 1982 495 27 28 ZAACAB
2 'Phase Transition' 1992 38 127 220 PHTRDP
_publ_author_name                  'Domesle, R.;Hoppe, R.'
_cell_length_a                     10.187
_cell_length_b                     9.869
_cell_length_c                     9.502
_cell_angle_alpha                  90.
_cell_angle_beta                   90.
_cell_angle_gamma                  90.
_cell_volume                       955.29
_cell_formula_units_Z              2
_symmetry_space_group_name_H-M     'P n n m'
_symmetry_Int_Tables_number        58
_refine_ls_R_factor_all            .0729
loop_
_symmetry_equiv_pos_site_id
_symmetry_equiv_pos_as_xyz
  1	'x+.5, -y+.5, z+.5'
  2	'-x+.5, y+.5, z+.5'
  3	'x, y, -z'
  4	'-x, -y, -z'
  5	'-x+.5, y+.5, -z+.5'
  6	'x+.5, -y+.5, -z+.5'
  7	'-x, -y, z'
  8	'x, y, z'
loop_
_atom_type_symbol
_atom_type_oxidation_number
Al3+	3
Ba2+	2
F1-	-1
loop_
_atom_site_label
_atom_site_type_symbol
_atom_site_symmetry_multiplicity
_atom_site_Wyckoff_symbol
_atom_site_fract_x
_atom_site_fract_y
_atom_site_fract_z
_atom_site_occupancy
_atom_site_attached_hydrogens
Ba1 Ba2+ 4 f 0 0.5 0.2483(1) 1. 0 
Ba2 Ba2+ 4 g 0.2290(1) 0.2101(1) 0 1. 0 
Ba3 Ba2+ 4 g 0.6447(1) 0.3505(1) 0 1. 0 
Al1 Al3+ 8 h 0.3986(3) 0.3568(3) 0.3136(3) 1. 0 
F1 F1- 4 e 0 0 0.136(1) 1. 0 
F2 F1- 4 g 0.0922(8) 0.8015(8) 0 1. 0 
F3 F1- 4 g 0.4750(8) 0.1453(8) 0 1. 0 
F4 F1- 4 g 0.1414(9) 0.4653(9) 0 1. 0 
F5 F1- 8 h 0.3129(5) 0.2036(6) 0.2778(6) 1. 0 
F6 F1- 8 h 0.0523(5) 0.2333(5) 0.2150(7) 1. 0 
F7 F1- 8 h 0.3971(6) 0.4070(6) 0.1374(7) 1. 0 
F8 F1- 8 h 0.2524(6) 0.4474(6) 0.3516(7) 1. 0 

#End of data_37034-ICSD


