data_79945-ICSD
#?2014 by Fachinformationszentrum Karlsruhe, and the U.S. Secretary of 
#Commerce on behalf of the United States.  All rights reserved.
_database_code_ICSD                79945
_audit_creation_date               1996/10/14
_chemical_name_systematic
;
Potassium Gadolinium Carbonate Difluoride
;
_chemical_formula_structural       'K Gd (C O3) F2'
_chemical_formula_sum              'C1 F2 Gd1 K1 O3'
_publ_section_title
;
Structure and optical properties of K Gd (C O3) F2 : Eu(3+)
;
loop_
_citation_id
_citation_journal_abbrev
_citation_year
_citation_journal_volume
_citation_page_first
_citation_page_last
_citation_journal_id_ASTM
primary 'Journal of Alloys and Compounds' 1995 225 198 202 JALCEU
_publ_author_name
;
Mercier, N.;le Blanc, M.;Antic-Fidancev, E.;Lemaitre-Blaise, 
M.;Porcher, P.
;
_cell_length_a                     7.006(2)
_cell_length_b                     11.181(3)
_cell_length_c                     21.8650(60)
_cell_angle_alpha                  90.
_cell_angle_beta                   90.
_cell_angle_gamma                  90.
_cell_volume                       1712.77
_cell_formula_units_Z              16
_symmetry_space_group_name_H-M     'F d d d Z'
_symmetry_Int_Tables_number        70
_refine_ls_R_factor_all            .028
loop_
_symmetry_equiv_pos_site_id
_symmetry_equiv_pos_as_xyz
  1	'x+.75, y+.75, -z'
  2	'x+.75, -y, z+.75'
  3	'-x, y+.75, z+.75'
  4	'-x, -y, -z'
  5	'-x+.25, -y+.25, z'
  6	'-x+.25, y, -z+.25'
  7	'x, -y+.25, -z+.25'
  8	'x, y, z'
  9	'x+.75, y+.25, -z+.5'
 10	'x+.25, y+.75, -z+.5'
 11	'x+.25, y+.25, -z'
 12	'x+.75, -y+.5, z+.25'
 13	'x+.25, -y, z+.25'
 14	'x+.25, -y+.5, z+.75'
 15	'-x, y+.25, z+.25'
 16	'-x+.5, y+.75, z+.25'
 17	'-x+.5, y+.25, z+.75'
 18	'-x, -y+.5, -z+.5'
 19	'-x+.5, -y, -z+.5'
 20	'-x+.5, -y+.5, -z'
 21	'-x+.25, -y+.75, z+.5'
 22	'-x+.75, -y+.25, z+.5'
 23	'-x+.75, -y+.75, z'
 24	'-x+.25, y+.5, -z+.75'
 25	'-x+.75, y, -z+.75'
 26	'-x+.75, y+.5, -z+.25'
 27	'x, -y+.75, -z+.75'
 28	'x+.5, -y+.25, -z+.75'
 29	'x+.5, -y+.75, -z+.25'
 30	'x, y+.5, z+.5'
 31	'x+.5, y, z+.5'
 32	'x+.5, y+.5, z'
loop_
_atom_type_symbol
_atom_type_oxidation_number
C4+	4
F1-	-1
Gd3+	3
K1+	1
O2-	-2
loop_
_atom_site_label
_atom_site_type_symbol
_atom_site_symmetry_multiplicity
_atom_site_Wyckoff_symbol
_atom_site_fract_x
_atom_site_fract_y
_atom_site_fract_z
_atom_site_occupancy
_atom_site_attached_hydrogens
K1 K1+ 16 g 0.125 0.125 0.2075(1) 1. 0 
Gd1 Gd3+ 16 f 0.125 0.4424(1) 0.125 1. 0 
F1 F1- 32 h 0.8106(6) 0.7708(3) 0.1090(2) 1. 0 
C1 C4+ 16 g 0.125 0.125 0.5030(3) 1. 0 
O1 O2- 16 g 0.125 0.125 0.5627(2) 1. 0 
O2 O2- 32 h 0.7849(6) 0.6242(4) 0.4744(2) 1. 0 

loop_
_atom_site_aniso_label
_atom_site_aniso_type_symbol
_atom_site_aniso_U_11
_atom_site_aniso_U_22
_atom_site_aniso_U_33
_atom_site_aniso_U_12
_atom_site_aniso_U_13
_atom_site_aniso_U_23
K1 K1+ 0.0057(1) 0.0067(1) 0.0063(1) 0 -.0006(1) 0
Gd1 Gd3+ 0.0194(7) 0.0131(5) 0.0181(6) 0.0045(8) 0 0
F1 F1- 0.0191(23) 0.0119(17) 0.0050(15) -.0004(24) 0 0
C1 C4+ 0.0131(25) 0.0086(20) 0.0088(20) -.0055(27) 0 0
O1 O2- 0.0137(15) 0.0174(13) 0.0105(12) 0.0012(18) 0.0032(12) 0.0026(15)
O2 O2- 0.0098(14) 0.0149(13) 0.0390(21) 0.0036(13) -.0073(16) -.0149(14)
#End of data_79945-ICSD


