data_426641-ICSD
#?2014 by Fachinformationszentrum Karlsruhe, and the U.S. Secretary of 
#Commerce on behalf of the United States.  All rights reserved.
_database_code_ICSD                426641
_audit_creation_date               2014/08/01
_chemical_name_systematic
;
Dialuminium Orthophosphate Trihydroxide
;
_chemical_formula_structural       'Al2 (P O4) (O H)3'
_chemical_formula_sum              'H3 Al2 O7 P1'
_chemical_name_mineral             Augelite
_publ_section_title
;
Crystal-chemical investigation of Al2 (P O4) (O H)3 augelite from 
Rapid Creek, Yukon, Canada
;
loop_
_citation_id
_citation_journal_abbrev
_citation_year
_citation_journal_volume
_citation_journal_issue
_citation_page_first
_citation_page_last
_citation_journal_id_ASTM
primary 'Zeitschrift fuer Kristallographie - Crystalline Materials'
 2014 229 1 8 16 ZKCMAJ
_publ_author_name
;
Capitelli, Francesco;Saviano, Michele;Ghiara, Maria Rosaria;Rossi, 
Manuela
;
_cell_length_a                     13.0740(10)
_cell_length_b                     7.9690(7)
_cell_length_c                     5.0910(7)
_cell_angle_alpha                  90.00
_cell_angle_beta                   112.282(5)
_cell_angle_gamma                  90.00
_cell_volume                       490.8
_cell_formula_units_Z              4
_symmetry_space_group_name_H-M     'C 1 2/m 1'
_symmetry_Int_Tables_number        12
_refine_ls_R_factor_all            .0222
loop_
_symmetry_equiv_pos_site_id
_symmetry_equiv_pos_as_xyz
  1	'-x, y, -z'
  2	'-x, -y, -z'
  3	'x, -y, z'
  4	'x, y, z'
  5	'-x+.5, y+.5, -z'
  6	'-x+.5, -y+.5, -z'
  7	'x+.5, -y+.5, z'
  8	'x+.5, y+.5, z'
loop_
_atom_type_symbol
_atom_type_oxidation_number
Al3+	3
H1+	1
O2-	-2
P5+	5
loop_
_atom_site_label
_atom_site_type_symbol
_atom_site_symmetry_multiplicity
_atom_site_Wyckoff_symbol
_atom_site_fract_x
_atom_site_fract_y
_atom_site_fract_z
_atom_site_occupancy
_atom_site_attached_hydrogens
_atom_site_U_iso_or_equiv
Al1 Al3+ 4 g 0.0000 0.19884(10) 0.0000 1 0 0.0115(2) 
Al2 Al3+ 4 i 0.18926(6) 0.0000 0.97978(15) 1 0 0.0102(2) 
P1 P5+ 4 i 0.35286(5) 0.0000 0.62796(13) 1 0 0.0092(2) 
O1 O2- 4 i 0.25813(16) 0.0000 0.7340(4) 1 0 0.0145(4) 
O2 O2- 4 i 0.30408(17) 0.0000 0.3012(4) 1 0 0.0224(5) 
O3 O2- 8 j 0.42183(13) 0.1567(2) 0.7162(3) 1 0 0.0248(4) 
O4 O2- 4 i 0.08483(15) 0.0000 0.1982(4) 1 0 0.0120(4) 
O5 O2- 8 j 0.10755(11) 0.18118(17) 0.8448(3) 1 0 0.0143(3) 
H1 H1+ 4 i 0.125(3) 0.0000 0.396(3) 1 0 0.043(12) 
H2 H1+ 8 j 0.112(3) 0.252(4) 0.704(6) 1 0 0.059(11) 

loop_
_atom_site_aniso_label
_atom_site_aniso_type_symbol
_atom_site_aniso_U_11
_atom_site_aniso_U_22
_atom_site_aniso_U_33
_atom_site_aniso_U_12
_atom_site_aniso_U_13
_atom_site_aniso_U_23
Al1 Al3+ 0.0134(4) 0.0108(4) 0.0121(4) 0.000 0.0068(3) 0.000
Al2 Al3+ 0.0114(4) 0.0128(4) 0.0066(4) 0.000 0.0037(3) 0.000
P1 P5+ 0.0110(4) 0.0110(4) 0.0060(3) 0.000 0.0036(2) 0.000
O1 O2- 0.0144(9) 0.0211(10) 0.0101(8) 0.000 0.0070(7) 0.000
O2 O2- 0.0129(10) 0.0481(14) 0.0061(9) 0.000 0.0033(7) 0.000
O3 O2- 0.0298(8) 0.0215(8) 0.0312(8) -0.0135(6) 0.0208(7) -0.0152(6)
O4 O2- 0.0132(9) 0.0157(9) 0.0060(8) 0.000 0.0023(7) 0.000
O5 O2- 0.0173(7) 0.0142(7) 0.0150(6) 0.0024(5) 0.0102(5) 0.0041(5)
#End of data_426641-ICSD


