data_92771-ICSD
#?2014 by Fachinformationszentrum Karlsruhe, and the U.S. Secretary of 
#Commerce on behalf of the United States.  All rights reserved.
_database_code_ICSD                92771
_audit_creation_date               2003/04/01
_chemical_name_systematic          'Disodium Sulfide - Hp'
_chemical_formula_structural       'Na2 S'
_chemical_formula_sum              'Na2 S1'
_publ_section_title
;
Reversible phase transitions in Na2 S under pressure: a comparison 
with the cation array in Na2 S O4
;
loop_
_citation_id
_citation_journal_abbrev
_citation_year
_citation_journal_volume
_citation_page_first
_citation_page_last
_citation_journal_id_ASTM
primary 'Acta Crystallographica, Section B: Structural Science'
 2001 57 151 156 ASBSDK
_publ_author_name
;
Vegas, A.;Grzechnik, A.;Syassen, K.;Loa, I.;Hanfland, M.;Jansen, M.
;
_cell_length_a                     6.707(5)
_cell_length_b                     4.120(3)
_cell_length_c                     8.025(4)
_cell_angle_alpha                  90
_cell_angle_beta                   90
_cell_angle_gamma                  90
_cell_volume                       221.75
_cell_formula_units_Z              4
_symmetry_space_group_name_H-M     'P n m a'
_symmetry_Int_Tables_number        62
_refine_ls_R_factor_all            .08
loop_
_symmetry_equiv_pos_site_id
_symmetry_equiv_pos_as_xyz
  1	'x+.5, y, -z+.5'
  2	'x, -y+.5, z'
  3	'-x+.5, y+.5, z+.5'
  4	'-x, -y, -z'
  5	'-x+.5, -y, z+.5'
  6	'-x, y+.5, -z'
  7	'x+.5, -y+.5, -z+.5'
  8	'x, y, z'
loop_
_atom_type_symbol
_atom_type_oxidation_number
Na1+	1
S2-	-2
loop_
_atom_site_label
_atom_site_type_symbol
_atom_site_symmetry_multiplicity
_atom_site_Wyckoff_symbol
_atom_site_fract_x
_atom_site_fract_y
_atom_site_fract_z
_atom_site_occupancy
_atom_site_attached_hydrogens
S1 S2- 4 c 0.2457(5) 0.250 0.8843(2) 1. 0 
Na1 Na1+ 4 c 0.0173(7) 0.250 0.1851(3) 1. 0 
Na2 Na1+ 4 c 0.1517(6) 0.250 0.5758(4) 1. 0 

#End of data_92771-ICSD


