data_416233-ICSD
#?2014 by Fachinformationszentrum Karlsruhe, and the U.S. Secretary of 
#Commerce on behalf of the United States.  All rights reserved.
_database_code_ICSD                416233
_audit_creation_date               2007/08/01
_chemical_name_systematic
;
Barium Zinc Tellurate(IV) Dichloride
;
_chemical_formula_structural       'Ba Zn (Te O3) Cl2'
_chemical_formula_sum              'Ba1 Cl2 O3 Te1 Zn1'
_publ_section_title
;
Synthesis, crystal structures and characterizations of Ba Zn (Se O3)2 
and Ba Zn (Te O3) Cl2
;
loop_
_citation_id
_citation_journal_abbrev
_citation_year
_citation_journal_volume
_citation_journal_issue
_citation_page_first
_citation_page_last
_citation_journal_id_ASTM
primary 'Journal of Solid State Chemistry' 2006 179 6 1911 1917 JSSCBI
_publ_author_name
;
Jiang Hailong;Feng Mei Ling;Mao Jiang Gao
;
_cell_length_a                     12.345(4)
_cell_length_b                     5.6458(19)
_cell_length_c                     19.186(7)
_cell_angle_alpha                  90.00
_cell_angle_beta                   90.00
_cell_angle_gamma                  90.00
_cell_volume                       1337.21
_cell_formula_units_Z              8
_symmetry_space_group_name_H-M     'P n m a'
_symmetry_Int_Tables_number        62
_refine_ls_R_factor_all            .029
loop_
_symmetry_equiv_pos_site_id
_symmetry_equiv_pos_as_xyz
  1	'x+.5, y, -z+.5'
  2	'x, -y+.5, z'
  3	'-x+.5, y+.5, z+.5'
  4	'-x, -y, -z'
  5	'-x+.5, -y, z+.5'
  6	'-x, y+.5, -z'
  7	'x+.5, -y+.5, -z+.5'
  8	'x, y, z'
loop_
_atom_type_symbol
_atom_type_oxidation_number
Ba2+	2
Cl1-	-1
O2-	-2
Te4+	4
Zn2+	2
loop_
_atom_site_label
_atom_site_type_symbol
_atom_site_symmetry_multiplicity
_atom_site_Wyckoff_symbol
_atom_site_fract_x
_atom_site_fract_y
_atom_site_fract_z
_atom_site_occupancy
_atom_site_attached_hydrogens
_atom_site_U_iso_or_equiv
Ba1 Ba2+ 4 c 0.33394(3) 0.2500 0.32988(2) 1 0 0.01640(10) 
Ba2 Ba2+ 4 c 0.55619(3) 0.7500 0.209942(19) 1 0 0.01703(10) 
Zn1 Zn2+ 4 c 0.51193(6) 0.7500 0.40686(4) 1 0 0.01431(16) 
Zn2 Zn2+ 4 c 0.57016(6) 0.2500 0.07313(4) 1 0 0.01634(16) 
Te1 Te4+ 4 c 0.64040(3) 0.2500 0.33991(2) 1 0 0.01364(10) 
Te2 Te4+ 4 c 0.72512(3) 0.7500 0.04714(2) 1 0 0.01284(10) 
Cl1 Cl1- 4 c 0.80373(15) 0.7500 0.26021(10) 1 0 0.0287(4) 
Cl2 Cl1- 4 c 0.43982(16) 0.7500 0.04302(9) 1 0 0.0316(4) 
Cl3 Cl1- 4 c 0.43794(13) 0.2500 0.15689(9) 1 0 0.0227(3) 
Cl4 Cl1- 4 c 0.62473(19) 0.7500 0.49729(11) 1 0 0.0447(6) 
O1 O2- 4 c 0.6608(4) 0.2500 0.2459(2) 1 0 0.0261(11) 
O2 O2- 8 d 0.5362(2) 0.0079(6) 0.33951(16) 1 0 0.0187(7) 
O3 O2- 4 c 0.8576(4) 0.7500 0.0909(3) 1 0 0.0327(13) 
O4 O2- 8 d 0.6694(2) 0.9918(6) 0.10330(15) 1 0 0.0154(6) 

loop_
_atom_site_aniso_label
_atom_site_aniso_type_symbol
_atom_site_aniso_U_11
_atom_site_aniso_U_22
_atom_site_aniso_U_33
_atom_site_aniso_U_12
_atom_site_aniso_U_13
_atom_site_aniso_U_23
Ba1 Ba2+ 0.01089(17) 0.0179(2) 0.02038(19) 0.000 -0.00092(14) 0.000
Ba2 Ba2+ 0.01601(19) 0.0180(2) 0.01708(18) 0.000 0.00413(14) 0.000
Zn1 Zn2+ 0.0133(3) 0.0123(4) 0.0173(3) 0.000 -0.0013(3) 0.000
Zn2 Zn2+ 0.0155(4) 0.0145(4) 0.0190(4) 0.000 -0.0013(3) 0.000
Te1 Te4+ 0.01176(19) 0.0126(2) 0.01658(19) 0.000 -0.00141(14) 0.000
Te2 Te4+ 0.01410(19) 0.0122(2) 0.01217(18) 0.000 0.00038(14) 0.000
Cl1 Cl1- 0.0250(9) 0.0265(10) 0.0347(10) 0.000 -0.0113(7) 0.000
Cl2 Cl1- 0.0396(11) 0.0368(12) 0.0183(8) 0.000 -0.0076(7) 0.000
Cl3 Cl1- 0.0180(8) 0.0222(9) 0.0277(8) 0.000 0.0050(6) 0.000
Cl4 Cl1- 0.0445(12) 0.0536(14) 0.0361(11) 0.000 -0.0245(9) 0.000
O1 O2- 0.020(2) 0.042(3) 0.016(2) 0.000 0.0058(19) 0.000
O2 O2- 0.0183(16) 0.0129(17) 0.0249(16) -0.0031(13) -0.0019(13) 0.0042(13)
O3 O2- 0.009(2) 0.054(4) 0.035(3) 0.000 -0.003(2) 0.000
O4 O2- 0.0183(15) 0.0104(16) 0.0175(14) 0.0017(13) -0.0005(12) 0.0002(12)
#End of data_416233-ICSD


