data_79527-ICSD
#?2014 by Fachinformationszentrum Karlsruhe, and the U.S. Secretary of 
#Commerce on behalf of the United States.  All rights reserved.
_database_code_ICSD                79527
_audit_creation_date               1996/10/14
_audit_update_record               2007/08/01
_chemical_name_systematic          'Calcium Sulfate(VI) - Gamma'
_chemical_formula_structural       'Ca (S O4)'
_chemical_formula_sum              'Ca1 O4 S1'
_chemical_name_mineral             'Anhydrite III'
_publ_section_title
;
Investigation of the crystal structure of gamma-Ca S O4, Ca S O4 . 
0.5(H2 O), and Ca S O4 . 0.6(H2 O) by powder diffraction methods
;
loop_
_citation_id
_citation_journal_abbrev
_citation_year
_citation_journal_volume
_citation_page_first
_citation_page_last
_citation_journal_id_ASTM
primary 'Journal of Solid State Chemistry' 1995 117 165 176 JSSCBI
_publ_author_name
;
Bezou, C.;Nonat, A.;Mutin, J.C.;Christensen, A.N.;Lehmann, M.S.
;
_cell_length_a                     12.0777(7)
_cell_length_b                     6.9723(4)
_cell_length_c                     6.3040(2)
_cell_angle_alpha                  90.
_cell_angle_beta                   90.
_cell_angle_gamma                  90.
_cell_volume                       530.86
_cell_formula_units_Z              6
_symmetry_space_group_name_H-M     'C 2 2 2'
_symmetry_Int_Tables_number        21
_refine_ls_R_factor_all            .048
loop_
_symmetry_equiv_pos_site_id
_symmetry_equiv_pos_as_xyz
  1	'-x, y, -z'
  2	'x, -y, -z'
  3	'-x, -y, z'
  4	'x, y, z'
  5	'-x+.5, y+.5, -z'
  6	'x+.5, -y+.5, -z'
  7	'-x+.5, -y+.5, z'
  8	'x+.5, y+.5, z'
loop_
_atom_type_symbol
_atom_type_oxidation_number
Ca2+	2
O2-	-2
S6+	6
loop_
_atom_site_label
_atom_site_type_symbol
_atom_site_symmetry_multiplicity
_atom_site_Wyckoff_symbol
_atom_site_fract_x
_atom_site_fract_y
_atom_site_fract_z
_atom_site_occupancy
_atom_site_attached_hydrogens
_atom_site_B_iso_or_equiv
S1 S6+ 2 d 0 0 0.5 1. 0 0.73(36) 
S2 S6+ 4 k 0.25 0.25 0.1648(25) 1. 0 0.56(19) 
Ca1 Ca2+ 4 k 0.25 0.25 0.6664(26) 1. 0 1.60(18) 
Ca2 Ca2+ 2 a 0 0 0 1. 0 0.62(19) 
O1 O2- 8 l 0.0713(7) 0.8842(10) 0.3548(12) 1. 0 0.69(14) 
O2 O2- 8 l 0.2267(7) 0.4152(13) 0.3049(14) 1. 0 0.18(15) 
O3 O2- 8 l 0.3494(5) 0.274(1) 0.0292(12) 1. 0 1.01(15) 

#End of data_79527-ICSD


