data_64740-ICSD
#?2014 by Fachinformationszentrum Karlsruhe, and the U.S. Secretary of 
#Commerce on behalf of the United States.  All rights reserved.
_database_code_ICSD                64740
_audit_creation_date               1997/11/10
_chemical_name_systematic          'Magnesium Silicate'
_chemical_formula_structural       'Mg2 Si O4'
_chemical_formula_sum              'Mg2 O4 Si1'
_chemical_name_mineral             Forsterite
_publ_section_title
;
Effects of temperature and pressure on the crystal structure of 
Forsterite
;
loop_
_citation_id
_citation_journal_abbrev
_citation_year
_citation_journal_volume
_citation_page_first
_citation_page_last
_citation_journal_id_ASTM
primary 'American Mineralogist' 1976 61 1280 1293 AMMIAY
_publ_author_name                  'Hazen, R.M.'
_cell_length_a                     4.798(5)
_cell_length_b                     10.36(1)
_cell_length_c                     6.068(6)
_cell_angle_alpha                  90.
_cell_angle_beta                   90.
_cell_angle_gamma                  90.
_cell_volume                       301.62
_cell_formula_units_Z              4
_symmetry_space_group_name_H-M     'P b n m'
_symmetry_Int_Tables_number        62
_refine_ls_R_factor_all            .129
loop_
_symmetry_equiv_pos_site_id
_symmetry_equiv_pos_as_xyz
  1	'-x+.5, y+.5, z'
  2	'x, y, -z+.5'
  3	'x+.5, -y+.5, z+.5'
  4	'-x, -y, -z'
  5	'x+.5, -y+.5, -z'
  6	'-x, -y, z+.5'
  7	'-x+.5, y+.5, -z+.5'
  8	'x, y, z'
loop_
_atom_type_symbol
_atom_type_oxidation_number
Mg2+	2
O2-	-2
Si4+	4
loop_
_atom_site_label
_atom_site_type_symbol
_atom_site_symmetry_multiplicity
_atom_site_Wyckoff_symbol
_atom_site_fract_x
_atom_site_fract_y
_atom_site_fract_z
_atom_site_occupancy
_atom_site_attached_hydrogens
_atom_site_B_iso_or_equiv
Mg1 Mg2+ 4 a 0 0 0 1. 0 1.8(3) 
Mg2 Mg2+ 4 c 0.991(3) 0.280(1) 0.25 1. 0 1.8(3) 
Si1 Si4+ 4 c 0.427(2) 0.094(1) 0.25 1. 0 1.0(2) 
O1 O2- 4 c 0.737(2) 0.088(2) 0.25 1. 0 1.0(5) 
O2 O2- 4 c 0.224(4) 0.458(3) 0.25 1. 0 1.0(5) 
O3 O2- 8 d 0.275(3) 0.160(2) 0.030(3) 1. 0 1.8(4) 

#End of data_64740-ICSD


