data_261112-ICSD
#?2014 by Fachinformationszentrum Karlsruhe, and the U.S. Secretary of 
#Commerce on behalf of the United States.  All rights reserved.
_database_code_ICSD                261112
_audit_creation_date               2011/02/01
_chemical_name_systematic
;
Dipotassium Tetrakis(thiocyanato)palladate(II)
;
_chemical_formula_structural       'K2 Pd (S C N)4'
_chemical_formula_sum              'C4 K2 N4 Pd1 S4'
_publ_section_title
;
Refinement of crystal structure of potassium tetrakis(thiocyanato - 
kappa S) palladate(II), K2 Pd [S C N]4
;
loop_
_citation_id
_citation_journal_abbrev
_citation_year
_citation_journal_volume
_citation_journal_issue
_citation_page_first
_citation_page_last
_citation_journal_id_ASTM
primary 'Zeitschrift fuer Kristallographie - New Crystal Structures'
 2010 225 4 619 620 ZKNSFT
_publ_author_name                  'Ha Kwang'
_cell_length_a                     4.2388(3)
_cell_length_b                     12.8551(10)
_cell_length_c                     11.1037(9)
_cell_angle_alpha                  90.00
_cell_angle_beta                   98.229(2)
_cell_angle_gamma                  90.00
_cell_volume                       598.81
_cell_formula_units_Z              2
_symmetry_space_group_name_H-M     'P 1 21/c 1'
_symmetry_Int_Tables_number        14
_refine_ls_R_factor_all            .0146
loop_
_symmetry_equiv_pos_site_id
_symmetry_equiv_pos_as_xyz
  1	'x, -y+.5, z+.5'
  2	'-x, -y, -z'
  3	'-x, y+.5, -z+.5'
  4	'x, y, z'
loop_
_atom_type_symbol
_atom_type_oxidation_number
C4+	4
K1+	1
N3-	-3
Pd2+	2
S2-	-2
loop_
_atom_site_label
_atom_site_type_symbol
_atom_site_symmetry_multiplicity
_atom_site_Wyckoff_symbol
_atom_site_fract_x
_atom_site_fract_y
_atom_site_fract_z
_atom_site_occupancy
_atom_site_attached_hydrogens
_atom_site_U_iso_or_equiv
Pd1 Pd2+ 2 a 0.0000 0.5000 0.5000 1 0 0.01492(10) 
K1 K1+ 4 e 0.71923(10) 0.35421(3) 0.02877(4) 1 0 0.02413(13) 
S1 S2- 4 e 0.21954(11) 0.59446(4) 0.35148(4) 1 0 0.02068(13) 
S2 S2- 4 e 0.14020(12) 0.33650(3) 0.43537(4) 1 0 0.02249(13) 
N1 N3- 4 e -0.1937(4) 0.56382(13) 0.13066(14) 1 0 0.0267(4) 
N2 N3- 4 e 0.3009(4) 0.34673(14) 0.19722(16) 1 0 0.0303(4) 
C1 C4+ 4 e -0.0362(4) 0.57455(14) 0.22409(17) 1 0 0.0202(4) 
C2 C4+ 4 e 0.2355(4) 0.34558(14) 0.29428(18) 1 0 0.0205(4) 

loop_
_atom_site_aniso_label
_atom_site_aniso_type_symbol
_atom_site_aniso_U_11
_atom_site_aniso_U_22
_atom_site_aniso_U_33
_atom_site_aniso_U_12
_atom_site_aniso_U_13
_atom_site_aniso_U_23
Pd1 Pd2+ 0.01771(13) 0.01593(13) 0.01152(14) -0.00041(7) 0.00352(8) 
-0.00018(7)
K1 K1+ 0.0215(2) 0.0270(2) 0.0246(2) 0.00160(17) 0.00585(18) -0.00102(17)
S1 S2- 0.0238(2) 0.0230(2) 0.0159(2) -0.00529(19) 0.00507(18) 0.00035(18)
S2 S2- 0.0321(3) 0.0182(2) 0.0188(3) 0.00169(19) 0.0090(2) -0.00025(18)
N1 N3- 0.0327(9) 0.0261(9) 0.0208(9) -0.0005(7) 0.0022(8) 0.0029(7)
N2 N3- 0.0347(10) 0.0335(10) 0.0236(10) 0.0027(8) 0.0079(8) -0.0035(7)
C1 C4+ 0.0248(10) 0.0170(9) 0.0200(10) 0.0010(7) 0.0077(8) 0.0029(7)
C2 C4+ 0.0207(9) 0.0188(9) 0.0219(11) 0.0027(7) 0.0031(8) -0.0022(8)
#End of data_261112-ICSD


