data_31623-ICSD
#?2014 by Fachinformationszentrum Karlsruhe, and the U.S. Secretary of 
#Commerce on behalf of the United States.  All rights reserved.
_database_code_ICSD                31623
_audit_creation_date               1986/10/03
_audit_update_record               2012/08/01
_chemical_name_systematic          'Disodium Uranium Fluoride - Gamma'
_chemical_formula_structural       'Na2 U F6'
_chemical_formula_sum              'F6 Na2 U1'
_publ_section_title
;
Crystal Chemical Studies of the 5f-Series of Elements. I.New 
Structure Types
;
loop_
_citation_id
_citation_journal_abbrev
_citation_year
_citation_journal_volume
_citation_page_first
_citation_page_last
_citation_journal_id_ASTM
primary 'Acta Crystallographica (1,1948-23,1967)' 1948 1 265 268 ACCRA9
_publ_author_name                  'Zachariasen, W.H.'
_cell_length_a                     5.55(1)
_cell_length_b                     4.02(1)
_cell_length_c                     11.69(2)
_cell_angle_alpha                  90.
_cell_angle_beta                   90.
_cell_angle_gamma                  90.
_cell_volume                       260.82
_cell_formula_units_Z              2
_symmetry_space_group_name_H-M     'I m m m'
_symmetry_Int_Tables_number        71
loop_
_symmetry_equiv_pos_site_id
_symmetry_equiv_pos_as_xyz
  1	'x, y, -z'
  2	'x, -y, z'
  3	'-x, y, z'
  4	'-x, -y, -z'
  5	'-x, -y, z'
  6	'-x, y, -z'
  7	'x, -y, -z'
  8	'x, y, z'
  9	'x+.5, y+.5, -z+.5'
 10	'x+.5, -y+.5, z+.5'
 11	'-x+.5, y+.5, z+.5'
 12	'-x+.5, -y+.5, -z+.5'
 13	'-x+.5, -y+.5, z+.5'
 14	'-x+.5, y+.5, -z+.5'
 15	'x+.5, -y+.5, -z+.5'
 16	'x+.5, y+.5, z+.5'
loop_
_atom_type_symbol
_atom_type_oxidation_number
F1-	-1
Na1+	1
U4+	4
loop_
_atom_site_label
_atom_site_type_symbol
_atom_site_symmetry_multiplicity
_atom_site_Wyckoff_symbol
_atom_site_fract_x
_atom_site_fract_y
_atom_site_fract_z
_atom_site_occupancy
_atom_site_attached_hydrogens
U1 U4+ 2 a 0 0 0 1. 0 
Na1 Na1+ 4 i 0 0 0.333 1. 0 
F1 F1- 4 f 0.25 0.5 0 1. 0 
F2 F1- 8 m 0.25 0 0.166 1. 0 

#End of data_31623-ICSD


