data_74823-ICSD
#?2014 by Fachinformationszentrum Karlsruhe, and the U.S. Secretary of 
#Commerce on behalf of the United States.  All rights reserved.
_database_code_ICSD                74823
_audit_creation_date               1995/10/17
_chemical_name_systematic
;
Lithium Tetrabarium Heptanitridoditungstate
;
_chemical_formula_structural       'Li Ba4 (W2 N7)'
_chemical_formula_sum              'Ba4 Li1 N7 W2'
_publ_section_title
;
LiBa4(Mo2N7) und LiBa4(W2N7): neue Nitridomplybdate/wolframate(VI) 
mit dimeren Tetraeder-Anionen
;
loop_
_citation_id
_citation_journal_abbrev
_citation_year
_citation_journal_volume
_citation_page_first
_citation_page_last
_citation_journal_id_ASTM
primary 'Zeitschrift fuer Naturforschung, B: Chemical Sciences'
 1994 49 5 8 ZNBSEN
_publ_author_name                  'Hoehn, P.;Kniep, R.;Maier, J.'
_cell_length_a                     15.552(4)
_cell_length_b                     6.444(1)
_cell_length_c                     10.424(2)
_cell_angle_alpha                  90.
_cell_angle_beta                   99.30(3)
_cell_angle_gamma                  90.
_cell_volume                       1030.93
_cell_formula_units_Z              4
_symmetry_space_group_name_H-M     'P 1 2/n 1'
_symmetry_Int_Tables_number        13
_refine_ls_R_factor_all            .055
loop_
_symmetry_equiv_pos_site_id
_symmetry_equiv_pos_as_xyz
  1	'x+.5, -y, z+.5'
  2	'-x+.5, y, -z+.5'
  3	'-x, -y, -z'
  4	'x, y, z'
loop_
_atom_type_symbol
_atom_type_oxidation_number
Ba2+	2
Li1+	1
N3-	-3
W6+	6
loop_
_atom_site_label
_atom_site_type_symbol
_atom_site_symmetry_multiplicity
_atom_site_Wyckoff_symbol
_atom_site_fract_x
_atom_site_fract_y
_atom_site_fract_z
_atom_site_occupancy
_atom_site_attached_hydrogens
Ba1 Ba2+ 4 g 0.92370(7) 0.7727(1) 0.07839(9) 1. 0 
Ba2 Ba2+ 4 g 0.98495(7) 0.2787(1) 0.24200(9) 1. 0 
Ba3 Ba2+ 4 g 0.12047(7) 0.8477(1) 0.42517(9) 1. 0 
Ba4 Ba2+ 2 e 0.75 0.6979(2) 0.75 1. 0 
Ba5 Ba2+ 2 f 0.75 0.9911(2) 0.25 1. 0 
W1 W6+ 4 g 0.90122(4) 0.6665(1) 0.42163(6) 1. 0 
W2 W6+ 4 g 0.15376(4) 0.7727(1) 0.10751(5) 1. 0 
N1 N3- 4 g 0.084(1) 0.987(2) 0.141(1) 1. 0 
N2 N3- 4 g 0.567(1) 0.918(2) 0.143(1) 1. 0 
N3 N3- 2 e 0.25 0.756(3) 0.25 1. 0 
N4 N3- 4 g 0.591(1) 0.468(2) 0.609(1) 1. 0 
N5 N3- 4 g 0.847(1) 0.521(2) 0.280(2) 1. 0 
N6 N3- 4 g 0.692(1) 0.182(2) 0.452(1) 1. 0 
N7 N3- 2 b 0.5 0.5 0 1. 0 
N8 N3- 4 g 0.672(2) 0.715(3) 0.964(2) 1. 0 
Li1 Li1+ 4 g 0.763(2) 0.461(5) 0.128(3) 1. 0 

loop_
_atom_site_aniso_label
_atom_site_aniso_type_symbol
_atom_site_aniso_U_11
_atom_site_aniso_U_22
_atom_site_aniso_U_33
_atom_site_aniso_U_12
_atom_site_aniso_U_13
_atom_site_aniso_U_23
Ba1 Ba2+ 0.0155(5) 0.0145(4) 0.0118(4) -.0008(3) 0.0027(3) 0.0015(3)
Ba2 Ba2+ 0.0201(5) 0.0108(4) 0.0188(4) 0.0021(4) 0.0086(4) -.0002(3)
Ba3 Ba2+ 0.0110(4) 0.0146(4) 0.0136(4) 0.0008(3) 0.0017(3) -.0002(3)
Ba4 Ba2+ 0.0144(7) 0.0142(5) 0.0125(6) 0 0.0031(5) 0
Ba5 Ba2+ 0.0119(7) 0.0241(6) 0.0145(6) 0 0.0006(5) 0
W1 W6+ 0.0115(3) 0.0095(3) 0.0090(3) 0.0011(2) 0.0011(2) 0.0001(2)
W2 W6+ 0.0072(3) 0.0086(2) 0.0084(3) 0.0004(2) 0.0001(2) -.0003(2)
N1 N3- 0.0348(96) 0.0200(62) 0.0145(65) -.0054(65) 0.0142(64) 0.0008(49)
N2 N3- 0.0210(77) 0.0199(58) 0.0073(55) -.0009(56) 0.0018(52) -.0062(44)
N3 N3- 0.038(15) 0.031(11) 0.0058(82) 0 0.0061(85) 0
N4 N3- 0.0282(86) 0.0146(56) 0.0104(59) -.0063(58) -.0137(56) -.0036(44)
N5 N3- 0.0056(64) 0.0321(76) 0.0307(80) -.0086(60) -.0062(59) -.0092(60)
N6 N3- 0.0157(69) 0.0132(53) 0.0133(58) -.0051(50) 0.0021(50) 0.0038(42)
N7 N3- 0.0089(98) 0.0168(88) 0.044(14) 0.0019(80) -.0160(94) 0.0111(85)
N8 N3- 0.126(27) 0.0222(82) 0.074(16) 0.011(12) 0.073(17) -.0130(88)
Li1 Li1+ 0.015(16) 0.039(17) 0.028(16) -0.024(14) 0.006(13) -0.009(13)
#End of data_74823-ICSD


