data_200970-ICSD
#?2014 by Fachinformationszentrum Karlsruhe, and the U.S. Secretary of 
#Commerce on behalf of the United States.  All rights reserved.
_database_code_ICSD                200970
_audit_creation_date               1980/12/31
_audit_update_record               2012/02/01
_chemical_name_systematic
;
Dipotassium Pentachloroindate Hydrate
;
_chemical_formula_structural       '(K2 In Cl5) (H2 O)'
_chemical_formula_sum              'H2 Cl5 In1 K2 O1'
_publ_section_title
;
Structural stdudy of K2 In Cl5, H2 O by X-Ray, Raman and IR 
spectroscopies
;
loop_
_citation_id
_citation_journal_abbrev
_citation_year
_citation_journal_volume
_citation_page_first
_citation_page_last
_citation_journal_id_ASTM
primary 'Spectrochimica Acta A, Molecular Spectroscopy' 1980 36 403 411 SAMCAS
_publ_author_name
;
Wignacourt, J.P.;Lorriaux-Rubbens, A.;Barbier, P.;Mairesse, 
G.;Wallart, F.
;
_cell_length_a                     13.905(8)
_cell_length_b                     9.952(5)
_cell_length_c                     7.185(5)
_cell_angle_alpha                  90.
_cell_angle_beta                   90.
_cell_angle_gamma                  90.
_cell_volume                       994.28
_cell_formula_units_Z              4
_symmetry_space_group_name_H-M     'P n m a'
_symmetry_Int_Tables_number        62
_refine_ls_R_factor_all            .028
loop_
_symmetry_equiv_pos_site_id
_symmetry_equiv_pos_as_xyz
  1	'x+.5, y, -z+.5'
  2	'x, -y+.5, z'
  3	'-x+.5, y+.5, z+.5'
  4	'-x, -y, -z'
  5	'-x+.5, -y, z+.5'
  6	'-x, y+.5, -z'
  7	'x+.5, -y+.5, -z+.5'
  8	'x, y, z'
loop_
_atom_type_symbol
_atom_type_oxidation_number
Cl1-	-1
H1+	1
In3+	3
K1+	1
O2-	-2
loop_
_atom_site_label
_atom_site_type_symbol
_atom_site_symmetry_multiplicity
_atom_site_Wyckoff_symbol
_atom_site_fract_x
_atom_site_fract_y
_atom_site_fract_z
_atom_site_occupancy
_atom_site_attached_hydrogens
_atom_site_B_iso_or_equiv
In1 In3+ 4 c 0.11306(2) 0.25 0.81263(4) 1. 0 0 
Cl1 Cl1- 4 c 0.21723(11) 0.25 1.09030(17) 1. 0 0 
Cl2 Cl1- 4 c 0.25492(12) 0.25 0.60549(16) 1. 0 0 
Cl3 Cl1- 4 c 0.00208(10) 0.25 0.54144(20) 1. 0 0 
Cl4 Cl1- 8 d 0.10524(9) 0.0006(1) 0.81628(16) 1. 0 0 
O1 O2- 4 c -.01175(29) 0.25 1.00307(62) 1. 0 0 
K1 K1+ 8 d 0.35278(7) 0.00030(12) 0.85741(14) 1. 0 0 
H1 H1+ 8 d -.046(3) 0.184(4) 1.037(5) 1. 0 3.877 

#End of data_200970-ICSD


