data_31288-ICSD
#?2014 by Fachinformationszentrum Karlsruhe, and the U.S. Secretary of 
#Commerce on behalf of the United States.  All rights reserved.
_database_code_ICSD                31288
_audit_creation_date               1982/12/31
_audit_update_record               2006/04/01
_chemical_name_systematic          'Magnesium Catena-silicate'
_chemical_formula_structural       'Mg (Si O3)'
_chemical_formula_sum              'Mg1 O3 Si1'
_chemical_name_mineral             Protoenstatite
_publ_section_title
;
The transition of orthoenstatite to protoenstatite and the structure 
at 1080 C
;
loop_
_citation_id
_citation_journal_abbrev
_citation_year
_citation_journal_volume
_citation_page_first
_citation_page_last
_citation_journal_id_ASTM
primary 'Zeitschrift fuer Kristallographie (1979-2010)' 1982 160 299 312 ZEKRDZ
2
;
Zeitschrift fuer Kristallographie, Kristallgeometrie, Kristallphysik, 
Kristallchemie (-144,1977)
;
 1971 134 262 262 ZEKGAX
3 'Golden Book of Phase Transitions, Wroclaw' 2002 1 1 123 GBOPT5
_publ_author_name
;
Murakami, T.;Takeuchi, Y.;Yamanaka, T.
;
_cell_length_a                     9.306(6)
_cell_length_b                     8.892(7)
_cell_length_c                     5.349(4)
_cell_angle_alpha                  90.
_cell_angle_beta                   90.
_cell_angle_gamma                  90.
_cell_volume                       442.62
_cell_formula_units_Z              8
_symmetry_space_group_name_H-M     'P b c n'
_symmetry_Int_Tables_number        60
_refine_ls_R_factor_all            .081
loop_
_symmetry_equiv_pos_site_id
_symmetry_equiv_pos_as_xyz
  1	'x, -y, z+.5'
  2	'-x+.5, y+.5, z'
  3	'x+.5, y+.5, -z+.5'
  4	'-x, -y, -z'
  5	'-x, y, -z+.5'
  6	'x+.5, -y+.5, -z'
  7	'-x+.5, -y+.5, z+.5'
  8	'x, y, z'
loop_
_atom_type_symbol
_atom_type_oxidation_number
Mg2+	2
O2-	-2
Si4+	4
loop_
_atom_site_label
_atom_site_type_symbol
_atom_site_symmetry_multiplicity
_atom_site_Wyckoff_symbol
_atom_site_fract_x
_atom_site_fract_y
_atom_site_fract_z
_atom_site_occupancy
_atom_site_attached_hydrogens
_atom_site_B_iso_or_equiv
Mg1 Mg2+ 4 c 0 0.1006(5) 0.75 1. 0 2.16 
Mg2 Mg2+ 4 c 0 0.2625(5) 0.25 1. 0 2.65 
Si1 Si4+ 8 d 0.2928(2) 0.0897(2) 0.0739(3) 1. 0 1.33 
O1 O2- 8 d 0.1200(5) 0.0942(6) 0.077(1) 1. 0 1.85 
O2 O2- 8 d 0.3773(6) 0.2463(7) 0.0677(11) 1. 0 2.53 
O3 O2- 8 d 0.3481(5) 0.9836(9) 0.3079(11) 1. 0 2.95 

#End of data_31288-ICSD


