data_247732-ICSD
#?2014 by Fachinformationszentrum Karlsruhe, and the U.S. Secretary of 
#Commerce on behalf of the United States.  All rights reserved.
_database_code_ICSD                247732
_audit_creation_date               2013/08/01
_chemical_name_systematic          'Silber(I) Niobate(V)'
_chemical_formula_structural       'Ag Nb O3'
_chemical_formula_sum              'Ag1 Nb1 O3'
_publ_section_title
;
Structural investigations of Ag Nb O3 phases using high-energy X - 
ray diffraction
;
loop_
_citation_id
_citation_journal_abbrev
_citation_year
_citation_journal_volume
_citation_journal_issue
_citation_page_first
_citation_page_last
_citation_journal_id_ASTM
primary 'Transaction of the Material Research Society of Japan'
 2012 37 1 73 76 TMRJE3
_publ_author_name
;
Yoneda, Yasuhiro;Yoshii, Kenji;Kohara, Shinji
;
_cell_length_a                     5.5371(2)
_cell_length_b                     5.5884(2)
_cell_length_c                     15.6439(5)
_cell_angle_alpha                  90.
_cell_angle_beta                   90.
_cell_angle_gamma                  90.
_cell_volume                       484.08
_cell_formula_units_Z              8
_symmetry_space_group_name_H-M     'P b c m'
_symmetry_Int_Tables_number        57
_refine_ls_R_factor_all            .071
loop_
_symmetry_equiv_pos_site_id
_symmetry_equiv_pos_as_xyz
  1	'x, -y+.5, z+.5'
  2	'-x, y+.5, z'
  3	'x, y, -z+.5'
  4	'-x, -y, -z'
  5	'-x, y+.5, -z+.5'
  6	'x, -y+.5, -z'
  7	'-x, -y, z+.5'
  8	'x, y, z'
loop_
_atom_type_symbol
_atom_type_oxidation_number
Ag1+	1
Nb5+	5
O2-	-2
loop_
_atom_site_label
_atom_site_type_symbol
_atom_site_symmetry_multiplicity
_atom_site_Wyckoff_symbol
_atom_site_fract_x
_atom_site_fract_y
_atom_site_fract_z
_atom_site_occupancy
_atom_site_attached_hydrogens
_atom_site_B_iso_or_equiv
Nb1 Nb5+ 8 e 0.7442(4) 0.7342(5) 0.6248(1) 1. 0 0.71(2) 
Ag1 Ag1+ 4 d 0.7484(5) 0.2282(6) 0.75 1. 0 0.59(3) 
Ag2 Ag1+ 4 c 0.7579(5) 0.25 0.5 1. 0 1.23(4) 
O1 O2- 4 d 0.8138(3) 0.7834(2) 0.75 1. 0 0.54(17) 
O2 O2- 4 c 0.7150(1) 0.75 0.5 1. 0 0.54(17) 
O3 O2- 8 e 0.4479(2) 0.5402(2) 0.6227(7) 1. 0 0.54(17) 
O4 O2- 8 e 0.9783(1) 0.4690(2) 0.6437(5) 1. 0 0.54(17) 

#End of data_247732-ICSD


