data_69189-ICSD
#?2014 by Fachinformationszentrum Karlsruhe, and the U.S. Secretary of 
#Commerce on behalf of the United States.  All rights reserved.
_database_code_ICSD                69189
_audit_creation_date               1992/01/20
_chemical_name_systematic          'Trilithium Dizinc Antimonate'
_chemical_formula_structural       'Li3 Zn2 (Sb O6)'
_chemical_formula_sum              'Li3 O6 Sb1 Zn2'
_publ_section_title
;
The structural chemistry of Li3Zn2MO6 (M=Sb,Bi) and related phases
;
loop_
_citation_id
_citation_journal_abbrev
_citation_year
_citation_journal_volume
_citation_page_first
_citation_page_last
_citation_journal_id_ASTM
primary 'Materials Research Bulletin' 1990 25 1175 1182 MRBUAC
_publ_author_name                  'Greaves, C.;Katib, S.M.A.'
_cell_length_a                     5.252
_cell_length_b                     9.026
_cell_length_c                     5.202
_cell_angle_alpha                  90.
_cell_angle_beta                   110.39
_cell_angle_gamma                  90.
_cell_volume                       231.15
_cell_formula_units_Z              2
_symmetry_space_group_name_H-M     'C 1 2/m 1'
_symmetry_Int_Tables_number        12
_refine_ls_R_factor_all            .02
loop_
_symmetry_equiv_pos_site_id
_symmetry_equiv_pos_as_xyz
  1	'-x, y, -z'
  2	'-x, -y, -z'
  3	'x, -y, z'
  4	'x, y, z'
  5	'-x+.5, y+.5, -z'
  6	'-x+.5, -y+.5, -z'
  7	'x+.5, -y+.5, z'
  8	'x+.5, y+.5, z'
loop_
_atom_type_symbol
_atom_type_oxidation_number
Li1+	1
O2-	-2
Sb5+	5
Zn2+	2
loop_
_atom_site_label
_atom_site_type_symbol
_atom_site_symmetry_multiplicity
_atom_site_Wyckoff_symbol
_atom_site_fract_x
_atom_site_fract_y
_atom_site_fract_z
_atom_site_occupancy
_atom_site_attached_hydrogens
_atom_site_B_iso_or_equiv
Sb1 Sb5+ 2 a 0 0 0 1. 0 0.96(4) 
Zn1 Zn2+ 4 g 0 0.333(1) 0 1. 0 0.96(4) 
Li1 Li1+ 4 h 0 0.170(4) 0.5 1. 0 2.4(2) 
Li2 Li1+ 2 d 0 0.5 0.5 1. 0 2.4(2) 
O1 O2- 4 i 0.759(2) 0 0.226(2) 1. 0 0.86(3) 
O2 O2- 8 j 0.238(1) 0.157(1) 0.234(1) 1. 0 0.86(3) 

#End of data_69189-ICSD


