data_417775-ICSD
#?2014 by Fachinformationszentrum Karlsruhe, and the U.S. Secretary of 
#Commerce on behalf of the United States.  All rights reserved.
_database_code_ICSD                417775
_audit_creation_date               2008/02/01
_chemical_name_systematic
;
Pentabismuth Tris(tetraiodoaluminate)
;
_chemical_formula_structural       'Bi5 (Al I4)3'
_chemical_formula_sum              'Al3 Bi5 I12'
_publ_section_title
;
Bi5(3+)-Polykationen in geordneten und plastischen Kristallen von Bi5 
[Al I4]3 und Bi5 [Al Br4]3
;
loop_
_citation_id
_citation_journal_abbrev
_citation_year
_citation_journal_volume
_citation_journal_issue
_citation_page_first
_citation_page_last
_citation_journal_id_ASTM
primary 'Zeitschrift fuer Anorganische und Allgemeine Chemie (1950) (DE)'
 2007 633 10 1556 1562 ZAACAB
_publ_author_name                  'Ruck, M.;Steden, F.'
_cell_length_a                     21.436(3)
_cell_length_b                     18.891(1)
_cell_length_c                     8.1174(5)
_cell_angle_alpha                  90.00
_cell_angle_beta                   90.00
_cell_angle_gamma                  90.00
_cell_volume                       3287.12
_cell_formula_units_Z              4
_symmetry_space_group_name_H-M     'P n m a'
_symmetry_Int_Tables_number        62
_refine_ls_R_factor_all            .0479
loop_
_symmetry_equiv_pos_site_id
_symmetry_equiv_pos_as_xyz
  1	'x+.5, y, -z+.5'
  2	'x, -y+.5, z'
  3	'-x+.5, y+.5, z+.5'
  4	'-x, -y, -z'
  5	'-x+.5, -y, z+.5'
  6	'-x, y+.5, -z'
  7	'x+.5, -y+.5, -z+.5'
  8	'x, y, z'
loop_
_atom_type_symbol
_atom_type_oxidation_number
Al3+	3
Bi.6+	.6
I1-	-1
loop_
_atom_site_label
_atom_site_type_symbol
_atom_site_symmetry_multiplicity
_atom_site_Wyckoff_symbol
_atom_site_fract_x
_atom_site_fract_y
_atom_site_fract_z
_atom_site_occupancy
_atom_site_attached_hydrogens
_atom_site_U_iso_or_equiv
Bi1 Bi.6+ 4 c 0.13095(4) 0.2500 0.08066(12) 1 0 0.0533(3) 
Bi2 Bi.6+ 4 c 0.26090(4) 0.2500 0.22979(10) 1 0 0.0583(3) 
Bi3 Bi.6+ 8 d 0.22430(3) 0.15915(3) -0.09840(9) 1 0 0.0591(2) 
Bi4 Bi.6+ 4 c 0.33960(4) 0.2500 -0.07516(13) 1 0 0.0789(4) 
Al1 Al3+ 4 c 0.4258(2) 0.2500 0.4702(6) 1 0 0.0244(11) 
Al2 Al3+ 8 d 0.12989(18) 0.4631(2) 0.3277(5) 1 0 0.0315(9) 
I1 I1- 4 c 0.47962(5) 0.2500 0.19452(13) 1 0 0.0336(3) 
I2 I1- 4 c 0.50262(6) 0.2500 0.70542(15) 1 0 0.0426(3) 
I3 I1- 8 d 0.35604(4) 0.35745(5) 0.49356(12) 1 0 0.0430(3) 
I4 I1- 8 d 0.24130(4) 0.48264(5) 0.22295(10) 1 0 0.0337(2) 
I5 I1- 8 d 0.13540(5) 0.35562(5) 0.51820(12) 1 0 0.0443(3) 
I6 I1- 8 d 0.06567(5) 0.43032(5) 0.07847(13) 1 0 0.0490(3) 
I7 I1- 8 d 0.08747(5) 0.56651(5) 0.48342(14) 1 0 0.0530(3) 

loop_
_atom_site_aniso_label
_atom_site_aniso_type_symbol
_atom_site_aniso_U_11
_atom_site_aniso_U_22
_atom_site_aniso_U_33
_atom_site_aniso_U_12
_atom_site_aniso_U_13
_atom_site_aniso_U_23
Bi1 Bi.6+ 0.0250(4) 0.0745(6) 0.0603(6) 0.000 0.0038(4) 0.000
Bi2 Bi.6+ 0.0419(5) 0.1096(8) 0.0233(4) 0.000 -0.0091(4) 0.000
Bi3 Bi.6+ 0.0702(4) 0.0392(3) 0.0678(4) 0.0025(3) 0.0012(4) -0.0264(3)
Bi4 Bi.6+ 0.0304(5) 0.1489(12) 0.0575(6) 0.000 0.0139(4) 0.000
Al1 Al3+ 0.023(3) 0.030(3) 0.020(3) 0.000 -0.001(2) 0.000
Al2 Al3+ 0.036(2) 0.025(2) 0.033(2) 0.0009(17) 0.0006(17) -0.0013(17)
I1 I1- 0.0316(6) 0.0486(8) 0.0205(6) 0.000 0.0029(5) 0.000
I2 I1- 0.0304(7) 0.0754(10) 0.0221(6) 0.000 -0.0078(5) 0.000
I3 I1- 0.0487(6) 0.0365(5) 0.0438(5) 0.0169(4) -0.0017(4) -0.0047(4)
I4 I1- 0.0350(5) 0.0354(5) 0.0307(4) -0.0009(4) 0.0043(4) 0.0014(4)
I5 I1- 0.0596(6) 0.0341(5) 0.0393(5) -0.0106(4) -0.0005(5) 0.0086(4)
I6 I1- 0.0497(6) 0.0400(6) 0.0572(6) 0.0054(4) -0.0237(5) -0.0052(5)
I7 I1- 0.0558(6) 0.0367(6) 0.0665(7) 0.0043(5) 0.0161(5) -0.0176(5)
#End of data_417775-ICSD


