data_73249-ICSD
#?2014 by Fachinformationszentrum Karlsruhe, and the U.S. Secretary of 
#Commerce on behalf of the United States.  All rights reserved.
_database_code_ICSD                73249
_audit_creation_date               1994/06/30
_audit_update_record               1998/06/26
_chemical_name_systematic          'Aluminium Sulfate'
_chemical_formula_structural       'Al2 (S O4)3'
_chemical_formula_sum              'Al2 O12 S3'
_chemical_name_mineral             Millosevichite
_publ_section_title
;
Beitraege zum thermischen Verhalten von Sulfaten. IX. 
Einkristallstrukturverfeinerung der Metall(III)-sulfate Cr2 (S O4)3 
und Al2 (S O4)3
;
loop_
_citation_id
_citation_journal_abbrev
_citation_year
_citation_journal_volume
_citation_page_first
_citation_page_last
_citation_journal_id_ASTM
primary 'Zeitschrift fuer Kristallographie (1979-2010)' 1993 204 57 65 ZEKRDZ
_publ_author_name                  'Dahmen, T.;Gruehn, R.'
_cell_length_a                     8.0246(4)
_cell_length_b                     8.0246(4)
_cell_length_c                     21.3570(10)
_cell_angle_alpha                  90.
_cell_angle_beta                   90.
_cell_angle_gamma                  120.
_cell_volume                       1191.02
_cell_formula_units_Z              6
_symmetry_space_group_name_H-M     'R -3 H'
_symmetry_Int_Tables_number        148
_refine_ls_R_factor_all            .026
loop_
_symmetry_equiv_pos_site_id
_symmetry_equiv_pos_as_xyz
  1	'x-y, x, -z'
  2	'y, -x+y, -z'
  3	'-x, -y, -z'
  4	'-x+y, -x, z'
  5	'-y, x-y, z'
  6	'x, y, z'
  7	'x-y+.6666, x+.3333, -z+.3333'
  8	'x-y+.3333, x+.6666, -z+.6666'
  9	'y+.6666, -x+y+.3333, -z+.3333'
 10	'y+.3333, -x+y+.6666, -z+.6666'
 11	'-x+.6666, -y+.3333, -z+.3333'
 12	'-x+.3333, -y+.6666, -z+.6666'
 13	'-x+y+.6666, -x+.3333, z+.3333'
 14	'-x+y+.3333, -x+.6666, z+.6666'
 15	'-y+.6666, x-y+.3333, z+.3333'
 16	'-y+.3333, x-y+.6666, z+.6666'
 17	'x+.6666, y+.3333, z+.3333'
 18	'x+.3333, y+.6666, z+.6666'
loop_
_atom_type_symbol
_atom_type_oxidation_number
Al3+	3
O2-	-2
S6+	6
loop_
_atom_site_label
_atom_site_type_symbol
_atom_site_symmetry_multiplicity
_atom_site_Wyckoff_symbol
_atom_site_fract_x
_atom_site_fract_y
_atom_site_fract_z
_atom_site_occupancy
_atom_site_attached_hydrogens
Al1 Al3+ 6 c 0 0 0.1436(1) 1. 0 
Al2 Al3+ 6 c 0 0 0.3519(1) 1. 0 
S1 S6+ 18 f 0.2890(1) 0.2871(1) 0.2505 1. 0 
O1 O2- 18 f 0.1862(2) 0.1992(2) 0.1923(1) 1. 0 
O2 O2- 18 f 0.2174(2) 0.1455(2) 0.3017(1) 1. 0 
O3 O2- 18 f 0.4940(2) 0.3547(2) 0.2430(1) 1. 0 
O4 O2- 18 f 0.2602(2) 0.4499(2) 0.2645(1) 1. 0 

loop_
_atom_site_aniso_label
_atom_site_aniso_type_symbol
_atom_site_aniso_U_11
_atom_site_aniso_U_22
_atom_site_aniso_U_33
_atom_site_aniso_U_12
_atom_site_aniso_U_13
_atom_site_aniso_U_23
Al1 Al3+ 0.0056(3) 0.0056(3) 0.0055(5) 0.0028(2) 0 0
Al2 Al3+ 0.0058(3) 0.0058(3) 0.0063(5) 0.0029(2) 0 0
S1 S6+ 0.0056(2) 0.0057(3) 0.0061(3) 0.0026(2) 0.0003(2) -.0006(2)
O1 O2- 0.0115(8) 0.0117(8) 0.0100(8) 0.0042(7) -.0032(6) -.0045(6)
O2 O2- 0.0116(8) 0.0120(8) 0.0118(8) 0.0057(7) 0.0039(6) 0.0052(6)
O3 O2- 0.0061(7) 0.0112(8) 0.0100(8) 0.0039(6) 0.0011(6) -.0009(6)
O4 O2- 0.0111(8) 0.0092(8) 0.0140(8) 0.0069(6) -.0021(6) -.0037(6)
#End of data_73249-ICSD


