data_245394-ICSD
#?2014 by Fachinformationszentrum Karlsruhe, and the U.S. Secretary of 
#Commerce on behalf of the United States.  All rights reserved.
_database_code_ICSD                245394
_audit_creation_date               2008/02/01
_audit_update_record               2012/02/01
_chemical_name_systematic          'Tetralithium Tetraoxocarbonate'
_chemical_formula_structural       'Li4 (C O4)'
_chemical_formula_sum              'C1 Li4 O4'
_publ_section_title
;
Possible existence of alkali metal orthocarbonates at high pressure
;
loop_
_citation_id
_citation_journal_abbrev
_citation_year
_citation_journal_volume
_citation_journal_issue
_citation_page_first
_citation_page_last
_citation_journal_id_ASTM
primary 'Chemistry - A European Journal' 2007 13 26 7330 7348 CEUJED
_publ_author_name
;
Cancarevic, Z.;Schoen, J.C.;Jansen, M.
;
_cell_length_a                     5.30896
_cell_length_b                     5.98005
_cell_length_c                     4.43162
_cell_angle_alpha                  90.
_cell_angle_beta                   117.33880
_cell_angle_gamma                  90.
_cell_volume                       124.98
_cell_formula_units_Z              2
_symmetry_space_group_name_H-M     'C 1 m 1'
_symmetry_Int_Tables_number        8
loop_
_symmetry_equiv_pos_site_id
_symmetry_equiv_pos_as_xyz
  1	'x, -y, z'
  2	'x, y, z'
  3	'x+.5, -y+.5, z'
  4	'x+.5, y+.5, z'
loop_
_atom_type_symbol
_atom_type_oxidation_number
C4+	4
Li1+	1
O2-	-2
loop_
_atom_site_label
_atom_site_type_symbol
_atom_site_symmetry_multiplicity
_atom_site_Wyckoff_symbol
_atom_site_fract_x
_atom_site_fract_y
_atom_site_fract_z
_atom_site_occupancy
_atom_site_attached_hydrogens
C1 C4+ 2 a 0.47214 0 0.55192 1. 0 
O1 O2- 2 a 0.30191 0 0.73538 1. 0 
O2 O2- 4 b 0.40212 0.19977 0.33911 1. 0 
O3 O2- 2 a 0.77490 0 0.79577 1. 0 
Li1 Li1+ 2 a 0.67213 0 0.28867 1. 0 
Li2 Li1+ 2 a 0.07626 0 0.25643 1. 0 
Li3 Li1+ 4 b 0.56275 0.72981 0.81968 1. 0 

#End of data_245394-ICSD


