data_2269-ICSD
#?2014 by Fachinformationszentrum Karlsruhe, and the U.S. Secretary of 
#Commerce on behalf of the United States.  All rights reserved.
_database_code_ICSD                2269
_audit_creation_date               1980/01/01
_audit_update_record               1999/05/18
_chemical_name_systematic          'Potassium Hexaoxodigallate'
_chemical_formula_structural       'K6 Ga2 O6'
_chemical_formula_sum              'Ga2 K6 O6'
_publ_section_title
;
Neue Oxogallate der Alkalimetalle: ueber K6 (Ga2 O6) und Rb6 (Ga2 O6) 
sowie Na3 Ga O3 und Cs6 (Ga2 O6)
;
loop_
_citation_id
_citation_journal_abbrev
_citation_year
_citation_journal_volume
_citation_page_first
_citation_page_last
_citation_journal_id_ASTM
primary 'Zeitschrift fuer Anorganische und Allgemeine Chemie (1950) (DE)'
 1978 440 74 80 ZAACAB
_publ_author_name                  'Hoppe, R.;Griesfeller, F.'
_cell_length_a                     7.09(9)
_cell_length_b                     11.11(6)
_cell_length_c                     6.48(4)
_cell_angle_alpha                  90.
_cell_angle_beta                   101.6(6)
_cell_angle_gamma                  90.
_cell_volume                       500
_cell_formula_units_Z              2
_symmetry_space_group_name_H-M     'C 1 2/m 1'
_symmetry_Int_Tables_number        12
loop_
_symmetry_equiv_pos_site_id
_symmetry_equiv_pos_as_xyz
  1	'-x, y, -z'
  2	'-x, -y, -z'
  3	'x, -y, z'
  4	'x, y, z'
  5	'-x+.5, y+.5, -z'
  6	'-x+.5, -y+.5, -z'
  7	'x+.5, -y+.5, z'
  8	'x+.5, y+.5, z'
loop_
_atom_type_symbol
_atom_type_oxidation_number
Ga3+	3
K1+	1
O2-	-2
loop_
_atom_site_label
_atom_site_type_symbol
_atom_site_symmetry_multiplicity
_atom_site_Wyckoff_symbol
_atom_site_fract_x
_atom_site_fract_y
_atom_site_fract_z
_atom_site_occupancy
_atom_site_attached_hydrogens
K1 K1+ 4 g 0 0.2621 0 1. 0 
K2 K1+ 4 h 0 0.1894 0.5 1. 0 
K3 K1+ 4 i 0.3735 0 0.6468 1. 0 
Ga1 Ga3+ 4 i 0.1682 0 0.144 1. 0 
O1 O2- 4 i 0.9001 0 0.1628 1. 0 
O2 O2- 8 j 0.2921 0.1366 0.2625 1. 0 

#End of data_2269-ICSD


