data_67397-ICSD
#?2014 by Fachinformationszentrum Karlsruhe, and the U.S. Secretary of 
#Commerce on behalf of the United States.  All rights reserved.
_database_code_ICSD                67397
_audit_creation_date               1991/07/10
_audit_update_record               2012/08/01
_chemical_name_systematic          'Hexapotassium Dititanate'
_chemical_formula_structural       'K6 (Ti2 O7)'
_chemical_formula_sum              'K6 O7 Ti2'
_publ_section_title                'Zum Aufbau von K6 Ti2 O7'
loop_
_citation_id
_citation_journal_abbrev
_citation_year
_citation_journal_volume
_citation_page_first
_citation_page_last
_citation_journal_id_ASTM
primary 'Journal of the Less-Common Metals' 1990 158 327 337 JCOMAH
_publ_author_name                  'Kissel, J.;Hoppe, R.'
_cell_length_a                     6.582(1)
_cell_length_b                     9.318(1)
_cell_length_c                     11.299(2)
_cell_angle_alpha                  90.
_cell_angle_beta                   123.46(1)
_cell_angle_gamma                  90.
_cell_volume                       578.13
_cell_formula_units_Z              2
_symmetry_space_group_name_H-M     'P 1 c 1'
_symmetry_Int_Tables_number        7
_refine_ls_R_factor_all            .0698
loop_
_symmetry_equiv_pos_site_id
_symmetry_equiv_pos_as_xyz
  1	'x, -y, z+.5'
  2	'x, y, z'
loop_
_atom_type_symbol
_atom_type_oxidation_number
K1+	1
O2-	-2
Ti4+	4
loop_
_atom_site_label
_atom_site_type_symbol
_atom_site_symmetry_multiplicity
_atom_site_Wyckoff_symbol
_atom_site_fract_x
_atom_site_fract_y
_atom_site_fract_z
_atom_site_occupancy
_atom_site_attached_hydrogens
Ti1 Ti4+ 2 a 0.0034 0.1070(2) 0.5015 1. 0 
Ti2 Ti4+ 2 a 0.3835(2) 0.3913(2) 0.7693(1) 1. 0 
K1 K1+ 2 a 0.9018(5) 0.2271(3) 0.0891(3) 1. 0 
K2 K1+ 2 a 0.0988(4) 0.5404(3) 0.9178(3) 1. 0 
K3 K1+ 2 a 0.6510(6) 0.9068(4) 0.2078(4) 1. 0 
K4 K1+ 2 a 0.4884(5) 0.2727(3) 0.1830(3) 1. 0 
K5 K1+ 2 a 0.2844(6) 0.9580(4) 0.3556(4) 1. 0 
K6 K1+ 2 a 0.7468(5) 0.4023(3) 0.5679(3) 1. 0 
O1 O2- 2 a 0.9234(9) 0.1544(7) 0.3288(7) 1. 0 
O2 O2- 2 a 0.1892(8) 0.9515(7) 0.5610(7) 1. 0 
O3 O2- 2 a 0.7195(9) 0.0803(8) 0.4924(7) 1. 0 
O4 O2- 2 a 0.4444(8) 0.3412(7) 0.9398(6) 1. 0 
O5 O2- 2 a 0.1942(9) 0.4500(7) 0.1978(7) 1. 0 
O6 O2- 2 a 0.6424(9) 0.4151(8) 0.7674(8) 1. 0 
O7 O2- 2 a 0.1834(11) 0.2584(8) 0.6380(9) 1. 0 

loop_
_atom_site_aniso_label
_atom_site_aniso_type_symbol
_atom_site_aniso_U_11
_atom_site_aniso_U_22
_atom_site_aniso_U_33
_atom_site_aniso_U_12
_atom_site_aniso_U_13
_atom_site_aniso_U_23
Ti1 Ti4+ 0.0128(6) 0.0128(6) 0.0104(5) 0.0043(5) 0.0055(5) -.0010(5)
Ti2 Ti4+ 0.0145(6) 0.0101(6) 0.0155(6) -.0048(5) 0.0090(5) -.0022(5)
K1 K1+ 0.0167(7) 0.0167(7) 0.0280(8) -.0045(6) 0.0080(6) -.0053(6)
K2 K1+ 0.0166(6) 0.0302(7) 0.0105(5) 0.0032(6) 0.0070(5) -.0119(6)
K3 K1+ 0.0325(8) 0.0340(9) 0.0349(8) -.0142(8) 0.0020(7) -.0082(8)
K4 K1+ 0.0211(7) 0.0215(7) 0.0281(7) 0.0039(6) 0.0095(6) -.0006(6)
K5 K1+ 0.0308(9) 0.0357(9) 0.0350(9) 0.0089(8) 0.0012(7) 0.0034(7)
K6 K1+ 0.0213(7) 0.0149(6) 0.0379(8) -.0023(6) 0.0023(7) -.0029(7)
O1 O2- 0.0319(11) 0.0261(11) 0.0219(10) 0.0048(11) 0.0039(10) 0.0056(10)
O2 O2- 0.0188(10) 0.0185(11) 0.0323(11) 0.0072(10) 0.0098(10) 0.0044(10)
O3 O2- 0.0258(11) 0.0370(11) 0.0368(11) -.0018(11) 0.0082(10) 0.0007(11)
O4 O2- 0.0216(10) 0.0314(11) 0.0185(10) 0.0078(19) 0.0056(9) 0.0086(10)
O5 O2- 0.0384(11) 0.0126(10) 0.0301(10) -.0069(10) 0.0023(10) -.0121(10)
O6 O2- 0.0209(10) 0.0321(11) 0.0397(11) 0.0062(11) 0.0083(10) 0.0085(11)
O7 O2- 0.0384(11) 0.0179(11) 0.0275(10) -.0056(11) 0.0073(10) -.0146(10)
#End of data_67397-ICSD


