data_412094-ICSD
#?2014 by Fachinformationszentrum Karlsruhe, and the U.S. Secretary of 
#Commerce on behalf of the United States.  All rights reserved.
_database_code_ICSD                412094
_audit_creation_date               2004/04/01
_audit_update_record               2008/02/01
_chemical_name_systematic
;
Potassium Catena-bis(sulfato(VI))aurate(III)
;
_chemical_formula_structural       'K (Au (S O4)2)'
_chemical_formula_sum              'Au1 K1 O8 S2'
_publ_section_title
;
The gold sulfates M Au (S O4)2 (M = Na, K, Rb)
;
loop_
_citation_id
_citation_journal_abbrev
_citation_year
_citation_journal_volume
_citation_page_first
_citation_page_last
_citation_journal_id_ASTM
primary 'Zeitschrift fuer Naturforschung, B: Chemical Sciences'
 2001 56 1340 1343 ZNBSEN
_publ_author_name                  'Wickleder, M.S.;Buechner, O.'
_cell_length_a                     11.099(2)
_cell_length_b                     7.2421(11)
_cell_length_c                     9.4110(15)
_cell_angle_alpha                  90.
_cell_angle_beta                   118.351(11)
_cell_angle_gamma                  90.
_cell_volume                       665.72
_cell_formula_units_Z              4
_symmetry_space_group_name_H-M     'C 1 2/c 1'
_symmetry_Int_Tables_number        15
_refine_ls_R_factor_all            .0353
loop_
_symmetry_equiv_pos_site_id
_symmetry_equiv_pos_as_xyz
  1	'x, -y, z+.5'
  2	'-x, -y, -z'
  3	'-x, y, -z+.5'
  4	'x, y, z'
  5	'x+.5, -y+.5, z+.5'
  6	'-x+.5, -y+.5, -z'
  7	'-x+.5, y+.5, -z+.5'
  8	'x+.5, y+.5, z'
loop_
_atom_type_symbol
_atom_type_oxidation_number
Au3+	3
K1+	1
O2-	-2
S6+	6
loop_
_atom_site_label
_atom_site_type_symbol
_atom_site_symmetry_multiplicity
_atom_site_Wyckoff_symbol
_atom_site_fract_x
_atom_site_fract_y
_atom_site_fract_z
_atom_site_occupancy
_atom_site_attached_hydrogens
_atom_site_U_iso_or_equiv
Au1 Au3+ 4 b 0 0.5 0.5 1. 0 0.0178(2) 
S1 S6+ 8 f 0.1993(2) 0.4843(3) 0.3606(2) 1. 0 0.0175(3) 
O1 O2- 8 f 0.3423(6) 0.5113(9) 0.4158(7) 1. 0 0.0255(11) 
O2 O2- 8 f 0.1485(6) 0.3000(8) 0.3208(8) 1. 0 0.0262(12) 
O3 O2- 8 f 0.1713(5) 0.5648(9) 0.4929(7) 1. 0 0.0212(10) 
O4 O2- 8 f 0.1142(6) 0.6120(8) 0.2149(7) 1. 0 0.0211(10) 
K1 K1+ 4 e 0.5 0.4727(4) 0.25 1. 0 0.0264(6) 

loop_
_atom_site_aniso_label
_atom_site_aniso_type_symbol
_atom_site_aniso_U_11
_atom_site_aniso_U_22
_atom_site_aniso_U_33
_atom_site_aniso_U_12
_atom_site_aniso_U_13
_atom_site_aniso_U_23
Au1 Au3+ 0.0198(2) 0.0227(2) 0.0138(2) -0.0008(2) 0.01028(14) -0.0015(2)
S1 S6+ 0.0169(7) 0.0237(9) 0.0140(6) -0.0004(6) 0.0092(5) -0.0004(7)
O1 O2- 0.018(2) 0.038(3) 0.021(2) -0.001(2) 0.009(2) 0.001(3)
O2 O2- 0.028(3) 0.022(3) 0.029(3) -0.002(2) 0.014(2) -0.004(2)
O3 O2- 0.017(2) 0.035(3) 0.016(2) -0.004(2) 0.012(2) -0.003(2)
O4 O2- 0.023(3) 0.024(2) 0.011(2) 0.000(2) 0.004(2) 0.001(2)
K1 K1+ 0.0293(11) 0.028(2) 0.0230(11) 0 0.0135(9) 0
#End of data_412094-ICSD


