data_420017-ICSD
#?2014 by Fachinformationszentrum Karlsruhe, and the U.S. Secretary of 
#Commerce on behalf of the United States.  All rights reserved.
_database_code_ICSD                420017
_audit_creation_date               2013/08/01
_chemical_name_systematic
;
Potassium Tetracopper Arsenic Tetrasulfide
;
_chemical_formula_structural       'K Cu4 As S4'
_chemical_formula_sum              'As1 Cu4 K1 S4'
_publ_section_title
;
Synthesis, structure and characterization of two new copper(I) - 
thioarsenates (III) constructed by the (As S3)(3-) and CuSx units
;
loop_
_citation_id
_citation_journal_abbrev
_citation_year
_citation_journal_volume
_citation_page_first
_citation_page_last
_citation_journal_id_ASTM
primary 'Journal of Solid State Chemistry' 2013 198 289 294 JSSCBI
_publ_author_name
;
Yao, Hua-Gang;Ji, Min;Ji, Shou-Hua;An, Yong-Lin
;
_cell_length_a                     6.6162(4)
_cell_length_b                     6.3870(4)
_cell_length_c                     9.5572(5)
_cell_angle_alpha                  90.00
_cell_angle_beta                   103.379(4)
_cell_angle_gamma                  90.00
_cell_volume                       392.9
_cell_formula_units_Z              2
_symmetry_space_group_name_H-M     'P 1 21 1'
_symmetry_Int_Tables_number        4
_refine_ls_R_factor_all            .0414
loop_
_symmetry_equiv_pos_site_id
_symmetry_equiv_pos_as_xyz
  1	'-x, y+.5, -z'
  2	'x, y, z'
loop_
_atom_type_symbol
_atom_type_oxidation_number
As3+	3
Cu1+	1
K1+	1
S2-	-2
loop_
_atom_site_label
_atom_site_type_symbol
_atom_site_symmetry_multiplicity
_atom_site_Wyckoff_symbol
_atom_site_fract_x
_atom_site_fract_y
_atom_site_fract_z
_atom_site_occupancy
_atom_site_attached_hydrogens
_atom_site_U_iso_or_equiv
As1 As3+ 2 a 0.20529(14) 0.24358(19) 0.25219(10) 1 0 0.0117(3) 
Cu1 Cu1+ 2 a 0.7065(2) 0.2485(3) 0.56339(16) 1 0 0.0221(4) 
Cu2 Cu1+ 2 a 0.9260(2) 0.2282(3) 0.87550(14) 1 0 0.0207(4) 
Cu3 Cu1+ 2 a 0.3622(2) 0.1037(3) 0.61090(14) 1 0 0.0203(4) 
Cu4 Cu1+ 2 a 0.0226(2) 0.4587(3) 0.48565(18) 1 0 0.0269(4) 
S1 S2- 2 a 1.0615(4) 0.2263(5) 0.6585(2) 1 0 0.0125(5) 
S2 S2- 2 a 0.4651(4) 0.0508(4) 0.3966(3) 1 0 0.0114(5) 
S3 S2- 2 a 0.1659(4) 0.0471(4) 0.0509(3) 1 0 0.0154(5) 
K1 K1+ 2 a 0.3213(4) 0.6072(6) 0.8633(3) 1 0 0.0329(8) 
S4 S2- 2 a 0.3831(4) 0.5114(4) 0.1931(3) 1 0 0.0147(6) 

loop_
_atom_site_aniso_label
_atom_site_aniso_type_symbol
_atom_site_aniso_U_11
_atom_site_aniso_U_22
_atom_site_aniso_U_33
_atom_site_aniso_U_12
_atom_site_aniso_U_13
_atom_site_aniso_U_23
As1 As3+ 0.0112(4) 0.0119(5) 0.0111(5) 0.0009(4) 0.0007(3) 0.0019(4)
Cu1 Cu1+ 0.0138(6) 0.0168(8) 0.0327(8) 0.0006(6) -0.0005(5) -0.0037(7)
Cu2 Cu1+ 0.0285(7) 0.0161(7) 0.0159(6) 0.0016(7) 0.0018(5) -0.0004(6)
Cu3 Cu1+ 0.0167(6) 0.0293(9) 0.0145(6) 0.0027(6) 0.0031(5) -0.0001(6)
Cu4 Cu1+ 0.0207(7) 0.0291(10) 0.0278(8) -0.0020(7) -0.0007(6) 0.0186(7)
S1 S2- 0.0133(10) 0.0136(12) 0.0092(10) 0.0003(11) -0.0003(8) 0.0022(11)
S2 S2- 0.0136(11) 0.0109(12) 0.0079(11) -0.0001(9) -0.0009(9) 0.0009(9)
S3 S2- 0.0216(12) 0.0106(13) 0.0098(12) -0.0012(10) -0.0051(9) 0.0019(9)
K1 K1+ 0.0245(12) 0.058(2) 0.0172(12) -0.0060(15) 0.0065(10) -0.0046(14)
S4 S2- 0.0167(11) 0.0119(13) 0.0123(12) -0.0021(10) -0.0032(9) 0.0039(9)
#End of data_420017-ICSD


