data_410578-ICSD
#?2014 by Fachinformationszentrum Karlsruhe, and the U.S. Secretary of 
#Commerce on behalf of the United States.  All rights reserved.
_database_code_ICSD                410578
_audit_creation_date               1999/11/30
_chemical_name_systematic          'Tribarium Tetranitridodialuminate'
_chemical_formula_structural       'Ba3 (Al2 N4)'
_chemical_formula_sum              'Al2 Ba3 N4'
_publ_section_title
;
Dimers (Al2 N6)12- and chains (Al (N3-)4/2) in the crystal structures 
of Ca3 (Al N3) and Ba3 (Al2 N4)
;
loop_
_citation_id
_citation_journal_abbrev
_citation_year
_citation_journal_volume
_citation_page_first
_citation_page_last
_citation_journal_id_ASTM
primary 'Zeitschrift fuer Naturforschung, B: Chemical Sciences'
 1999 54 461 465 ZNBSEN
_publ_author_name                  'Ludwig, M.;Niewa, R.;Kniep, R.'
_cell_length_a                     6.179(2)
_cell_length_b                     10.052(4)
_cell_length_c                     10.230(4)
_cell_angle_alpha                  90.
_cell_angle_beta                   90.
_cell_angle_gamma                  90.
_cell_volume                       635.4
_cell_formula_units_Z              4
_symmetry_space_group_name_H-M     'P n n a'
_symmetry_Int_Tables_number        52
_refine_ls_R_factor_all            .0597
loop_
_symmetry_equiv_pos_site_id
_symmetry_equiv_pos_as_xyz
  1	'x+.5, -y+.5, z+.5'
  2	'-x, y+.5, z+.5'
  3	'x+.5, y, -z'
  4	'-x, -y, -z'
  5	'-x+.5, y+.5, -z+.5'
  6	'x, -y+.5, -z+.5'
  7	'-x+.5, -y, z'
  8	'x, y, z'
loop_
_atom_type_symbol
_atom_type_oxidation_number
Al3+	3
Ba2+	2
N3-	-3
loop_
_atom_site_label
_atom_site_type_symbol
_atom_site_symmetry_multiplicity
_atom_site_Wyckoff_symbol
_atom_site_fract_x
_atom_site_fract_y
_atom_site_fract_z
_atom_site_occupancy
_atom_site_attached_hydrogens
Ba1 Ba2+ 8 e 0.61760(9) 0.15620(5) 0.08557(6) 1. 0 
Ba2 Ba2+ 4 c 0.75 0 0.40617(8) 1. 0 
Al1 Al3+ 4 d 0.1716(7) 0.25 0.25 1. 0 
Al2 Al3+ 4 c 0.25 0 0.2688(4) 1. 0 
N1 N3- 8 e 0.0348(12) 0.0987(7) 0.1730(9) 1. 0 
N2 N3- 8 e 0.3561(14) 0.1452(7) 0.3708(9) 1. 0 

loop_
_atom_site_aniso_label
_atom_site_aniso_type_symbol
_atom_site_aniso_U_11
_atom_site_aniso_U_22
_atom_site_aniso_U_33
_atom_site_aniso_U_12
_atom_site_aniso_U_13
_atom_site_aniso_U_23
Ba1 Ba2+ 0.0141(3) 0.0162(3) 0.0191(4) 0.00217(19) -.0002(2) -.00124(19)
Ba2 Ba2+ 0.0177(4) 0.0212(4) 0.0178(4) 0.0035(3) 0 0
Al1 Al3+ 0.0145(18) 0.0132(15) 0.0108(18) 0 0 0.0003(13)
Al2 Al3+ 0.0136(18) 0.0117(14) 0.0145(18) -.0018(14) 0 0
N1 N3- 0.010(4) 0.017(3) 0.025(4) 0.001(3) -.003(3) -.001(3)
N2 N3- 0.021(4) 0.016(3) 0.013(4) -.002(3) -.008(3) 0.002(3)
#End of data_410578-ICSD


