data_260233-ICSD
#?2014 by Fachinformationszentrum Karlsruhe, and the U.S. Secretary of 
#Commerce on behalf of the United States.  All rights reserved.
_database_code_ICSD                260233
_audit_creation_date               2009/08/01
_chemical_name_systematic
;
Calcium(II) Tellurium(IV) Oxide - Beta Prime
;
_chemical_formula_structural       'Ca (Te O3)'
_chemical_formula_sum              'Ca1 O3 Te1'
_publ_section_title
;
Polymorphism of Ca Te O3 and solid solutions Ca(x) Sr(1-x) Te O3
;
loop_
_citation_id
_citation_journal_abbrev
_citation_year
_citation_journal_volume
_citation_journal_issue
_citation_page_first
_citation_page_last
_citation_journal_id_ASTM
primary 'Acta Crystallographica, Section B: Structural Science'
 2009 65 2 167 181 ASBSDK
_publ_author_name
;
Stoeger, B.;Weil, M.;Zobetz, E.;Giester, G.
;
_cell_length_a                     25.6215(5)
_cell_length_b                     10.3933(2)
_cell_length_c                     11.2481(2)
_cell_angle_alpha                  108.604(9)
_cell_angle_beta                   112.393(13)
_cell_angle_gamma                  32.3190(10)
_cell_volume                       1480.59
_cell_formula_units_Z              18
_symmetry_space_group_name_H-M     'P -1'
_symmetry_Int_Tables_number        2
_refine_ls_R_factor_all            .0344
loop_
_symmetry_equiv_pos_site_id
_symmetry_equiv_pos_as_xyz
  1	'-x, -y, -z'
  2	'x, y, z'
loop_
_atom_type_symbol
_atom_type_oxidation_number
Ca2+	2
O2-	-2
Te4+	4
loop_
_atom_site_label
_atom_site_type_symbol
_atom_site_symmetry_multiplicity
_atom_site_Wyckoff_symbol
_atom_site_fract_x
_atom_site_fract_y
_atom_site_fract_z
_atom_site_occupancy
_atom_site_attached_hydrogens
_atom_site_U_iso_or_equiv
Te1 Te4+ 2 i 0.213527(18) 0.18719(4) -0.23810(2) 1 0 0.01029(5) 
Te2 Te4+ 2 i 0.547381(17) 0.19010(4) -0.27497(2) 1 0 0.00894(5) 
Te3 Te4+ 2 i -0.141718(17 0.23844(4) 0.73150(2) 1 0 0.00851(5) 
Te4 Te4+ 2 i 0.028790(19) -0.27924(5) 0.48238(2) 1 0 0.01276(5) 
Te5 Te4+ 2 i 0.353446(19) -0.19023(5) 0.47736(2) 1 0 0.01321(5) 
Te6 Te4+ 2 i -0.307515(18 0.70945(4) 0.44468(2) 1 0 0.01047(5) 
Te7 Te4+ 2 i 0.166203(18) 0.29231(4) 0.18874(2) 1 0 0.00961(5) 
Te8 Te4+ 2 i 0.484374(17) -0.71586(4) 0.16415(2) 1 0 0.00881(5) 
Te9 Te4+ 2 i -0.135518(18 0.20484(4) 0.17816(2) 1 0 0.00954(5) 
Ca1 Ca2+ 2 i -0.08144(6) -0.27329(13) 0.12007(7) 1 0 0.01162(15) 
Ca2 Ca2+ 2 i 0.24491(6) -0.19030(13) 0.14120(8) 1 0 0.01207(15) 
Ca3 Ca2+ 2 i 0.59098(5) -0.24723(13) 0.13901(7) 1 0 0.01082(14) 
Ca4 Ca2+ 2 i -0.07698(6) -0.24974(13) 0.62743(7) 1 0 0.01154(15) 
Ca5 Ca2+ 2 i 0.26423(6) -0.27067(13) 0.58572(7) 1 0 0.01073(14) 
Ca6 Ca2+ 2 i -0.43682(6) 0.78092(13) 0.61312(7) 1 0 0.01119(14) 
Ca7 Ca2+ 2 i 0.02706(6) -0.24119(13) -0.03523(7) 1 0 0.01114(14) 
Ca8 Ca2+ 2 i 0.36619(5) -0.25521(13) -0.03338(7) 1 0 0.00980(14) 
Ca9 Ca2+ 2 i 0.67453(5) -0.25576(13) -0.05517(7) 1 0 0.00966(14) 
O1 O2- 2 i 0.2297(2) -0.0248(5) -0.2313(3) 1 0 0.0135(5) 
O2 O2- 2 i 0.54063(19) 0.0478(5) -0.2250(3) 1 0 0.0131(5) 
O3 O2- 2 i -0.12039(19) 0.0438(4) 0.7921(2) 1 0 0.0113(5) 
O4 O2- 2 i 0.08570(19) 0.4643(4) -0.2025(3) 1 0 0.0146(6) 
O5 O2- 2 i 0.43455(19) 0.4004(4) -0.4075(2) 1 0 0.0125(5) 
O6 O2- 2 i -0.17838(19) 0.4393(5) 0.8751(3) 1 0 0.0137(6) 
O7 O2- 2 i 0.2929(2) 0.0980(5) -0.0742(3) 1 0 0.0165(6) 
O8 O2- 2 i 0.49999(19) 0.4094(4) -0.1384(2) 1 0 0.0137(6) 
O9 O2- 2 i -0.26654(19) 0.4335(5) 0.6247(3) 1 0 0.0148(6) 
O10 O2- 2 i 0.0002(2) -0.2699(5) 0.3061(3) 1 0 0.0215(7) 
O11 O2- 2 i 0.3685(2) -0.3277(6) 0.3173(3) 1 0 0.0347(9) 
O12 O2- 2 i -0.4000(2) 0.9470(5) 0.3196(3) 1 0 0.0164(6) 
O13 O2- 2 i 0.0606(2) -0.5055(5) 0.5146(3) 1 0 0.0195(6) 
O14 O2- 2 i 0.2451(2) -0.0619(5) 0.4909(3) 1 0 0.0160(6) 
O15 O2- 2 i -0.29918(19) 0.5144(5) 0.3289(3) 1 0 0.0136(6) 
O16 O2- 2 i -0.0974(2) -0.0269(5) 0.5168(3) 1 0 0.0185(6) 
O17 O2- 2 i 0.2871(2) 0.0857(6) 0.4312(3) 1 0 0.0271(7) 
O18 O2- 2 i -0.40732(19) 0.8901(4) 0.5253(3) 1 0 0.0124(5) 
O19 O2- 2 i 0.05739(18) 0.5182(4) 0.0545(2) 1 0 0.0103(5) 
O20 O2- 2 i 0.38515(19) -0.4856(4) 0.0285(2) 1 0 0.0118(5) 
O21 O2- 2 i -0.2543(2) 0.5052(5) 0.1022(3) 1 0 0.0192(6) 
O22 O2- 2 i 0.2401(2) 0.0279(5) 0.0771(3) 1 0 0.0164(6) 
O23 O2- 2 i 0.54538(18) -0.9706(4) 0.0497(2) 1 0 0.0110(5) 
O24 O2- 2 i -0.1403(2) 0.0404(5) 0.0630(3) 1 0 0.0199(6) 
O25 O2- 2 i 0.1139(2) 0.2488(5) 0.2142(3) 1 0 0.0140(6) 
O26 O2- 2 i 0.3953(2) -0.6575(5) 0.1835(3) 1 0 0.0139(6) 
O27 O2- 2 i -0.04552(19) 0.0924(5) 0.1091(3) 1 0 0.0145(6) 

loop_
_atom_site_aniso_label
_atom_site_aniso_type_symbol
_atom_site_aniso_U_11
_atom_site_aniso_U_22
_atom_site_aniso_U_33
_atom_site_aniso_U_12
_atom_site_aniso_U_13
_atom_site_aniso_U_23
Te1 Te4+ 0.00989(11) 0.00991(11) 0.01050(12) -0.00790(10) 0.00286(9) 
0.00005(9)
Te2 Te4+ 0.00835(11) 0.00953(11) 0.00814(11) -0.00724(10) 0.00169(8) 
0.00014(8)
Te3 Te4+ 0.00768(10) 0.00788(10) 0.00842(11) -0.00613(10) 0.00162(8) 
0.00033(8)
Te4 Te4+ 0.01231(12) 0.01573(12) 0.01024(12) -0.01180(11) 0.00279(9) 
-0.00150(9)
Te5 Te4+ 0.01309(12) 0.01574(12) 0.01100(12) -0.01226(11) 0.00167(9) 
-0.00044(9)
Te6 Te4+ 0.00848(11) 0.00941(11) 0.01061(12) -0.00686(10) 0.00145(9) 
0.00096(9)
Te7 Te4+ 0.00933(11) 0.00968(11) 0.00977(12) -0.00775(10) 0.00179(9) 
0.00077(8)
Te8 Te4+ 0.00840(11) 0.00843(10) 0.00936(12) -0.00690(10) 0.00184(8) 
0.00014(8)
Te9 Te4+ 0.00831(11) 0.00845(10) 0.00918(12) -0.00645(10) 0.00152(9) 
0.00055(8)
Ca1 Ca2+ 0.0129(4) 0.0119(3) 0.0126(4) -0.0105(3) 0.0047(3) -0.0019(3)
Ca2 Ca2+ 0.0100(3) 0.0113(3) 0.0133(4) -0.0084(3) 0.0020(3) 0.0014(3)
Ca3 Ca2+ 0.0101(3) 0.0107(3) 0.0104(4) -0.0082(3) 0.0027(3) 0.0001(3)
Ca4 Ca2+ 0.0106(3) 0.0099(3) 0.0106(4) -0.0076(3) 0.0027(3) 0.0007(3)
Ca5 Ca2+ 0.0117(3) 0.0100(3) 0.0097(4) -0.0089(3) 0.0012(3) 0.0008(3)
Ca6 Ca2+ 0.0101(3) 0.0121(3) 0.0091(4) -0.0088(3) 0.0016(3) 0.0005(3)
Ca7 Ca2+ 0.0118(3) 0.0101(3) 0.0106(4) -0.0091(3) 0.0002(3) 0.0017(3)
Ca8 Ca2+ 0.0092(3) 0.0086(3) 0.0101(4) -0.0069(3) 0.0031(3) -0.0004(3)
Ca9 Ca2+ 0.0086(3) 0.0091(3) 0.0106(4) -0.0071(3) 0.0021(3) 0.0004(3)
O1 O2- 0.0158(14) 0.0148(13) 0.0117(14) -0.0134(13) 0.0026(11) -0.0016(10)
O2 O2- 0.0106(13) 0.0127(13) 0.0143(14) -0.0087(12) 0.0028(11) 0.0025(10)
O3 O2- 0.0124(13) 0.0124(12) 0.0128(14) -0.0110(12) -0.0005(10) 0.0032(10)
O4 O2- 0.0114(13) 0.0106(13) 0.0164(15) -0.0076(12) 0.0066(11) -0.0017(11)
O5 O2- 0.0093(12) 0.0092(12) 0.0113(13) -0.0067(11) -0.0004(10) 0.0017(10)
O6 O2- 0.0132(13) 0.0122(13) 0.0125(14) -0.0103(12) 0.0043(11) -0.0033(10)
O7 O2- 0.0198(15) 0.0211(15) 0.0126(14) -0.0184(14) -0.0033(11) 0.0041(11)
O8 O2- 0.0112(13) 0.0102(12) 0.0126(14) -0.0078(12) 0.0048(11) -0.0034(10)
O9 O2- 0.0084(12) 0.0121(13) 0.0106(14) -0.0067(12) -0.0005(10) 0.0013(10)
O10 O2- 0.0215(16) 0.0253(16) 0.0103(15) -0.0182(15) 0.0039(12) -0.0009(12)
O11 O2- 0.0167(16) 0.0310(19) 0.0218(18) -0.0161(16) 0.0051(14) -0.0110(14)
O12 O2- 0.0194(15) 0.0146(13) 0.0100(14) -0.0134(13) -0.0013(11) 0.0045(11)
O13 O2- 0.0242(16) 0.0154(14) 0.0158(15) -0.0153(14) 0.0077(12) -0.0016(11)
O14 O2- 0.0132(13) 0.0152(13) 0.0210(16) -0.0112(12) 0.0005(11) 0.0072(11)
O15 O2- 0.0151(13) 0.0131(13) 0.0120(14) -0.0117(12) 0.0014(11) 0.0011(10)
O16 O2- 0.0098(13) 0.0136(14) 0.0197(16) -0.0077(12) 0.0048(11) -0.0025(11)
O17 O2- 0.0372(19) 0.0377(19) 0.0264(18) -0.0348(18) -0.0046(15) 0.0113(15)
O18 O2- 0.0109(13) 0.0099(12) 0.0154(14) -0.0080(12) 0.0052(11) -0.0011(10)
O19 O2- 0.0099(12) 0.0101(12) 0.0089(13) -0.0078(11) -0.0006(10) 0.0036(10)
O20 O2- 0.0104(12) 0.0100(12) 0.0117(13) -0.0079(11) 0.0006(10) 0.0021(10)
O21 O2- 0.0104(13) 0.0114(13) 0.0232(17) -0.0054(12) 0.0030(12) 0.0077(12)
O22 O2- 0.0162(14) 0.0084(12) 0.0223(16) -0.0088(12) 0.0125(12) -0.0058(11)
O23 O2- 0.0102(12) 0.0069(11) 0.0088(13) -0.0057(11) 0.0036(10) -0.0012(9)
O24 O2- 0.0235(16) 0.0203(15) 0.0178(16) -0.0194(14) -0.0033(12) 0.0047(12)
O25 O2- 0.0184(14) 0.0190(14) 0.0142(14) -0.0167(13) 0.0075(11) -0.0032(11)
O26 O2- 0.0172(14) 0.0198(14) 0.0142(14) -0.0165(13) 0.0036(11) 0.0011(11)
O27 O2- 0.0104(13) 0.0162(13) 0.0188(15) -0.0109(12) 0.0042(11) 0.0006(11)
#End of data_260233-ICSD


