data_69143-ICSD
#?2014 by Fachinformationszentrum Karlsruhe, and the U.S. Secretary of 
#Commerce on behalf of the United States.  All rights reserved.
_database_code_ICSD                69143
_audit_creation_date               1992/01/20
_audit_update_record               1992/01/22
_chemical_name_systematic
;
Tripotassium Pentachloro(trichlorostannato(II))iridate(III)
;
_chemical_formula_structural       'K3 ((Sn Cl3) Ir Cl5)'
_chemical_formula_sum              'Cl8 Ir1 K3 Sn1'
_publ_section_title
;
The preparative and structural chemistries of hexahalogeno and 
trichlorostannato complexes of iridium
;
loop_
_citation_id
_citation_journal_abbrev
_citation_year
_citation_journal_volume
_citation_page_first
_citation_page_last
_citation_journal_id_ASTM
primary 'Inorganica Chimica Acta' 1990 177 107 114 ICHAA3
_publ_author_name
;
Coll, R.K.;Fergusson, J.E.;Penfold, B.R.;Rankin, D.A.;Robinson, W.T.
;
_cell_length_a                     9.5873(13)
_cell_length_b                     9.5170(15)
_cell_length_c                     7.8480(9)
_cell_angle_alpha                  90.
_cell_angle_beta                   90.
_cell_angle_gamma                  90.
_cell_volume                       716.07
_cell_formula_units_Z              2
_symmetry_space_group_name_H-M     'P m n 21'
_symmetry_Int_Tables_number        31
_refine_ls_R_factor_all            .025
loop_
_symmetry_equiv_pos_site_id
_symmetry_equiv_pos_as_xyz
  1	'x+.5, -y, z+.5'
  2	'-x+.5, -y, z+.5'
  3	'-x, y, z'
  4	'x, y, z'
loop_
_atom_type_symbol
_atom_type_oxidation_number
Cl1-	-1
Ir3+	3
K1+	1
Sn2+	2
loop_
_atom_site_label
_atom_site_type_symbol
_atom_site_symmetry_multiplicity
_atom_site_Wyckoff_symbol
_atom_site_fract_x
_atom_site_fract_y
_atom_site_fract_z
_atom_site_occupancy
_atom_site_attached_hydrogens
Ir1 Ir3+ 2 a 0 0.3102(1) 0.3418 1. 0 
Sn1 Sn2+ 2 a 0.5 0.9060(1) 0.0219(1) 1. 0 
Cl1 Cl1- 2 a 0.5 0.8148(3) 0.5852(4) 1. 0 
Cl2 Cl1- 4 b 0.7522(2) 0.3122(2) 0.3363(5) 1. 0 
Cl3 Cl1- 2 a 0 0.5292(4) 0.1804(5) 1. 0 
Cl4 Cl1- 2 a 0 0.4367(4) 0.6019(5) 1. 0 
Cl5 Cl1- 4 b 0.8114(2) 0.0661(5) 0.7152(3) 1. 0 
Cl6 Cl1- 2 a 0 0.8569(4) 0.4304(5) 1. 0 
K1 K1+ 2 a 0 0.8593(7) 0.0024(9) 1. 0 
K2 K1+ 4 b 0.7587(3) 0.3733(3) 0.9321(4) 1. 0 

loop_
_atom_site_aniso_label
_atom_site_aniso_type_symbol
_atom_site_aniso_U_11
_atom_site_aniso_U_22
_atom_site_aniso_U_33
_atom_site_aniso_U_12
_atom_site_aniso_U_13
_atom_site_aniso_U_23
Ir1 Ir3+ 0.0123(2) 0.0094(2) 0.0119(2) 0 0 0.0000(2)
Sn1 Sn2+ 0.0135(4) 0.0110(4) 0.0128(4) 0 0 0.0000(3)
Cl1 Cl1- 0.0252(7) 0.0176(18) 0.0139(15) 0 0 0.0063(12)
Cl2 Cl1- 0.0154(9) 0.0189(11) 0.0262(11) 0.0000(1) -.0018(15) 0.001(1)
Cl3 Cl1- 0.0232(15) 0.0128(15) 0.0189(16) 0 0 0.0044(13)
Cl4 Cl1- 0.0269(16) 0.0197(18) 0.0159(14) 0 0 -.0005(1)
Cl5 Cl1- 0.0201(10) 0.0261(12) 0.0208(10) -.0001(1) 0.0045(10) 0.0018(9)
Cl6 Cl1- 0.0252(18) 0.0132(16) 0.0283(20) 0 0 -.0006(15)
K1 K1+ 0.0562(28) 0.0646(36) 0.0608(35) 0 0 -.0066(30)
K2 K1+ 0.0373(14) 0.0334(16) 0.0372(16) 0.0020(12) -.006(1) 0.0018(11)
#End of data_69143-ICSD


