data_419401-ICSD
#?2014 by Fachinformationszentrum Karlsruhe, and the U.S. Secretary of 
#Commerce on behalf of the United States.  All rights reserved.
_database_code_ICSD                419401
_audit_creation_date               2009/02/01
_chemical_name_systematic          'Sodium Thiovanadate(V)'
_chemical_formula_structural       'Na4.5 V1.5 S1.5 O4.5'
_chemical_formula_sum              'Na4.5 O4.5 S1.5 V1.5'
_publ_section_title
;
Potassium-thio/oxo-vanadates(V) K3 [V S(x) O(4-x)] (x = 1 - 4) and 
Na3 [V S O3]: synthesis, structural chemistry, properties
;
loop_
_citation_id
_citation_journal_abbrev
_citation_year
_citation_journal_volume
_citation_journal_issue
_citation_page_first
_citation_page_last
_citation_journal_id_ASTM
primary 'Zeitschrift fuer Naturforschung, B: Chemical Sciences'
 2008 63 7 819 833 ZNBSEN
_publ_author_name                  'Schnabel, S.;Roehr, C.'
_cell_length_a                     8.633(3)
_cell_length_b                     8.633(3)
_cell_length_c                     12.347(4)
_cell_angle_alpha                  90.000(5)
_cell_angle_beta                   90.000(5)
_cell_angle_gamma                  120.000(4)
_cell_volume                       796.92
_cell_formula_units_Z              4
_symmetry_space_group_name_H-M     'R 3 c H'
_symmetry_Int_Tables_number        161
_refine_ls_R_factor_all            .017
loop_
_symmetry_equiv_pos_site_id
_symmetry_equiv_pos_as_xyz
  1	'-x+y, y, z+.5'
  2	'x, x-y, z+.5'
  3	'-y, -x, z+.5'
  4	'-x+y, -x, z'
  5	'-y, x-y, z'
  6	'x, y, z'
  7	'-x+y+.6666, y+.3333, z+.8333'
  8	'-x+y+.3333, y+.6666, z+.1666'
  9	'x+.6666, x-y+.3333, z+.8333'
 10	'x+.3333, x-y+.6666, z+.1666'
 11	'-y+.6666, -x+.3333, z+.8333'
 12	'-y+.3333, -x+.6666, z+.1666'
 13	'-x+y+.6666, -x+.3333, z+.3333'
 14	'-x+y+.3333, -x+.6666, z+.6666'
 15	'-y+.6666, x-y+.3333, z+.3333'
 16	'-y+.3333, x-y+.6666, z+.6666'
 17	'x+.6666, y+.3333, z+.3333'
 18	'x+.3333, y+.6666, z+.6666'
loop_
_atom_type_symbol
_atom_type_oxidation_number
Na1+	1
O2-	-2
S2-	-2
V5+	5
loop_
_atom_site_label
_atom_site_type_symbol
_atom_site_symmetry_multiplicity
_atom_site_Wyckoff_symbol
_atom_site_fract_x
_atom_site_fract_y
_atom_site_fract_z
_atom_site_occupancy
_atom_site_attached_hydrogens
_atom_site_U_iso_or_equiv
Na1 Na1+ 18 b 0.02866(10) 0.35929(9) 0.06576(8) 1 0 0.02436(19) 
V1 V5+ 6 a 0.0000 0.0000 0.18218(3) 1 0 0.01384(14) 
S1 S2- 6 a 0.0000 0.0000 -0.00006(7) 1 0 0.0193(2) 
O1 O2- 18 b 0.18893(18) 0.00273(17) 0.22493(13) 1 0 0.0207(3) 

loop_
_atom_site_aniso_label
_atom_site_aniso_type_symbol
_atom_site_aniso_U_11
_atom_site_aniso_U_22
_atom_site_aniso_U_33
_atom_site_aniso_U_12
_atom_site_aniso_U_13
_atom_site_aniso_U_23
Na1 Na1+ 0.0276(5) 0.0254(5) 0.0231(4) 0.0155(3) 0.0001(4) 0.0031(4)
V1 V5+ 0.01357(18) 0.01357(18) 0.0144(2) 0.00678(9) 0.000 0.000
S1 S2- 0.0214(3) 0.0214(3) 0.0153(4) 0.01069(17) 0.000 0.000
O1 O2- 0.0187(7) 0.0276(8) 0.0183(6) 0.0134(6) 0.0006(5) 0.0021(5)
#End of data_419401-ICSD


