data_158658-ICSD
#?2014 by Fachinformationszentrum Karlsruhe, and the U.S. Secretary of 
#Commerce on behalf of the United States.  All rights reserved.
_database_code_ICSD                158658
_audit_creation_date               2008/08/01
_chemical_name_systematic
;
Calcium Titanosilicate - Lt Antiferroelectric
;
_chemical_formula_structural       'Ca (Ti Si O5)'
_chemical_formula_sum              'Ca1 O5 Si1 Ti1'
_chemical_name_mineral             Titanite
_publ_section_title
;
Paraelectric - antiferroelectric phase transition in titanite, Ca Ti 
Si O5
;
loop_
_citation_id
_citation_journal_abbrev
_citation_year
_citation_journal_volume
_citation_page_first
_citation_page_last
_citation_journal_id_ASTM
primary 'Physics and Chemistry of Minerals' 1991 17 591 603 PCMIDU
_publ_author_name                  'Ghose, S.;Ito, Y.;Hatch, D.M.'
_cell_length_a                     7.0706(5)
_cell_length_b                     8.7416(7)
_cell_length_c                     6.5751(5)
_cell_angle_alpha                  90.
_cell_angle_beta                   113.768(2)
_cell_angle_gamma                  90.
_cell_volume                       371.93
_cell_formula_units_Z              4
_symmetry_space_group_name_H-M     'P 1 21/a 1'
_symmetry_Int_Tables_number        14
_refine_ls_R_factor_all            .028
loop_
_symmetry_equiv_pos_site_id
_symmetry_equiv_pos_as_xyz
  1	'x+.5, -y+.5, z'
  2	'-x, -y, -z'
  3	'-x+.5, y+.5, -z'
  4	'x, y, z'
loop_
_atom_type_symbol
_atom_type_oxidation_number
Ca2+	2
O2-	-2
Si4+	4
Ti4+	4
loop_
_atom_site_label
_atom_site_type_symbol
_atom_site_symmetry_multiplicity
_atom_site_Wyckoff_symbol
_atom_site_fract_x
_atom_site_fract_y
_atom_site_fract_z
_atom_site_occupancy
_atom_site_attached_hydrogens
Ca1 Ca2+ 4 e 0.2432(5) 0.4186(1) 0.2509(4) 1. 0 
Ti1 Ti4+ 4 e 0.5012(3) 0.2515(3) 0.7503(3) 1. 0 
Si1 Si4+ 4 e 0.7509(5) 0.4328(1) 0.2511(5) 1. 0 
O1 O2- 4 e 0.7486(12) 0.3210(2) 0.7507(14) 1. 0 
O2 O2- 4 e 0.9112(8) 0.3155(7) 0.4366(10) 1. 0 
O3 O2- 4 e 0.0889(8) 0.1834(7) 0.0659(10) 1. 0 
O4 O2- 4 e 0.3837(8) 0.4600(5) 0.6471(10) 1. 0 
O5 O2- 4 e 0.6185(8) 0.0391(6) 0.8531(9) 1. 0 

#End of data_158658-ICSD


