data_24847-ICSD
#?2014 by Fachinformationszentrum Karlsruhe, and the U.S. Secretary of 
#Commerce on behalf of the United States.  All rights reserved.
_database_code_ICSD                24847
_audit_creation_date               1982/12/31
_chemical_name_systematic          'Dicalcium Trimanganese(IV) Oxide'
_chemical_formula_structural       'Ca2 Mn3 O8'
_chemical_formula_sum              'Ca2 Mn3 O8'
_publ_section_title
;
Structure of Calcium Manganese Oxide Ca2 Mn3 O8
;
loop_
_citation_id
_citation_journal_abbrev
_citation_year
_citation_journal_volume
_citation_page_first
_citation_page_last
_citation_journal_id_ASTM
primary 'Acta Crystallographica B (24,1968-38,1982)' 1982 38 1795 1797 ACBCAR
_publ_author_name
;
Ansell, G.B.;Modrick, M.A.;Longo, J.M.;Poeppelmeier, K.R.;Horowitz, 
H.S.
;
_cell_length_a                     11.014(4)
_cell_length_b                     5.851(3)
_cell_length_c                     4.942(2)
_cell_angle_alpha                  90.
_cell_angle_beta                   109.73(5)
_cell_angle_gamma                  90.
_cell_volume                       299.78
_cell_formula_units_Z              2
_symmetry_space_group_name_H-M     'C 1 2/m 1'
_symmetry_Int_Tables_number        12
_refine_ls_R_factor_all            .024
loop_
_symmetry_equiv_pos_site_id
_symmetry_equiv_pos_as_xyz
  1	'-x, y, -z'
  2	'-x, -y, -z'
  3	'x, -y, z'
  4	'x, y, z'
  5	'-x+.5, y+.5, -z'
  6	'-x+.5, -y+.5, -z'
  7	'x+.5, -y+.5, z'
  8	'x+.5, y+.5, z'
loop_
_atom_type_symbol
_atom_type_oxidation_number
Ca2+	2
Mn4+	4
O2-	-2
loop_
_atom_site_label
_atom_site_type_symbol
_atom_site_symmetry_multiplicity
_atom_site_Wyckoff_symbol
_atom_site_fract_x
_atom_site_fract_y
_atom_site_fract_z
_atom_site_occupancy
_atom_site_attached_hydrogens
Ca1 Ca2+ 4 i 0.72442(3) 0 0.66593(7) 1. 0 
Mn1 Mn4+ 2 c 0 0 0.5 1. 0 
Mn2 Mn4+ 4 g 0 0.25914(4) 0 1. 0 
O1 O2- 8 j 0.10059(7) 0.22158(15) 0.39171(17) 1. 0 
O2 O2- 4 i 0.59726(11) 0.5 0.90202(25) 1. 0 
O3 O2- 4 i 0.60385(11) 0 0.96258(26) 1. 0 

#End of data_24847-ICSD


