data_28494-ICSD
#?2014 by Fachinformationszentrum Karlsruhe, and the U.S. Secretary of 
#Commerce on behalf of the United States.  All rights reserved.
_database_code_ICSD                28494
_audit_creation_date               1980/01/01
_audit_update_record               1985/05/22
_chemical_name_systematic          'Sodium Pentaantimony Oxide'
_chemical_formula_structural       'Na Sb5 O8'
_chemical_formula_sum              'Na1 O8 Sb5'
_publ_section_title
;
Etude structurale de l'antimoniate (III) de sodium Na Sb5 O8
;
loop_
_citation_id
_citation_journal_abbrev
_citation_year
_citation_journal_volume
_citation_page_first
_citation_page_last
_citation_journal_id_ASTM
primary 'Revue de Chimie Minerale' 1976 13 556 563 RVCMA8
_publ_author_name
;
Sauvage, J.P.;Maraine, P.;Perez, G.
;
_cell_length_a                     9.638
_cell_length_b                     7.291
_cell_length_c                     7.172
_cell_angle_alpha                  85.44
_cell_angle_beta                   105.6
_cell_angle_gamma                  106.11
_cell_volume                       466.35
_cell_formula_units_Z              2
_symmetry_space_group_name_H-M     'P -1'
_symmetry_Int_Tables_number        2
_refine_ls_R_factor_all            .08
loop_
_symmetry_equiv_pos_site_id
_symmetry_equiv_pos_as_xyz
  1	'-x, -y, -z'
  2	'x, y, z'
loop_
_atom_type_symbol
_atom_type_oxidation_number
Na1+	1
O2-	-2
Sb3+	3
loop_
_atom_site_label
_atom_site_type_symbol
_atom_site_symmetry_multiplicity
_atom_site_Wyckoff_symbol
_atom_site_fract_x
_atom_site_fract_y
_atom_site_fract_z
_atom_site_occupancy
_atom_site_attached_hydrogens
_atom_site_B_iso_or_equiv
Na1 Na1+ 2 i 0.029(1) 0.439(1) 0.748(1) 1. 0 1.5 
Sb1 Sb3+ 2 i 0.3335(1) 0.7677(2) 0.1022(2) 1. 0 0.78 
Sb2 Sb3+ 2 i 0.3315(1) 0.3987(2) 0.5384(2) 1. 0 0.67 
Sb3 Sb3+ 2 i 0.0252(1) 0.9385(2) 0.7442(2) 1. 0 0.8 
Sb4 Sb3+ 2 i 0.2804(1) 0.8280(2) 0.5405(2) 1. 0 0.81 
Sb5 Sb3+ 2 i 0.3356(1) 0.3059(2) 0.0260(2) 1. 0 0.77 
O1 O2- 2 i 0.209(1) 0.823(2) 0.251(2) 1. 0 1. 
O2 O2- 2 i 0.083(1) 0.896(2) 0.509(2) 1. 0 0.9 
O3 O2- 2 i 0.443(1) 0.643(2) 0.449(2) 1. 0 1.1 
O4 O2- 2 i 0.182(1) 0.557(2) 0.545(2) 1. 0 0.9 
O5 O2- 2 i 0.192(2) 0.809(3) 0.857(3) 1. 0 2. 
O6 O2- 2 i 0.157(2) 0.193(2) 0.812(2) 1. 0 1.2 
O7 O2- 2 i 0.425(1) 0.456(2) 0.825(2) 1. 0 0.9 
O8 O2- 2 i 0.232(2) 0.491(2) 0.071(2) 1. 0 1.1 

#End of data_28494-ICSD


