data_281543-ICSD
#?2014 by Fachinformationszentrum Karlsruhe, and the U.S. Secretary of 
#Commerce on behalf of the United States.  All rights reserved.
_database_code_ICSD                281543
_audit_creation_date               2004/10/01
_chemical_name_systematic
;
Lithium Dirubidium Tris(trifluoromethylsulfonate) - Alpha
;
_chemical_formula_structural       'Li Rb2 ((C F3) S O3)3'
_chemical_formula_sum              'C3 F9 Li1 O9 Rb2 S3'
_publ_section_title
;
Twinned alpha-(Li Rb2 (C F3 S O3)3)
;
loop_
_citation_id
_citation_journal_abbrev
_citation_year
_citation_journal_volume
_citation_page_first
_citation_page_last
_citation_journal_id_ASTM
primary 'Acta Crystallographica, Section C: Crystal Structure Communications'
 2003 59 i117 i119 ACSCEE
_publ_author_name
;
Pompetzki, M.;Friese, K.;Jansen, M.
;
_cell_length_a                     5.3408(9)
_cell_length_b                     16.286(2)
_cell_length_c                     19.721(3)
_cell_angle_alpha                  90.
_cell_angle_beta                   90.48(1)
_cell_angle_gamma                  90.
_cell_volume                       1715.28
_cell_formula_units_Z              4
_symmetry_space_group_name_H-M     'P 1 21/n 1'
_symmetry_Int_Tables_number        14
_refine_ls_R_factor_all            .068
loop_
_symmetry_equiv_pos_site_id
_symmetry_equiv_pos_as_xyz
  1	'-x+.5, y+.5, -z+.5'
  2	'-x, -y, -z'
  3	'x+.5, -y+.5, z+.5'
  4	'x, y, z'
loop_
_atom_type_symbol
_atom_type_oxidation_number
C4+	4
F1-	-1
Li1+	1
O2-	-2
Rb1+	1
S4+	4
loop_
_atom_site_label
_atom_site_type_symbol
_atom_site_symmetry_multiplicity
_atom_site_Wyckoff_symbol
_atom_site_fract_x
_atom_site_fract_y
_atom_site_fract_z
_atom_site_occupancy
_atom_site_attached_hydrogens
_atom_site_U_iso_or_equiv
Rb1 Rb1+ 4 e 0.0264(3) 0.87556(9) 0.01184(7) 1. 0 0.0367(5) 
Rb2 Rb1+ 4 e -.1026(4) 1.15805(12) -.22444(9) 1. 0 0.0654(8) 
S1 S4+ 4 e 0.0316(8) 0.6932(2) -.13409(19) 1. 0 0.0310(14) 
S2 S4+ 4 e 0.5460(8) 0.7516(3) 0.09017(19) 1. 0 0.0344(15) 
S3 S4+ 4 e -.4912(9) 0.9677(2) -.10632(18) 1. 0 0.0320(14) 
O1 O2- 4 e 0.180(2) 0.7391(6) -.0899(5) 1. 0 0.038(4) 
O2 O2- 4 e 0.124(2) 0.6834(7) -.1986(5) 1. 0 0.053(4) 
O3 O2- 4 e -.2256(18) 0.7116(6) -.1317(5) 1. 0 0.037(4) 
O4 O2- 4 e 0.282(2) 0.7632(7) 0.1033(7) 1. 0 0.066(6) 
O5 O2- 4 e 0.713(2) 0.7910(7) 0.1325(6) 1. 0 0.044(4) 
O6 O2- 4 e 0.6150(19) 0.7502(6) 0.0198(5) 1. 0 0.049(4) 
O7 O2- 4 e -.292(2) 1.0237(8) -.1186(6) 1. 0 0.066(6) 
O8 O2- 4 e -.420(2) 0.8854(6) -.0847(5) 1. 0 0.054(4) 
O9 O2- 4 e -.698(2) 0.9992(7) -.0719(5) 1. 0 0.052(5) 
C1 C4+ 4 e -.595(4) 0.9478(13) -.1964(8) 1. 0 0.061(9) 
C2 C4+ 4 e -.548(4) 1.0889(10) -.4053(11) 1. 0 0.068(9) 
C3 C4+ 4 e 0.577(4) 0.6385(12) 0.1075(9) 1. 0 0.060(8) 
F1 F1- 4 e -.679(2) 1.0173(7) -.2233(6) 1. 0 0.118(7) 
F2 F1- 4 e -.426(3) 0.9161(9) -.2327(6) 1. 0 0.146(8) 
F3 F1- 4 e -.791(3) 0.9015(8) -.1917(6) 1. 0 0.113(7) 
F4 F1- 4 e -.780(2) 1.0659(7) -.4022(7) 1. 0 0.098(7) 
F5 F1- 4 e -.468(4) 1.0886(6) -.4642(5) 1. 0 0.126(7) 
F6 F1- 4 e -.412(3) 1.0404(6) -.3659(6) 1. 0 0.103(6) 
F7 F1- 4 e 0.502(3) 0.6303(6) 0.1696(5) 1. 0 0.117(6) 
F8 F1- 4 e 0.457(3) 0.5964(7) 0.0681(6) 1. 0 0.110(6) 
F9 F1- 4 e 0.8187(19) 0.6242(8) 0.1085(7) 1. 0 0.114(7) 
Li1 Li1+ 4 e 0.534(5) 0.7604(12) -.0743(11) 1. 0 0.027(8) 

loop_
_atom_site_aniso_label
_atom_site_aniso_type_symbol
_atom_site_aniso_U_11
_atom_site_aniso_U_22
_atom_site_aniso_U_33
_atom_site_aniso_U_12
_atom_site_aniso_U_13
_atom_site_aniso_U_23
Rb1 Rb1+ 0.0342(9) 0.0356(9) 0.0403(9) -.0022(9) 0.0000(9) -.0031(8)
Rb2 Rb1+ 0.0454(12) 0.1113(18) 0.0393(10) -.0068(11) -.0093(10) 0.0037(12)
S1 S4+ 0.030(3) 0.034(2) 0.029(2) 0.001(2) 0.002(2) -.0091(17)
S2 S4+ 0.031(3) 0.046(3) 0.026(2) 0.003(2) -.004(2) 0.0054(19)
S3 S4+ 0.033(3) 0.026(2) 0.038(2) 0.001(2) -.001(2) -.0018(18)
O1 O2- 0.037(8) 0.029(7) 0.048(8) 0.007(5) -.010(6) -.026(6)
O2 O2- 0.061(8) 0.061(8) 0.038(7) -.001(7) 0.013(6) -.022(6)
O3 O2- 0.025(7) 0.045(8) 0.042(7) 0.001(5) -.002(6) -.004(6)
O4 O2- 0.022(8) 0.080(12) 0.096(13) 0.009(6) 0.005(7) 0.002(9)
O5 O2- 0.042(7) 0.042(8) 0.047(8) -.009(6) -.008(6) -.004(7)
O6 O2- 0.067(8) 0.045(7) 0.036(6) -.029(6) 0.012(7) 0.008(6)
O7 O2- 0.036(8) 0.072(10) 0.091(11) -.002(7) -.010(8) -.019(9)
O8 O2- 0.067(9) 0.039(7) 0.055(7) 0.008(7) -.038(6) -.005(6)
O9 O2- 0.039(7) 0.078(10) 0.040(8) -.002(7) 0.002(6) 0.008(7)
C1 C4+ 0.079(17) 0.071(17) 0.031(11) -.020(13) -.034(11) -.001(11)
C2 C4+ 0.064(16) 0.028(11) 0.112(18) 0.000(11) -.002(16) 0.026(12)
C3 C4+ 0.086(17) 0.054(15) 0.040(12) 0.000(12) 0.025(12) 0.037(10)
F1 F1- 0.186(14) 0.081(10) 0.087(9) 0.032(9) -.037(10) 0.029(8)
F2 F1- 0.146(14) 0.213(17) 0.078(9) 0.092(12) -.037(11) -.079(10)
F3 F1- 0.151(14) 0.111(12) 0.077(9) -.026(10) -.079(9) 0.004(8)
F4 F1- 0.087(10) 0.060(9) 0.146(14) -.029(7) -.014(9) 0.000(8)
F5 F1- 0.233(17) 0.081(9) 0.063(8) -.031(12) 0.030(12) -.037(6)
F6 F1- 0.138(12) 0.040(7) 0.133(11) 0.030(8) 0.018(10) 0.025(7)
F7 F1- 0.162(13) 0.093(9) 0.098(9) -.003(11) -.008(11) 0.050(8)
F8 F1- 0.137(13) 0.075(9) 0.118(10) -.011(10) -.027(12) -.017(7)
F9 F1- 0.078(9) 0.075(10) 0.189(15) 0.042(8) -.011(9) 0.043(10)
Li1 Li1+ 0.031(17) 0.016(13) 0.033(14) 0.006(13) 0.011(13) 0.007(10)
#End of data_281543-ICSD


