data_24131-ICSD
#?2014 by Fachinformationszentrum Karlsruhe, and the U.S. Secretary of 
#Commerce on behalf of the United States.  All rights reserved.
_database_code_ICSD                24131
_audit_creation_date               1980/01/01
_audit_update_record               2007/08/01
_chemical_name_systematic          'Dipotassium Stannate'
_chemical_formula_structural       'K2 (Sn O3)'
_chemical_formula_sum              'K2 O3 Sn1'
_publ_section_title
;
Les systemes etain(IV)-oxygene-potassium et zirconium oxygene-
potassium
;
loop_
_citation_id
_citation_journal_abbrev
_citation_year
_citation_journal_volume
_citation_page_first
_citation_page_last
_citation_journal_id_ASTM
primary 'Annales de Chimie (Paris) (Vol=Year)' 1964 1964 579 600 ANCPAC
_publ_author_name                  'Tournoux, M.'
_cell_length_a                     10.309(4)
_cell_length_b                     7.106(5)
_cell_length_c                     5.72(1)
_cell_angle_alpha                  90.
_cell_angle_beta                   90.
_cell_angle_gamma                  90.
_cell_volume                       419.02
_cell_formula_units_Z              4
_symmetry_space_group_name_H-M     'P m c n'
_symmetry_Int_Tables_number        62
_refine_ls_R_factor_all            .38
loop_
_symmetry_equiv_pos_site_id
_symmetry_equiv_pos_as_xyz
  1	'x, -y+.5, z+.5'
  2	'-x+.5, y, z'
  3	'x+.5, y+.5, -z+.5'
  4	'-x, -y, -z'
  5	'-x, y+.5, -z+.5'
  6	'x+.5, -y, -z'
  7	'-x+.5, -y+.5, z+.5'
  8	'x, y, z'
loop_
_atom_type_symbol
_atom_type_oxidation_number
K1+	1
O2-	-2
Sn4+	4
loop_
_atom_site_label
_atom_site_type_symbol
_atom_site_symmetry_multiplicity
_atom_site_Wyckoff_symbol
_atom_site_fract_x
_atom_site_fract_y
_atom_site_fract_z
_atom_site_occupancy
_atom_site_attached_hydrogens
K1 K1+ 8 d 0.41 0.63 0.77 1. 0 
Sn1 Sn4+ 4 c 0.25 0.343 0.25 1. 0 
O1 O2- 4 c 0.25 0.54 0.53 1. 0 
O2 O2- 8 d 0.37 0.37 0.01 1. 0 

#End of data_24131-ICSD


