data_164183-ICSD
#?2014 by Fachinformationszentrum Karlsruhe, and the U.S. Secretary of 
#Commerce on behalf of the United States.  All rights reserved.
_database_code_ICSD                164183
_audit_creation_date               2010/02/01
_chemical_name_systematic
;
Calcium Bis(tetrahydridoborate) - Beta
;
_chemical_formula_structural       'Ca (B H4)2'
_chemical_formula_sum              'H8 B2 Ca1'
_publ_section_title
;
Crystal structure and phonon instability of high-temperature beta-(Ca 
(B H4)2)
;
loop_
_citation_id
_citation_journal_abbrev
_citation_year
_citation_journal_volume
_citation_page_first
_citation_page_last
_citation_journal_id_ASTM
primary 'Physical Review, Serie 3. B - Condensed Matter (18,1978-)'
 2009 79 104107-1 104107-9 PRBMDO
_publ_author_name
;
Lee Young Su;Kim Yoonyoung;Cho Young Whan;Shapiro, D.;Wolverton, 
C.;Ozolins, V.
;
_cell_length_a                     6.9241(2)
_cell_length_b                     6.9241(2)
_cell_length_c                     4.3492(1)
_cell_angle_alpha                  90.
_cell_angle_beta                   90.
_cell_angle_gamma                  90.
_cell_volume                       208.51
_cell_formula_units_Z              2
_symmetry_space_group_name_H-M     'P 42/m'
_symmetry_Int_Tables_number        84
_refine_ls_R_factor_all            .026
loop_
_symmetry_equiv_pos_site_id
_symmetry_equiv_pos_as_xyz
  1	'-y, x, -z+.5'
  2	'y, -x, -z+.5'
  3	'x, y, -z'
  4	'-x, -y, -z'
  5	'y, -x, z+.5'
  6	'-y, x, z+.5'
  7	'-x, -y, z'
  8	'x, y, z'
loop_
_atom_type_symbol
_atom_type_oxidation_number
B3+	3
Ca2+	2
H1-	-1
loop_
_atom_site_label
_atom_site_type_symbol
_atom_site_symmetry_multiplicity
_atom_site_Wyckoff_symbol
_atom_site_fract_x
_atom_site_fract_y
_atom_site_fract_z
_atom_site_occupancy
_atom_site_attached_hydrogens
_atom_site_B_iso_or_equiv
Ca1 Ca2+ 2 d 0 0.5 0.5 1. 0 1.5 
B1 B3+ 4 j 0.210(2) 0.695(2) 0 1. 0 3.1 
H1 H1- 4 j 0.464 0.680 0 1. 0 10.3 
H2 H1- 4 j 0.163 0.548 0 1. 0 4.4 
H3 H1- 8 k 0.170 0.755 0.809 1. 0 8.1 

loop_
_atom_site_aniso_label
_atom_site_aniso_type_symbol
_atom_site_aniso_U_11
_atom_site_aniso_U_22
_atom_site_aniso_U_33
_atom_site_aniso_U_12
_atom_site_aniso_U_13
_atom_site_aniso_U_23
B1 B3+ 0.056 0.042 0.021 -0.022 0. 0.
H1 H1- 0.066 0.166 0.158 -0.070 0. 0.
H2 H1- 0.063 0.045 0.060 -0.014 0. 0.
H3 H1- 0.188 0.072 0.046 0.004 -0.029 0.014
#End of data_164183-ICSD


