data_39463-ICSD
#?2014 by Fachinformationszentrum Karlsruhe, and the U.S. Secretary of 
#Commerce on behalf of the United States.  All rights reserved.
_database_code_ICSD                39463
_audit_creation_date               1992/08/20
_audit_update_record               2012/08/01
_chemical_name_systematic
;
Potassium Antimony(V) Oxide Germanate
;
_chemical_formula_structural       'K Sb O (Ge O4)'
_chemical_formula_sum              'Ge1 K1 O5 Sb1'
_publ_section_title
;
Synthesis of germanates and silicates with the structure K Ti O P O4 
and crystalline structure of K Sb O Ge O4
;
loop_
_citation_id
_citation_journal_abbrev
_citation_year
_citation_journal_volume
_citation_page_first
_citation_page_last
_citation_journal_id_ASTM
primary 'Izvestiya Akademii Nauk SSSR, Neorganicheskie Materialy'
 1991 27 1708 1713 IVNMAW
2 'Golden Book of Phase Transitions, Wroclaw' 2002 1 1 123 GBOPT5
_publ_author_name
;
Belokoneva, E.L.;Mill', B.V.;Butashin, A.V.
;
_cell_length_a                     13.224(2)
_cell_length_b                     6.597(1)
_cell_length_c                     10.759(2)
_cell_angle_alpha                  90.
_cell_angle_beta                   90.
_cell_angle_gamma                  90.
_cell_volume                       938.6
_cell_formula_units_Z              8
_symmetry_space_group_name_H-M     'P n a 21'
_symmetry_Int_Tables_number        33
_refine_ls_R_factor_all            .026
loop_
_symmetry_equiv_pos_site_id
_symmetry_equiv_pos_as_xyz
  1	'x+.5, -y+.5, z'
  2	'-x+.5, y+.5, z+.5'
  3	'-x, -y, z+.5'
  4	'x, y, z'
loop_
_atom_type_symbol
_atom_type_oxidation_number
Ge4+	4
K1+	1
O2-	-2
Sb5+	5
loop_
_atom_site_label
_atom_site_type_symbol
_atom_site_symmetry_multiplicity
_atom_site_Wyckoff_symbol
_atom_site_fract_x
_atom_site_fract_y
_atom_site_fract_z
_atom_site_occupancy
_atom_site_attached_hydrogens
K1 K1+ 4 a 0.3828(2) 0.7756(2) 0.6861(2) 1. 0 
K2 K1+ 4 a 0.1106(1) 0.7023(3) 0.9322(2) 1. 0 
Sb1 Sb5+ 4 a 0.24511(2) 0.25654(5) 0.75511(6) 1. 0 
Sb2 Sb5+ 4 a 0.38308(2) 0.50765(5) 0 1. 0 
Ge1 Ge4+ 4 a 0.49751(5) 0.31733(7) 0.7498(1) 1. 0 
Ge2 Ge4+ 4 a 0.18195(3) 0.51078(9) 0.5013(1) 1. 0 
O1 O2- 4 a 0.4864(4) 0.4959(7) 0.8690(4) 1. 0 
O2 O2- 4 a 0.9966(3) 0.9585(8) 0.1151(4) 1. 0 
O3 O2- 4 a 0.3888(3) 0.1674(6) 0.7400(5) 1. 0 
O4 O2- 4 a 0.8987(3) 0.6600(7) 0.2718(5) 1. 0 
O5 O2- 4 a 0.1070(4) 0.3030(6) 0.4636(5) 1. 0 
O6 O2- 4 a 0.6026(4) 0.7866(7) 0.5350(5) 1. 0 
O7 O2- 4 a 0.2703(5) 0.5512(9) 0.3854(5) 1. 0 
O8 O2- 4 a 0.7648(5) 0.0370(9) 0.6272(5) 1. 0 
O9 O2- 4 a 0.2246(5) 0.9693(9) 0.3789(5) 1. 0 
O10 O2- 4 a 0.7178(5) 0.4533(9) 0.6312(5) 1. 0 

loop_
_atom_site_aniso_label
_atom_site_aniso_type_symbol
_atom_site_aniso_B_11
_atom_site_aniso_B_22
_atom_site_aniso_B_33
_atom_site_aniso_B_12
_atom_site_aniso_B_13
_atom_site_aniso_B_23
K1 K1+ 2.10(6) 0.55(4) 3.02(8) 0.21(4) -.85(6) -.42(5)
K2 K1+ 0.99(4) 1.08(5) 2.94(5) 0.35(4) -.03(5) -.16(5)
Sb1 Sb5+ 0.26(1) 0.23(1) 0.23(1) -.01(1) -.02(1) 0.01(1)
Sb2 Sb5+ 0.29(1) 0.16(1) 0.23(1) 0.01(1) 0.01(1) -.04(1)
Ge1 Ge4+ 0.28(1) 0.27(1) 0.29(1) 0.01(1) 0.06(1) 0.01(2)
Ge2 Ge4+ 0.45(1) 0.16(1) 0.35(1) -.01(1) -.01(2) 0.05(1)
O1 O2- 0.69(11) 0.53(14) 0.64(13) -.19(10) 0.35(10) -.29(11)
O2 O2- 0.60(12) 0.72(14) 0.38(11) -.08(10) -.07(9) 0.15(10)
O3 O2- 0.19(8) 0.44(11) 0.89(15) -.13(8) 0.04(9) 0.17(11)
O4 O2- 0.30(9) 0.56(12) 1.11(17) 0.01(8) 0.18(10) 0.16(13)
O5 O2- 0.71(12) 0.19(11) 1.02(16) -.15(9) -.48(11) 0.13(11)
O6 O2- 0.89(14) 0.10(11) 1.28(17) -.07(9) 0.18(12) -.13(11)
O7 O2- 0.64(13) 0.50(15) 0.76(14) 0.16(11) 0.26(12) 0.28(12)
O8 O2- 0.81(14) 0.58(15) 0.47(12) 0.29(12) -.14(11) -.35(11)
O9 O2- 0.64(13) 0.64(15) 0.55(13) -.27(12) 0.39(20) -.44(12)
O10 O2- 0.79(15) 0.68(15) 0.68(14) -.11(13) -.43(12) 0.38(13)
#End of data_39463-ICSD


