data_94467-ICSD
#?2014 by Fachinformationszentrum Karlsruhe, and the U.S. Secretary of 
#Commerce on behalf of the United States.  All rights reserved.
_database_code_ICSD                94467
_audit_creation_date               2003/10/01
_chemical_name_systematic          'Dipotassium Diferrate(III)'
_chemical_formula_structural       'K2 (Fe2 O4)'
_chemical_formula_sum              'Fe2 K2 O4'
_publ_section_title
;
Das gemischtvalente ternaere Oxoferrat(II,III) K3 (Fe2 O4) - eine 
aufgefuellte Variante des K2 (Fe2 O4) - Typs
;
loop_
_citation_id
_citation_journal_abbrev
_citation_year
_citation_journal_volume
_citation_page_first
_citation_page_last
_citation_journal_id_ASTM
primary 'Zeitschrift fuer Anorganische und Allgemeine Chemie (1950) (DE)'
 2001 627 2537 2541 ZAACAB
_publ_author_name                  'Moeller, A.'
_cell_length_a                     5.5918(7)
_cell_length_b                     11.221(1)
_cell_length_c                     15.928(2)
_cell_angle_alpha                  90
_cell_angle_beta                   90
_cell_angle_gamma                  90
_cell_volume                       999.41
_cell_formula_units_Z              8
_symmetry_space_group_name_H-M     'P b c a'
_symmetry_Int_Tables_number        61
_refine_ls_R_factor_all            .043
loop_
_symmetry_equiv_pos_site_id
_symmetry_equiv_pos_as_xyz
  1	'x+.5, y, -z+.5'
  2	'x, -y+.5, z+.5'
  3	'-x+.5, y+.5, z'
  4	'-x, -y, -z'
  5	'-x+.5, -y, z+.5'
  6	'-x, y+.5, -z+.5'
  7	'x+.5, -y+.5, -z'
  8	'x, y, z'
loop_
_atom_type_symbol
_atom_type_oxidation_number
Fe3+	3
K1+	1
O2-	-2
loop_
_atom_site_label
_atom_site_type_symbol
_atom_site_symmetry_multiplicity
_atom_site_Wyckoff_symbol
_atom_site_fract_x
_atom_site_fract_y
_atom_site_fract_z
_atom_site_occupancy
_atom_site_attached_hydrogens
_atom_site_U_iso_or_equiv
Fe1 Fe3+ 8 c 0.25696(7) 0.00965(5) 0.18906(3) 1. 0 0.0083(2) 
Fe2 Fe3+ 8 c 0.2829(1) 0.26452(4) 0.06429(3) 1. 0 0.0082(2) 
K1 K1+ 8 c 0.7557(1) 0.01093(8) 0.06118(5) 1. 0 0.0209(2) 
K2 K1+ 8 c 0.8010(2) 0.26399(8) 0.18414(5) 1. 0 0.0203(2) 
O1 O2- 8 c 0.5774(4) 0.2968(2) 0.0166(2) 1. 0 0.0298(7) 
O2 O2- 8 c 0.1556(4) 0.4095(2) 0.1015(1) 1. 0 0.0171(5) 
O3 O2- 8 c 0.3134(5) 0.1662(2) 0.1564(1) 1. 0 0.0288(6) 
O4 O2- 8 c 0.9381(4) 0.9801(2) 0.2153(1) 1. 0 0.0223(6) 

loop_
_atom_site_aniso_label
_atom_site_aniso_type_symbol
_atom_site_aniso_U_11
_atom_site_aniso_U_22
_atom_site_aniso_U_33
_atom_site_aniso_U_12
_atom_site_aniso_U_13
_atom_site_aniso_U_23
Fe1 Fe3+ 0.0063(3) 0.0082(3) 0.0103(3) -0.0000(2) -0.0001(2) 0.0003(1)
Fe2 Fe3+ 0.0060(3) 0.0082(3) 0.0105(3) -0.0001(1) -0.0001(1) -0.0008(2)
K1 K1+ 0.0186(5) 0.0235(4) 0.0206(5) -0.0031(3) -0.0013(3) 0.0061(3)
K2 K1+ 0.0166(5) 0.0216(4) 0.0226(5) 0.0008(3) 0.0020(3) 0.0038(3)
O1 O2- 0.0152(13) 0.0337(14) 0.0405(15) -0.0109(11) 0.0171(11) -0.0203(13)
O2 O2- 0.0145(12) 0.0129(10) 0.0238(12) 0.0051(9) -0.0053(9) -0.0075(9)
O3 O2- 0.0527(18) 0.0127(12) 0.0211(13) -0.0046(11) -0.0040(12) 0.0056(10)
O4 O2- 0.0072(11) 0.0393(15) 0.0205(12) -0.0030(9) 0.0043(9) -0.0105(11)
#End of data_94467-ICSD


