data_15590-ICSD
#?2014 by Fachinformationszentrum Karlsruhe, and the U.S. Secretary of 
#Commerce on behalf of the United States.  All rights reserved.
_database_code_ICSD                15590
_audit_creation_date               1986/10/14
_audit_update_record               2011/02/01
_chemical_name_systematic          'Potassium Copper Chloride'
_chemical_formula_structural       'K Cu Cl3'
_chemical_formula_sum              'Cl3 Cu1 K1'
_publ_section_title
;
Crystal structures of K Cu Cl3 and N H4 Cu Cl3
;
loop_
_citation_id
_citation_journal_abbrev
_citation_year
_citation_journal_volume
_citation_page_first
_citation_page_last
_citation_journal_id_ASTM
primary 'Journal of Chemical Physics' 1963 38 2429 2436 JCPSA6
_publ_author_name
;
Willett, R.D.;Dwiggins, C.jr.;Kruh, R.F.;Rundle, R.E.
;
_cell_length_a                     4.029(5)
_cell_length_b                     13.785(3)
_cell_length_c                     8.736(4)
_cell_angle_alpha                  90.
_cell_angle_beta                   97.33(8)
_cell_angle_gamma                  90.
_cell_volume                       481.23
_cell_formula_units_Z              4
_symmetry_space_group_name_H-M     'P 1 21/c 1'
_symmetry_Int_Tables_number        14
_refine_ls_R_factor_all            .111
loop_
_symmetry_equiv_pos_site_id
_symmetry_equiv_pos_as_xyz
  1	'x, -y+.5, z+.5'
  2	'-x, -y, -z'
  3	'-x, y+.5, -z+.5'
  4	'x, y, z'
loop_
_atom_type_symbol
_atom_type_oxidation_number
Cl1-	-1
Cu2+	2
K1+	1
loop_
_atom_site_label
_atom_site_type_symbol
_atom_site_symmetry_multiplicity
_atom_site_Wyckoff_symbol
_atom_site_fract_x
_atom_site_fract_y
_atom_site_fract_z
_atom_site_occupancy
_atom_site_attached_hydrogens
Cu1 Cu2+ 4 e 0.2408(3) 0.04976(8) 0.15750(14) 1. 0 
Cl1 Cl1- 4 e 0.2754(6) 0.19875(16) 0.2630(3) 1. 0 
Cl2 Cl1- 4 e 0.6782(5) -.00745(17) 0.32171(26) 1. 0 
Cl3 Cl1- 4 e -.1797(5) 0.09875(15) -.03369(28) 1. 0 
K1 K1+ 4 e 0.7825(6) 0.17081(18) 0.55692(33) 1. 0 

#End of data_15590-ICSD


