data_82262-ICSD
#?2014 by Fachinformationszentrum Karlsruhe, and the U.S. Secretary of 
#Commerce on behalf of the United States.  All rights reserved.
_database_code_ICSD                82262
_audit_creation_date               1999/11/30
_chemical_name_systematic
;
Potassium Catena-pentathiophospho(V)titanate
;
_chemical_formula_structural       'K (Ti P S5)'
_chemical_formula_sum              'K1 P1 S5 Ti1'
_publ_section_title
;
Synthesis and structures of new one-dimensional K Ti P S5 and Rb Ti P 
S5
;
loop_
_citation_id
_citation_journal_abbrev
_citation_year
_citation_journal_volume
_citation_page_first
_citation_page_last
_citation_journal_id_ASTM
primary 'Journal of Solid State Chemistry' 1996 125 30 36 JSSCBI
_publ_author_name                  'Do, J.;Lee, K.;Yun, H.'
_cell_length_a                     17.6780(80)
_cell_length_b                     7.080(4)
_cell_length_c                     6.325(3)
_cell_angle_alpha                  90.
_cell_angle_beta                   97.99(4)
_cell_angle_gamma                  90.
_cell_volume                       783.95
_cell_formula_units_Z              4
_symmetry_space_group_name_H-M     'C 1 2/m 1'
_symmetry_Int_Tables_number        12
_refine_ls_R_factor_all            .055
loop_
_symmetry_equiv_pos_site_id
_symmetry_equiv_pos_as_xyz
  1	'-x, y, -z'
  2	'-x, -y, -z'
  3	'x, -y, z'
  4	'x, y, z'
  5	'-x+.5, y+.5, -z'
  6	'-x+.5, -y+.5, -z'
  7	'x+.5, -y+.5, z'
  8	'x+.5, y+.5, z'
loop_
_atom_type_symbol
_atom_type_oxidation_number
K1+	1
P5+	5
S2-	-2
Ti4+	4
loop_
_atom_site_label
_atom_site_type_symbol
_atom_site_symmetry_multiplicity
_atom_site_Wyckoff_symbol
_atom_site_fract_x
_atom_site_fract_y
_atom_site_fract_z
_atom_site_occupancy
_atom_site_attached_hydrogens
K1 K1+ 4 i 0.7679(2) 0 0.2642(4) 1. 0 
Ti1 Ti4+ 4 h 0 0.2225(2) 0.5 1. 0 
P1 P5+ 4 i 0.8672(1) 0.5 0.2885(4) 1. 0 
S1 S2- 4 i 0.0624(2) 0 0.3252(4) 1. 0 
S2 S2- 4 i 0.0849(1) 0.5 0.3925(4) 1. 0 
S3 S2- 8 j -.0860(1) 0.7333(2) 0.1667(3) 1. 0 
S4 S2- 4 i 0.2539(1) 0 0.2451(4) 1. 0 

loop_
_atom_site_aniso_label
_atom_site_aniso_type_symbol
_atom_site_aniso_U_11
_atom_site_aniso_U_22
_atom_site_aniso_U_33
_atom_site_aniso_U_12
_atom_site_aniso_U_13
_atom_site_aniso_U_23
K1 K1+ 0.049(2) 0.034(1) 0.032(1) 0 0.010(1) 0
Ti1 Ti4+ 0.026(1) 0.006(1) 0.028(1) 0 0.001(1) 0
P1 P5+ 0.024(1) 0.011(1) 0.023(1) 0 0.000(1) 0
S1 S2- 0.030(1) 0.007(1) 0.034(1) 0 0.009(1) 0
S2 S2- 0.023(1) 0.009(1) 0.021(1) 0 0.001(1) 0
S3 S2- 0.032(1) 0.014(1) 0.025(1) -.001(1) -.001(1) 0.005(1)
S4 S2- 0.023(1) 0.035(2) 0.029(1) 0 -.001(1) 0
#End of data_82262-ICSD


