data_93749-ICSD
#?2014 by Fachinformationszentrum Karlsruhe, and the U.S. Secretary of 
#Commerce on behalf of the United States.  All rights reserved.
_database_code_ICSD                93749
_audit_creation_date               2003/04/01
_chemical_name_systematic          'Calcium Dimanganate(III)'
_chemical_formula_structural       'Ca (Mn2 O4)'
_chemical_formula_sum              'Ca1 Mn2 O4'
_chemical_name_mineral             Marokite
_publ_section_title
;
Observation of antiferromagnetism in marokite Ca Mn2 O4
;
loop_
_citation_id
_citation_journal_abbrev
_citation_year
_citation_journal_volume
_citation_page_first
_citation_page_last
_citation_journal_id_ASTM
primary 'Journal of Solid State Chemistry' 2001 160 167 173 JSSCBI
_publ_author_name
;
Ling, C.-D.;Neumeier, J.J.;Argyriou, D.N.
;
_cell_length_a                     3.15886(8)
_cell_length_b                     9.9958(2)
_cell_length_c                     9.6776(2)
_cell_angle_alpha                  90
_cell_angle_beta                   90
_cell_angle_gamma                  90
_cell_volume                       305.57
_cell_formula_units_Z              4
_symmetry_space_group_name_H-M     'P b c m'
_symmetry_Int_Tables_number        57
_refine_ls_R_factor_all            .059
loop_
_symmetry_equiv_pos_site_id
_symmetry_equiv_pos_as_xyz
  1	'x, -y+.5, z+.5'
  2	'-x, y+.5, z'
  3	'x, y, -z+.5'
  4	'-x, -y, -z'
  5	'-x, y+.5, -z+.5'
  6	'x, -y+.5, -z'
  7	'-x, -y, z+.5'
  8	'x, y, z'
loop_
_atom_type_symbol
_atom_type_oxidation_number
Ca2+	2
Mn3+	3
O2-	-2
loop_
_atom_site_label
_atom_site_type_symbol
_atom_site_symmetry_multiplicity
_atom_site_Wyckoff_symbol
_atom_site_fract_x
_atom_site_fract_y
_atom_site_fract_z
_atom_site_occupancy
_atom_site_attached_hydrogens
Ca1 Ca2+ 4 d 0.6813(14) 0.3523(5) 0.250 1. 0 
Mn1 Mn3+ 8 e 0.2077(12) 0.1118(3) 0.0684(4) 1. 0 
O1 O2- 4 c 0.5893(10) 0.250 0 1. 0 
O2 O2- 4 d 0.1916(12) 0.1840(3) 0.250 1. 0 
O3 O2- 8 e 0.1991(8) 0.4731(2) 0.1079(2) 1. 0 

loop_
_atom_site_aniso_label
_atom_site_aniso_type_symbol
_atom_site_aniso_U_11
_atom_site_aniso_U_22
_atom_site_aniso_U_33
_atom_site_aniso_U_12
_atom_site_aniso_U_13
_atom_site_aniso_U_23
Ca1 Ca2+ 0.0061(19) 0.013(2) 0.009(2) 0.0006(17) 0. 0.
Mn1 Mn3+ 0.0076(16) 0.0001(14) 0.0026(14) 0.000(13) 0.0003(13) -0.0008(10)
O1 O2- 0.0079(17) 0.0024(16) 0.0082(17) 0. 0. 0.0009(14)
O2 O2- 0.0088(19) 0.0057(16) 0.0018(16) 0.0005(13) 0. 0.
O3 O2- 0.0039(11) 0.0041(11) 0.0051(11) 0.0019(9) -0.00014(10) 0.0003(8)
#End of data_93749-ICSD


