data_4160-ICSD
#?2014 by Fachinformationszentrum Karlsruhe, and the U.S. Secretary of 
#Commerce on behalf of the United States.  All rights reserved.
_database_code_ICSD                4160
_audit_creation_date               1980/01/01
_audit_update_record               1987/10/13
_chemical_name_systematic
;
Tetrapotassium Dodecatungstosilicate - Beta
;
_chemical_formula_structural       'K4 Si W12 O40'
_chemical_formula_sum              'K4 O40 Si1 W12'
_publ_section_title
;
The crystal structure of beta-K4 Si W12 O40 (H2 O)9, containing an 
isomer of the Keggin ion.
;
loop_
_citation_id
_citation_journal_abbrev
_citation_year
_citation_journal_volume
_citation_page_first
_citation_page_last
_citation_journal_id_ASTM
primary 'Bulletin of the Chemical Society of Japan' 1975 48 3146 3151 BCSJA8
_publ_author_name
;
Matsumoto, K.Y.;Kobayashi, A.;Sasaki, Y.
;
_cell_length_a                     20.62(2)
_cell_length_b                     15.57(1)
_cell_length_c                     12.95(1)
_cell_angle_alpha                  90.
_cell_angle_beta                   90.
_cell_angle_gamma                  90.
_cell_volume                       4157.64
_cell_formula_units_Z              4
_symmetry_space_group_name_H-M     'P n m a'
_symmetry_Int_Tables_number        62
_refine_ls_R_factor_all            .138
loop_
_symmetry_equiv_pos_site_id
_symmetry_equiv_pos_as_xyz
  1	'x+.5, y, -z+.5'
  2	'x, -y+.5, z'
  3	'-x+.5, y+.5, z+.5'
  4	'-x, -y, -z'
  5	'-x+.5, -y, z+.5'
  6	'-x, y+.5, -z'
  7	'x+.5, -y+.5, -z+.5'
  8	'x, y, z'
loop_
_atom_type_symbol
_atom_type_oxidation_number
K1+	1
O2-	-2
Si4+	4
W6+	6
loop_
_atom_site_label
_atom_site_type_symbol
_atom_site_symmetry_multiplicity
_atom_site_Wyckoff_symbol
_atom_site_fract_x
_atom_site_fract_y
_atom_site_fract_z
_atom_site_occupancy
_atom_site_attached_hydrogens
_atom_site_B_iso_or_equiv
W1 W6+ 8 d 0.2764(2) 0.5224(3) 0.6114(4) 1. 0 0 
W2 W6+ 8 d 0.1610(2) 0.6300(3) 0.7331(3) 1. 0 0 
W3 W6+ 8 d 0.3121(2) 0.6310(3) 0.8283(3) 1. 0 0 
W4 W6+ 4 c 0.4416(3) 0.75 0.6895(5) 1. 0 0 
W5 W6+ 8 d 0.4066(2) 0.6428(4) 0.4712(4) 1. 0 0 
W6 W6+ 4 c 0.2783(3) 0.75 0.3248(5) 1. 0 0 
W7 W6+ 8 d 0.1622(2) 0.6428(4) 0.4515(3) 1. 0 0 
K1 K1+ 4 c 0.0021(20) 0.25 0.7037(41) 1. 0 0 
K2 K1+ 4 c 0.7023(24) 0.75 0.4908(49) 1. 0 0 
K3 K1+ 8 d 0.0301(14) 0.4896(25) 0.2482(30) 1. 0 0 
Si1 Si4+ 4 c 0.2756(25) 0.75 0.5922(43) 1. 0 2.3 
O1 O2- 8 d 0.0909(41) 0.5902(56) 0.7982(64) 1. 0 2.3 
O2 O2- 8 d 0.1362(51) 0.6642(76) 0.5983(90) 1. 0 4.5 
O3 O2- 8 d 0.2709(37) 0.6606(55) 0.6586(64) 1. 0 2.2 
O4 O2- 8 d 0.2214(29) 0.6224(42) 0.8435(48) 1. 0 0.7 
O5 O2- 4 c 0.1573(55) 0.75 0.7714(89) 1. 0 1.8 
O6 O2- 8 d 0.1892(35) 0.5321(51) 0.6838(51) 1. 0 1.6 
O7 O2- 8 d 0.1034(29) 0.5787(46) 0.3924(53) 1. 0 0.8 
O8 O2- 4 c 0.1199(45) 0.75 0.4109(83) 1. 0 1. 
O9 O2- 8 d 0.2075(32) 0.6633(49) 0.3244(58) 1. 0 1.4 
O10 O2- 8 d 0.2218(39) 0.5673(54) 0.5044(62) 1. 0 2. 
O11 O2- 4 c 0.2358(76) 0.75 0.507(13) 1. 0 4.3 
O12 O2- 4 c 0.3026(95) 0.75 0.192(16) 1. 0 6.5 
O13 O2- 8 d 0.3278(37) 0.6649(56) 0.3721(65) 1. 0 2.2 
O14 O2- 4 c 0.430(14) 0.75 0.426(24) 1. 0 11.9 
O15 O2- 8 d 0.4454(53) 0.5714(81) 0.3887(93) 1. 0 4.7 
O16 O2- 8 d 0.4630(32) 0.6717(51) 0.6019(59) 1. 0 1.5 
O17 O2- 4 c 0.3631(41) 0.75 0.5681(70) 1. 0 0.5 
O18 O2- 8 d 0.3518(28) 0.5710(44) 0.5425(51) 1. 0 0.6 
O19 O2- 4 c 0.5152(40) 0.75 0.7689(72) 1. 0 0.4 
O20 O2- 8 d 0.3952(37) 0.6536(55) 0.7505(68) 1. 0 2.3 
O21 O2- 8 d 0.3410(55) 0.5910(78) 0.9393(87) 1. 0 4.7 
O22 O2- 4 c 0.2986(47) 0.75 0.8642(85) 1. 0 1.3 
O23 O2- 8 d 0.3163(32) 0.5234(46) 0.7530(46) 1. 0 1.2 
O24 O2- 8 d 0.2882(33) 0.4251(48) 0.5794(57) 1. 0 1.4 

loop_
_atom_site_aniso_label
_atom_site_aniso_type_symbol
_atom_site_aniso_B_11
_atom_site_aniso_B_22
_atom_site_aniso_B_33
_atom_site_aniso_B_12
_atom_site_aniso_B_13
_atom_site_aniso_B_23
W1 W6+ 0.0004(1) 0.0024(2) 0.0017(2) 0.0001(1) 0.0000(1) -.0005(2)
W2 W6+ 0.0003(1) 0.0021(2) 0.0023(2) -.0001(1) 0.0001(1) -.0001(2)
W3 W6+ 0.0003(1) 0.0019(2) 0.0017(2) 0.0001(1) -.0001(1) 0.0001(2)
W4 W6+ 0.0002(1) 0.0020(3) 0.0017(4) 0 -.0002(2) 0
W5 W6+ 0.0004(1) 0.0024(2) 0.0021(2) 0.0001(1) 0.0003(1) -.0003(2)
W6 W6+ 0.0007(1) 0.0036(4) 0.0013(4) 0 -.0002(2) 0
W7 W6+ 0.0005(1) 0.0023(2) 0.0020(2) -.0003(1) -.0004(1) 0.0000(2)
K1 K1+ 0.0016(10) 0.0019(17) 0.0081(41) 0 -.0012(17) 0
K2 K1+ 0.0018(13) 0.0052(31) 0.0096(50) 0 -.0012(19) 0
K3 K1+ 0.0009(5) 0.0065(20) 0.0075(26) 0.0003(10) 0.0026(10) -.0027(22)
#End of data_4160-ICSD


