data_14174-ICSD
#?2014 by Fachinformationszentrum Karlsruhe, and the U.S. Secretary of 
#Commerce on behalf of the United States.  All rights reserved.
_database_code_ICSD                14174
_audit_creation_date               1980/12/31
_chemical_name_systematic
;
Dibarium Zinc Mue-oxo-bis(trithiogermanate)
;
_chemical_formula_structural       'Ba2 Zn Ge2 S6 O'
_chemical_formula_sum              'Ba2 Ge2 O1 S6 Zn1'
_publ_section_title
;
Ba2 Zn Ge2 S6 O: Ein neues Oxidsulfid mit Tetraedergerueststruktur
;
loop_
_citation_id
_citation_journal_abbrev
_citation_year
_citation_journal_volume
_citation_page_first
_citation_page_last
_citation_journal_id_ASTM
primary
;
Zeitschrift fuer Naturforschung, Teil B. Anorganische Chemie, 
Organische Chemie (33,1978-41,1986)
;
 1980 35 672 675 ZNBAD2
_publ_author_name                  'Teske, C.L.'
_cell_length_a                     9.6359(22)
_cell_length_b                     9.6359(22)
_cell_length_c                     6.4506(26)
_cell_angle_alpha                  90.
_cell_angle_beta                   90.
_cell_angle_gamma                  90.
_cell_volume                       598.94
_cell_formula_units_Z              2
_symmetry_space_group_name_H-M     'P -4 21 m'
_symmetry_Int_Tables_number        113
_refine_ls_R_factor_all            .048
loop_
_symmetry_equiv_pos_site_id
_symmetry_equiv_pos_as_xyz
  1	'-y+.5, -x+.5, z'
  2	'y, -x, -z'
  3	'y+.5, x+.5, z'
  4	'-y, x, -z'
  5	'x+.5, -y+.5, -z'
  6	'-x, -y, z'
  7	'-x+.5, y+.5, -z'
  8	'x, y, z'
loop_
_atom_type_symbol
_atom_type_oxidation_number
Ba2+	2
Ge4+	4
O2-	-2
S2-	-2
Zn2+	2
loop_
_atom_site_label
_atom_site_type_symbol
_atom_site_symmetry_multiplicity
_atom_site_Wyckoff_symbol
_atom_site_fract_x
_atom_site_fract_y
_atom_site_fract_z
_atom_site_occupancy
_atom_site_attached_hydrogens
_atom_site_U_iso_or_equiv
Ba1 Ba2+ 4 e 0.1603(1) 0.6603(1) 0.5022(3) 1. 0 0.013 
Zn1 Zn2+ 2 a 0 0 0 1. 0 0.013 
Ge1 Ge4+ 4 e 0.3749(2) 0.8749(2) 0.9304(3) 1. 0 0.009 
S1 S2- 4 e 0.3647(4) 0.8647(4) 0.2635(8) 1. 0 0.016 
S2 S2- 8 f 0.3200(4) 0.4379(4) 0.2282(5) 1. 0 0.012 
O1 O2- 2 c 0 0.5 0.1830(31) 1. 0 0.009 

#End of data_14174-ICSD


