data_300164-ICSD
#?2014 by Fachinformationszentrum Karlsruhe, and the U.S. Secretary of 
#Commerce on behalf of the United States.  All rights reserved.
_database_code_ICSD                300164
_audit_creation_date               1991/07/10
_audit_update_record               1991/10/30
_chemical_name_systematic
;
Hexasodium Di-mue-selenido-bis(diselenidogallate)
;
_chemical_formula_structural       'Na6 Ga2 Se6'
_chemical_formula_sum              'Ga2 Na6 Se6'
_publ_section_title
;
Crystal structure of hexasodium di-mue-selenidobis(diselenidogallate)
;
loop_
_citation_id
_citation_journal_abbrev
_citation_year
_citation_journal_volume
_citation_page_first
_citation_page_last
_citation_journal_id_ASTM
primary 'Zeitschrift fuer Kristallographie (1979-2010)' 1991 197 149 150 ZEKRDZ
_publ_author_name                  'Eisenmann, B.;Hofmann, A.'
_cell_length_a                     7.506(4)
_cell_length_b                     7.239(4)
_cell_length_c                     13.208(5)
_cell_angle_alpha                  90.
_cell_angle_beta                   90.589(60)
_cell_angle_gamma                  90.
_cell_volume                       717.63
_cell_formula_units_Z              2
_symmetry_space_group_name_H-M     'P 1 21/n 1'
_symmetry_Int_Tables_number        14
_refine_ls_R_factor_all            .089
loop_
_symmetry_equiv_pos_site_id
_symmetry_equiv_pos_as_xyz
  1	'-x+.5, y+.5, -z+.5'
  2	'-x, -y, -z'
  3	'x+.5, -y+.5, z+.5'
  4	'x, y, z'
loop_
_atom_type_symbol
_atom_type_oxidation_number
Ga3+	3
Na1+	1
Se2-	-2
loop_
_atom_site_label
_atom_site_type_symbol
_atom_site_symmetry_multiplicity
_atom_site_Wyckoff_symbol
_atom_site_fract_x
_atom_site_fract_y
_atom_site_fract_z
_atom_site_occupancy
_atom_site_attached_hydrogens
Na1 Na1+ 4 e 0.2748(13) 0.5336(13) 0.2123(7) 1. 0 
Na2 Na1+ 4 e 0.6600(11) 0.4978(13) 0.3902(7) 1. 0 
Na3 Na1+ 4 e 0.7916(13) 0.4990(13) 0.1021(8) 1. 0 
Ga1 Ga3+ 4 e 0.4162(3) 0.1427(3) 0.0821(1) 1. 0 
Se1 Se2- 4 e 0.0776(3) 0.3032(3) 0.4279(2) 1. 0 
Se2 Se2- 4 e 0.9270(3) 0.7442(3) 0.2725(1) 1. 0 
Se3 Se2- 4 e 0.1217(2) 0.2577(3) 0.0728(2) 1. 0 

#End of data_300164-ICSD


