data_245076-ICSD
#?2014 by Fachinformationszentrum Karlsruhe, and the U.S. Secretary of 
#Commerce on behalf of the United States.  All rights reserved.
_database_code_ICSD                245076
_audit_creation_date               2007/08/01
_chemical_name_systematic          'Dicalcium Silicate'
_chemical_formula_structural       'Ca2 (Si O4)'
_chemical_formula_sum              'Ca2 O4 Si1'
_publ_section_title
;
Charge states of Ca atoms in beta-dicalcium silicate
;
loop_
_citation_id
_citation_journal_abbrev
_citation_year
_citation_journal_volume
_citation_journal_issue
_citation_page_first
_citation_page_last
_citation_journal_id_ASTM
primary 'Journal of Solid State Chemistry' 2006 179 11 3286 3294 JSSCBI
_publ_author_name
;
Mori, K.;Kiyanagi, R.;Yonemura, M.;Iwase, K.;Sato, T.;Itoh, 
K.;Sugiyama, M.;Kamiyama, T.;Fukunaga, T.
;
_cell_length_a                     5.51604(5)
_cell_length_b                     6.76202(6)
_cell_length_c                     9.32923(10)
_cell_angle_alpha                  90
_cell_angle_beta                   94.313(1)
_cell_angle_gamma                  90
_cell_volume                       346.99
_cell_formula_units_Z              4
_symmetry_space_group_name_H-M     'P 1 21/n 1'
_symmetry_Int_Tables_number        14
_refine_ls_R_factor_all            .0378
loop_
_symmetry_equiv_pos_site_id
_symmetry_equiv_pos_as_xyz
  1	'-x+.5, y+.5, -z+.5'
  2	'-x, -y, -z'
  3	'x+.5, -y+.5, z+.5'
  4	'x, y, z'
loop_
_atom_type_symbol
_atom_type_oxidation_number
Ca2+	2
O2-	-2
Si4+	4
loop_
_atom_site_label
_atom_site_type_symbol
_atom_site_symmetry_multiplicity
_atom_site_Wyckoff_symbol
_atom_site_fract_x
_atom_site_fract_y
_atom_site_fract_z
_atom_site_occupancy
_atom_site_attached_hydrogens
_atom_site_B_iso_or_equiv
Ca1 Ca2+ 4 e 0.22771(28) 0.34057(25) 0.43005(19) 1. 0 1.233(40) 
Ca2 Ca2+ 4 e 0.22183(32) 0.99671(29) 0.70254(18) 1. 0 1.168(44) 
Si1 Si4+ 4 e 0.26571(33) 0.78225(21) 0.41712(19) 1. 0 0.466(41) 
O1 O2- 4 e 0.21796(25) 0.01171(20) 0.44008(16) 1. 0 1.511(44) 
O2 O2- 4 e 0.47933(26) 0.74769(23) 0.30802(15) 1. 0 1.378(39) 
O3 O2- 4 e 0.01483(25) 0.66838(23) 0.36257(16) 1. 0 1.396(38) 
O4 O2- 4 e 0.34279(24) 0.67164(25) 0.57327(14) 1. 0 1.396(38) 

#End of data_245076-ICSD


