data_93390-ICSD
#?2014 by Fachinformationszentrum Karlsruhe, and the U.S. Secretary of 
#Commerce on behalf of the United States.  All rights reserved.
_database_code_ICSD                93390
_audit_creation_date               2003/04/01
_chemical_name_systematic          'Calcium Gallium Borate Oxide'
_chemical_formula_structural       'Ca Ga (B O3) O'
_chemical_formula_sum              'B1 Ca1 Ga1 O4'
_publ_section_title
;
Synthesis and crystal structure of a new compound: Ca Ga B O4
;
loop_
_citation_id
_citation_journal_abbrev
_citation_year
_citation_journal_volume
_citation_page_first
_citation_page_last
_citation_journal_id_ASTM
primary 'Journal of Alloys and Compounds' 2001 327 215 219 JALCEU
_publ_author_name
;
Yang, Z.;Liang, J.-K.;Chen, X.-L.;Xu, T.;Xu, Y.-P.
;
_cell_length_a                     15.473(1)
_cell_length_b                     8.2940(8)
_cell_length_c                     5.8392(6)
_cell_angle_alpha                  90
_cell_angle_beta                   90
_cell_angle_gamma                  90
_cell_volume                       749.36
_cell_formula_units_Z              8
_symmetry_space_group_name_H-M     'C c c 2'
_symmetry_Int_Tables_number        37
_refine_ls_R_factor_all            .054
loop_
_symmetry_equiv_pos_site_id
_symmetry_equiv_pos_as_xyz
  1	'x, -y, z+.5'
  2	'-x, y, z+.5'
  3	'-x, -y, z'
  4	'x, y, z'
  5	'x+.5, -y+.5, z+.5'
  6	'-x+.5, y+.5, z+.5'
  7	'-x+.5, -y+.5, z'
  8	'x+.5, y+.5, z'
loop_
_atom_type_symbol
_atom_type_oxidation_number
B3+	3
Ca2+	2
Ga3+	3
O2-	-2
loop_
_atom_site_label
_atom_site_type_symbol
_atom_site_symmetry_multiplicity
_atom_site_Wyckoff_symbol
_atom_site_fract_x
_atom_site_fract_y
_atom_site_fract_z
_atom_site_occupancy
_atom_site_attached_hydrogens
_atom_site_B_iso_or_equiv
Ga1 Ga3+ 8 d 0.2949(1) 0.4869(4) 0.141(2) 1. 0 1. 
Ca1 Ca2+ 8 d 0.4110(2) 0.8560(5) 0.898(2) 1. 0 1. 
O1 O2- 8 d 0.2365(7) 0.4666(14) 0.398(6) 1. 0 1. 
O2 O2- 8 d 0.4412(7) 0.8743(13) 0.318(3) 1. 0 1. 
O3 O2- 8 d 0.3685(11) 0.6733(16) 0.155(3) 1. 0 1. 
O4 O2- 8 d 0.3753(12) 0.6933(19) 0.567(3) 1. 0 1. 
B1 B3+ 8 d 0.405 0.728 0.357 1. 0 1. 

#End of data_93390-ICSD


