data_14132-ICSD
#?2014 by Fachinformationszentrum Karlsruhe, and the U.S. Secretary of 
#Commerce on behalf of the United States.  All rights reserved.
_database_code_ICSD                14132
_audit_creation_date               1986/10/06
_chemical_name_systematic          'Potassium Heptafluoroniobate'
_chemical_formula_structural       'K2 Nb F7'
_chemical_formula_sum              'F7 K2 Nb1'
_publ_section_title
;
Refinement of the Structure of Potassium Heptafluoroniobate, K2 Nb 
F7, from Neutron-Diffraction Data
;
loop_
_citation_id
_citation_journal_abbrev
_citation_year
_citation_journal_volume
_citation_page_first
_citation_page_last
_citation_journal_id_ASTM
primary 'Acta Crystallographica (1,1948-23,1967)' 1966 20 220 229 ACCRA9
_publ_author_name                  'Brown, G.M.;Walker, L.A.'
_cell_length_a                     5.846(3)
_cell_length_b                     12.693(6)
_cell_length_c                     8.515(4)
_cell_angle_alpha                  90.
_cell_angle_beta                   90.
_cell_angle_gamma                  90.
_cell_volume                       631.84
_cell_formula_units_Z              4
_symmetry_space_group_name_H-M     'P 1 21/c 1'
_symmetry_Int_Tables_number        14
_refine_ls_R_factor_all            .21
loop_
_symmetry_equiv_pos_site_id
_symmetry_equiv_pos_as_xyz
  1	'x, -y+.5, z+.5'
  2	'-x, -y, -z'
  3	'-x, y+.5, -z+.5'
  4	'x, y, z'
loop_
_atom_type_symbol
_atom_type_oxidation_number
F1-	-1
K1+	1
Nb5+	5
loop_
_atom_site_label
_atom_site_type_symbol
_atom_site_symmetry_multiplicity
_atom_site_Wyckoff_symbol
_atom_site_fract_x
_atom_site_fract_y
_atom_site_fract_z
_atom_site_occupancy
_atom_site_attached_hydrogens
Nb1 Nb5+ 4 e 0.2718(2) 0.1288(9) 0.2229(1) 1. 0 
K1 K1+ 4 e 0.2397(4) 0.4404(1) 0.1833(3) 1. 0 
K2 K1+ 4 e 0.7626(4) 0.2845(2) 0.4446(3) 1. 0 
F1 F1- 4 e 0.0463(2) 0.2431(1) 0.1994(2) 1. 0 
F2 F1- 4 e 0.4573(3) 0.2567(1) 0.2114(2) 1. 0 
F3 F1- 4 e 0.0448(3) 0.1072(1) 0.3880(2) 1. 0 
F4 F1- 4 e 0.4599(3) 0.1108(1) 0.4101(2) 1. 0 
F5 F1- 4 e 0.2166(4) -.0207(1) 0.2159(3) 1. 0 
F6 F1- 4 e 0.1875(4) 0.1216(2) 0.0063(2) 1. 0 
F7 F1- 4 e 0.5572(3) 0.0792(1) 0.1317(2) 1. 0 

#End of data_14132-ICSD


