data_79161-ICSD
#?2014 by Fachinformationszentrum Karlsruhe, and the U.S. Secretary of 
#Commerce on behalf of the United States.  All rights reserved.
_database_code_ICSD                79161
_audit_creation_date               1996/10/14
_audit_update_record               1999/01/19
_chemical_name_systematic
;
Cerium Calcium Fluoride Bis(carbonate)
;
_chemical_formula_structural       'Ce Ca F (C O3)2'
_chemical_formula_sum              'C2 Ca1 Ce1 F1 O6'
_chemical_name_mineral             Synchysite-(Ce)
_publ_section_title
;
The atomic arrangement of synchysite-(Ce), Ce Ca F (C O3)2
;
loop_
_citation_id
_citation_journal_abbrev
_citation_year
_citation_journal_volume
_citation_page_first
_citation_page_last
_citation_journal_id_ASTM
primary 'Canadian Mineralogist' 1994 32 865 871 CAMIA6
_publ_author_name
;
Wang, L.-B.;Ni, Y.-X.;Hughes, J.M.;Bayliss, P.;Drexler, J.W.
;
_cell_length_a                     12.329(2)
_cell_length_b                     7.110(1)
_cell_length_c                     18.741(2)
_cell_angle_alpha                  90.
_cell_angle_beta                   102.68(1)
_cell_angle_gamma                  90.
_cell_volume                       1602.75
_cell_formula_units_Z              12
_symmetry_space_group_name_H-M     'C 1 2/c 1'
_symmetry_Int_Tables_number        15
_refine_ls_R_factor_all            .036
loop_
_symmetry_equiv_pos_site_id
_symmetry_equiv_pos_as_xyz
  1	'x, -y, z+.5'
  2	'-x, -y, -z'
  3	'-x, y, -z+.5'
  4	'x, y, z'
  5	'x+.5, -y+.5, z+.5'
  6	'-x+.5, -y+.5, -z'
  7	'-x+.5, y+.5, -z+.5'
  8	'x+.5, y+.5, z'
loop_
_atom_type_symbol
_atom_type_oxidation_number
C4+	4
Ca2+	2
Ce3+	3
F1-	-1
O2-	-2
loop_
_atom_site_label
_atom_site_type_symbol
_atom_site_symmetry_multiplicity
_atom_site_Wyckoff_symbol
_atom_site_fract_x
_atom_site_fract_y
_atom_site_fract_z
_atom_site_occupancy
_atom_site_attached_hydrogens
_atom_site_B_iso_or_equiv
Ce1 Ce3+ 4 e 0.5 0.2529(3) 0.25 1. 0 1.04(2) 
Ce2 Ce3+ 8 f 0.6688(1) 0.2531(2) 0.7499(1) 1. 0 1.12(1) 
Ca1 Ca2+ 4 d 0.25 0.25 0.5 1. 0 2.01(6) 
Ca2 Ca2+ 8 f 0.9128(3) 0.2499(6) 0.5002(2) 1. 0 1.48(3) 
C1 C4+ 8 f 0.973(1) 0.099(3) 0.116(1) 1. 0 1.2(3) 
C2 C4+ 8 f 0.397(2) 0.100(3) 0.386(1) 1. 0 1.3(3) 
C3 C4+ 8 f 0.289(2) 0.043(3) 0.119(1) 1. 0 1.3(3) 
O1 O2- 8 f 0.435(1) 0.303(2) 0.8794(7) 1. 0 1.5(2) 
O2 O2- 8 f 0.922(1) 0.071(2) 0.0490(8) 1. 0 2.2(3) 
O3 O2- 8 f 0.948(1) 0.055(2) 0.1742(7) 1. 0 1.4(2) 
O4 O2- 8 f 0.489(1) 0.186(2) 0.3802(8) 1. 0 1.8(3) 
O5 O2- 8 f 0.607(1) 0.076(2) 0.0470(8) 1. 0 1.6(2) 
O6 O2- 8 f 0.670(1) 0.052(2) 0.1723(7) 1. 0 1.3(2) 
O7 O2- 8 f 0.311(1) 0.135(2) 0.1786(7) 1. 0 0.9(2) 
O8 O2- 8 f 0.705(1) 0.134(2) 0.8783(8) 1. 0 2.0(3) 
O9 O2- 8 f 0.269(1) 0.111(2) 0.0534(8) 1. 0 1.6(2) 
F1 F1- 4 e 0.5 0.087(2) 0.75 1. 0 1.3(3) 
F2 F1- 8 f 0.8402(9) 0.087(1) 0.7733(5) 1. 0 1.1(2) 

#End of data_79161-ICSD


