data_18004-ICSD
#?2014 by Fachinformationszentrum Karlsruhe, and the U.S. Secretary of 
#Commerce on behalf of the United States.  All rights reserved.
_database_code_ICSD                18004
_audit_creation_date               1986/10/06
_chemical_name_systematic
;
Lithium Tetrafluoroberyllate Octafluorozirconate
;
_chemical_formula_structural       'Li6 Be F4 Zr F8'
_chemical_formula_sum              'Be1 F12 Li6 Zr1'
_publ_section_title
;
Crystal structure of Li6 Be F4 Zr F8
;
loop_
_citation_id
_citation_journal_abbrev
_citation_year
_citation_journal_volume
_citation_page_first
_citation_page_last
_citation_journal_id_ASTM
primary 'Journal of Chemical Physics' 1964 41 3478 3483 JCPSA6
_publ_author_name                  'Sears, D.R.;Burns, J.H.'
_cell_length_a                     6.57(2)
_cell_length_b                     6.57(2)
_cell_length_c                     18.62(6)
_cell_angle_alpha                  90.
_cell_angle_beta                   90.
_cell_angle_gamma                  90.
_cell_volume                       803.73
_cell_formula_units_Z              4
_symmetry_space_group_name_H-M     'I 41/a m d Z'
_symmetry_Int_Tables_number        141
_refine_ls_R_factor_all            .089
loop_
_symmetry_equiv_pos_site_id
_symmetry_equiv_pos_as_xyz
  1	'y+.25, x+.75, -z+.25'
  2	'y+.25, -x+.75, -z+.25'
  3	'x, y+.5, -z'
  4	'x, -y, -z'
  5	'-y+.75, x+.75, -z+.25'
  6	'-y+.75, -x+.75, -z+.25'
  7	'-x, y+.5, -z'
  8	'-x, -y, -z'
  9	'-y+.75, -x+.25, z+.75'
 10	'-y+.75, x+.25, z+.75'
 11	'-x, -y+.5, z'
 12	'-x, y, z'
 13	'y+.25, -x+.25, z+.75'
 14	'y+.25, x+.25, z+.75'
 15	'x, -y+.5, z'
 16	'x, y, z'
 17	'y+.75, x+.25, -z+.75'
 18	'y+.75, -x+.25, -z+.75'
 19	'x+.5, y, -z+.5'
 20	'x+.5, -y+.5, -z+.5'
 21	'-y+.25, x+.25, -z+.75'
 22	'-y+.25, -x+.25, -z+.75'
 23	'-x+.5, y, -z+.5'
 24	'-x+.5, -y+.5, -z+.5'
 25	'-y+.25, -x+.75, z+.25'
 26	'-y+.25, x+.75, z+.25'
 27	'-x+.5, -y, z+.5'
 28	'-x+.5, y+.5, z+.5'
 29	'y+.75, -x+.75, z+.25'
 30	'y+.75, x+.75, z+.25'
 31	'x+.5, -y, z+.5'
 32	'x+.5, y+.5, z+.5'
loop_
_atom_type_symbol
_atom_type_oxidation_number
Be2+	2
F1-	-1
Li1+	1
Zr4+	4
loop_
_atom_site_label
_atom_site_type_symbol
_atom_site_symmetry_multiplicity
_atom_site_Wyckoff_symbol
_atom_site_fract_x
_atom_site_fract_y
_atom_site_fract_z
_atom_site_occupancy
_atom_site_attached_hydrogens
_atom_site_B_iso_or_equiv
Zr1 Zr4+ 4 b 0.5 0.25 0.125 1. 0 0.3 
Be1 Be2+ 4 a 0 0.75 0.125 1. 0 4.6 
F1 F1- 16 h 0 0.534(2) 0.4207(4) 1. 0 1.3 
F2 F1- 16 h 0 0.0260(18) 0.2903(4) 1. 0 1. 
F3 F1- 16 h 0 -.0568(18) 0.0754(4) 1. 0 1.3 
Li1 Li1+ 16 f 0.2303(64) 0 0 1. 0 2.6 
Li2 Li1+ 8 e 0 0.25 0.1034(22) 1. 0 1.8 

#End of data_18004-ICSD


