data_30522-ICSD
#?2014 by Fachinformationszentrum Karlsruhe, and the U.S. Secretary of 
#Commerce on behalf of the United States.  All rights reserved.
_database_code_ICSD                30522
_audit_creation_date               1980/12/31
_audit_update_record               1998/06/26
_chemical_name_systematic          'Calcium Magnesium Catena-silicate'
_chemical_formula_structural       'Ca Mg (Si2 O6)'
_chemical_formula_sum              'Ca1 Mg1 O6 Si2'
_chemical_name_mineral             Diopside
_publ_section_title
;
On the Estimation of Atomic Charges by the X-Ray Method for some 
Oxides and Silicates
;
loop_
_citation_id
_citation_journal_abbrev
_citation_year
_citation_journal_volume
_citation_page_first
_citation_page_last
_citation_journal_id_ASTM
primary 'Acta Crystallographica A (24,1968-38,1982)' 1980 36 904 915 ACACBN
_publ_author_name
;
Sasaki, S.;Fujino, K.;Takeuchi, Y.;Sadanaga, R.
;
_cell_length_a                     9.741(1)
_cell_length_b                     8.919(2)
_cell_length_c                     5.257(1)
_cell_angle_alpha                  90.
_cell_angle_beta                   105.97(2)
_cell_angle_gamma                  90.
_cell_volume                       439.1
_cell_formula_units_Z              4
_symmetry_space_group_name_H-M     'C 1 2/c 1'
_symmetry_Int_Tables_number        15
_refine_ls_R_factor_all            .026
loop_
_symmetry_equiv_pos_site_id
_symmetry_equiv_pos_as_xyz
  1	'x, -y, z+.5'
  2	'-x, -y, -z'
  3	'-x, y, -z+.5'
  4	'x, y, z'
  5	'x+.5, -y+.5, z+.5'
  6	'-x+.5, -y+.5, -z'
  7	'-x+.5, y+.5, -z+.5'
  8	'x+.5, y+.5, z'
loop_
_atom_type_symbol
_atom_type_oxidation_number
Ca2+	2
Mg2+	2
O2-	-2
Si4+	4
loop_
_atom_site_label
_atom_site_type_symbol
_atom_site_symmetry_multiplicity
_atom_site_Wyckoff_symbol
_atom_site_fract_x
_atom_site_fract_y
_atom_site_fract_z
_atom_site_occupancy
_atom_site_attached_hydrogens
Mg1 Mg2+ 4 e 0 0.90774(3) 0.25 1. 0 
Ca1 Ca2+ 4 e 0 0.30122(2) 0.25 1. 0 
Si1 Si4+ 8 f 0.28664(2) 0.09315(2) 0.22987(3) 1. 0 
O1 O2- 8 f 0.11572(4) 0.08719(5) 0.14200(8) 1. 0 
O2 O2- 8 f 0.36133(5) 0.25005(5) 0.31881(9) 1. 0 
O3 O2- 8 f 0.35076(4) 0.01767(5) -.00429(8) 1. 0 

#End of data_30522-ICSD


