data_82205-ICSD
#?2014 by Fachinformationszentrum Karlsruhe, and the U.S. Secretary of 
#Commerce on behalf of the United States.  All rights reserved.
_database_code_ICSD                82205
_audit_creation_date               1999/11/30
_chemical_name_systematic
;
Lithium Tecto-molybdo(V)molybdotriphosphate(V)
;
_chemical_formula_structural       'Li (Mo2 P2 O11)'
_chemical_formula_sum              'Li1 Mo2 O11 P2'
_publ_section_title
;
A mixed-valence molybdenum monophosphate with a three-dimensional 
framework: Li Mo2 O3 (P O4)2
;
loop_
_citation_id
_citation_journal_abbrev
_citation_year
_citation_journal_volume
_citation_page_first
_citation_page_last
_citation_journal_id_ASTM
primary 'Journal of Solid State Chemistry' 1996 124 322 328 JSSCBI
_publ_author_name
;
Ledain, S.;Leclaire, A.;Borel, M.M.;Raveau, B.
;
_cell_length_a                     7.771(1)
_cell_length_b                     12.687(2)
_cell_length_c                     8.445(2)
_cell_angle_alpha                  90.
_cell_angle_beta                   106.94(1)
_cell_angle_gamma                  90.
_cell_volume                       796.47
_cell_formula_units_Z              4
_symmetry_space_group_name_H-M     'P 1 21/m 1'
_symmetry_Int_Tables_number        11
_refine_ls_R_factor_all            .021
loop_
_symmetry_equiv_pos_site_id
_symmetry_equiv_pos_as_xyz
  1	'x, -y+.5, z'
  2	'-x, -y, -z'
  3	'-x, y+.5, -z'
  4	'x, y, z'
loop_
_atom_type_symbol
_atom_type_oxidation_number
Li1+	1
Mo5.5+	5.5
O2-	-2
P5+	5
loop_
_atom_site_label
_atom_site_type_symbol
_atom_site_symmetry_multiplicity
_atom_site_Wyckoff_symbol
_atom_site_fract_x
_atom_site_fract_y
_atom_site_fract_z
_atom_site_occupancy
_atom_site_attached_hydrogens
_atom_site_B_iso_or_equiv
Mo1 Mo5.5+ 4 f 0.26914(2) 0.50167(1) 0.34685(2) 1. 0 0.544(2) 
Mo2 Mo5.5+ 2 e 0.73405(2) 0.25 0.18343(2) 1. 0 0.509(3) 
Mo3 Mo5.5+ 2 e 0.68447(3) 0.75 0.15937(2) 1. 0 0.574(3) 
P1 P5+ 2 e 0.32191(7) 0.25 0.24728(8) 1. 0 0.512(8) 
P2 P5+ 4 f 0.81388(5) 0.50820(3) 0.26200(5) 1. 0 0.501(7) 
P3 P5+ 2 e 0.13911(7) 0.75 0.40511(8) 1. 0 0.520(8) 
Li1 Li1+ 2 b 0.5 0.5 0 1. 0 2.24(8) 
Li2 Li1+ 2 e 0.149(2) 0.25 0.472(2) 1. 0 5.8(3) 
O1 O2- 4 f 0.3336(2) 0.5168(1) 0.1748(2) 1. 0 1.26(3) 
O2 O2- 2 d 0.5 0.5 0.5 1. 0 0.91(3) 
O3 O2- 4 f 0.2472(2) 0.6532(1) 0.3897(2) 1. 0 1.05(2) 
O4 O2- 4 f 0.2515(2) 0.3445(1) 0.3270(2) 1. 0 0.94(2) 
O5 O2- 4 f 0.0011(2) 0.5023(1) 0.2389(2) 1. 0 0.94(2) 
O6 O2- 4 f 0.1821(2) 0.4666(1) 0.5628(2) 1. 0 1.18(2) 
O7 O2- 2 e 0.9031(3) 0.25 0.1012(3) 1. 0 2.30(6) 
O8 O2- 2 e 0.5463(2) 0.25 -.0212(2) 1. 0 0.76(3) 
O9 O2- 4 f 0.7065(2) 0.4079(1) 0.1946(2) 1. 0 1.27(3) 
O10 O2- 2 e 0.8974(2) 0.25 0.4247(2) 1. 0 1.02(4) 
O11 O2- 2 e 0.5244(2) 0.25 0.2940(2) 1. 0 0.91(3) 
O12 O2- 2 e 0.6350(3) 0.75 0.3404(2) 1. 0 1.27(4) 
O13 O2- 2 e 0.9558(2) 0.75 0.2739(2) 1. 0 1.17(4) 
O14 O2- 4 f 0.7014(1) 0.5926(1) 0.1419(2) 1. 0 0.74(2) 
O15 O2- 2 e 0.7615(2) 0.75 -.0609(2) 1. 0 1.12(4) 

#End of data_82205-ICSD


