data_27221-ICSD
#?2014 by Fachinformationszentrum Karlsruhe, and the U.S. Secretary of 
#Commerce on behalf of the United States.  All rights reserved.
_database_code_ICSD                27221
_audit_creation_date               1982/12/31
_audit_update_record               2008/02/01
_chemical_name_systematic          'Calcium Sulfate(VI) Dihydrate'
_chemical_formula_structural       'Ca (S O4) (H2 O)2'
_chemical_formula_sum              'H4 Ca1 O6 S1'
_chemical_name_mineral             Gypsum
_publ_section_title
;
Neutron diffraction refinement of the structure of gypsum, Ca S O4 
(H2 O)2
;
loop_
_citation_id
_citation_journal_abbrev
_citation_year
_citation_journal_volume
_citation_page_first
_citation_page_last
_citation_journal_id_ASTM
primary 'Acta Crystallographica B (24,1968-38,1982)' 1982 38 1074 1077 ACBCAR
_publ_author_name                  'Pedersen, B.F.;Semmingsen, D.'
_cell_length_a                     5.679(5)
_cell_length_b                     15.202(14)
_cell_length_c                     6.522(6)
_cell_angle_alpha                  90.
_cell_angle_beta                   118.43(4)
_cell_angle_gamma                  90.
_cell_volume                       495.15
_cell_formula_units_Z              4
_symmetry_space_group_name_H-M     'I 1 2/c 1'
_symmetry_Int_Tables_number        15
_refine_ls_R_factor_all            .036
loop_
_symmetry_equiv_pos_site_id
_symmetry_equiv_pos_as_xyz
  1	'-x, y, -z+.5'
  2	'-x, -y, -z'
  3	'x, -y, z+.5'
  4	'x, y, z'
  5	'-x+.5, y+.5, -z'
  6	'-x+.5, -y+.5, -z+.5'
  7	'x+.5, -y+.5, z'
  8	'x+.5, y+.5, z+.5'
loop_
_atom_type_symbol
_atom_type_oxidation_number
Ca2+	2
H1+	1
O2-	-2
S6+	6
loop_
_atom_site_label
_atom_site_type_symbol
_atom_site_symmetry_multiplicity
_atom_site_Wyckoff_symbol
_atom_site_fract_x
_atom_site_fract_y
_atom_site_fract_z
_atom_site_occupancy
_atom_site_attached_hydrogens
Ca1 Ca2+ 4 e 0.5 0.07967(9) 0.25 1. 0 
S1 S6+ 4 e 0 0.07705(13) 0.75 1. 0 
O1 O2- 8 f 0.96320(15) 0.13190(5) 0.55047(13) 1. 0 
O2 O2- 8 f 0.75822(15) 0.02226(5) 0.66709(13) 1. 0 
O3 O2- 8 f 0.37960(21) 0.18212(7) 0.45881(16) 1. 0 
H1 H1+ 8 f 0.25112(41) 0.16158(11) 0.50372(35) 1. 0 
H2 H1+ 8 f 0.40458(36) 0.24275(13) 0.49217(31) 1. 0 

loop_
_atom_site_aniso_label
_atom_site_aniso_type_symbol
_atom_site_aniso_U_11
_atom_site_aniso_U_22
_atom_site_aniso_U_33
_atom_site_aniso_U_12
_atom_site_aniso_U_13
_atom_site_aniso_U_23
Ca1 Ca2+ 0.0207(8) 0.0258(8) 0.0195(8) 0 0.0081(6) 0
S1 S6+ 0.0190(11) 0.0204(10) 0.0192(11) 0 0.0086(10) 0
O1 O2- 0.0262(4) 0.0279(4) 0.0243(4) -.0011(4) 0.0123(3) 0.0044(3)
O2 O2- 0.0222(4) 0.0270(4) 0.0254(3) -.0046(4) 0.0092(3) 0.0008(3)
O3 O2- 0.0391(5) 0.0294(6) 0.0391(5) 0.0001(5) 0.0253(4) -.0038(4)
H1 H1+ 0.0599(10) 0.0464(9) 0.0632(10) -.0012(9) 0.0432(9) 0.0018(8)
H2 H1+ 0.0596(10) 0.0383(9) 0.0714(11) -.0039(11) 0.0384(9) -.0085(10)
#End of data_27221-ICSD


