data_172023-ICSD
#?2014 by Fachinformationszentrum Karlsruhe, and the U.S. Secretary of 
#Commerce on behalf of the United States.  All rights reserved.
_database_code_ICSD                172023
_audit_creation_date               2007/04/01
_chemical_name_systematic          'Lithium Sodium Ruthenium Oxide'
_chemical_formula_structural       'Na0.5 Li Ru3 O6'
_chemical_formula_sum              'Li1 Na0.5 O6 Ru3'
_chemical_name_mineral             Hollandite-(Ru)
_publ_section_title
;
Synthesis and characterization of the pseudo-hexagonal hollandites A 
Li2 Ru6 O12 (A = Na, K)
;
loop_
_citation_id
_citation_journal_abbrev
_citation_year
_citation_journal_volume
_citation_journal_issue
_citation_page_first
_citation_page_last
_citation_journal_id_ASTM
primary 'Journal of Solid State Chemistry' 2006 179 3 941 948 JSSCBI
_publ_author_name
;
Foo, M.L.;He, T.;Huang, Q.;Zandbergen, H.W.;Siegrist, T.;Lawes, 
G.;Ramirez, A.P.;Cava, R.J.
;
_cell_length_a                     9.3665(4)
_cell_length_b                     19.2324(7)
_cell_length_c                     5.5501(2)
_cell_angle_alpha                  90.436(2)
_cell_angle_beta                   89.869(4)
_cell_angle_gamma                  90.025(5)
_cell_volume                       999.76
_cell_formula_units_Z              8
_symmetry_space_group_name_H-M     'I -1'
_symmetry_Int_Tables_number        2
_refine_ls_R_factor_all            .0439
loop_
_symmetry_equiv_pos_site_id
_symmetry_equiv_pos_as_xyz
  1	'-x, -y, -z'
  2	'x, y, z'
  3	'-x+.5, -y+.5, -z+.5'
  4	'x+.5, y+.5, z+.5'
loop_
_atom_type_symbol
_atom_type_oxidation_number
Li1+	1
Na1+	1
O2-	-2
Ru3.5+	3.5
loop_
_atom_site_label
_atom_site_type_symbol
_atom_site_symmetry_multiplicity
_atom_site_Wyckoff_symbol
_atom_site_fract_x
_atom_site_fract_y
_atom_site_fract_z
_atom_site_occupancy
_atom_site_attached_hydrogens
_atom_site_U_iso_or_equiv
Na1 Na1+ 4 i -0.007(5) -0.0082(18) 0.2935(32) 1.00 0 .056(6) 
Li1 Li1+ 4 i 0.001(6) 0.3289(31) 0.336(6) 1.0 0 .052(5) 
Li2 Li1+ 4 i 0.001(6) 0.3289(31) 0.881(6) 1.0 0 .052(5) 
Ru1 Ru3.5+ 4 i 0.1582(10) 0.1808(6) 0.3597(13) 1.0 0 .0039(4) 
Ru2 Ru3.5+ 4 i 0.1652(11) 0.1784(6) 0.8954(12) 1.0 0 .0039(4) 
Ru3 Ru3.5+ 4 i 0.3564(10) 0.0081(7) 0.1426(15) 1.0 0 .0039(4) 
Ru4 Ru3.5+ 4 i 0.3473(9) 0.0105(6) 0.6064(14) 1.0 0 .0039(4) 
Ru5 Ru3.5+ 4 i 0.3131(11) 0.6668(6) 0.1401(13) 1.0 0 .0039(4) 
Ru6 Ru3.5+ 4 i 0.3119(11) 0.6740(6) 0.6115(13) 1.0 0 .0039(4) 
O1 O2- 4 i 0.8278(12) 0.3004(7) 0.1160(14) 1.0 0 .00382(26) 
O2 O2- 4 i 0.8427(12) 0.2943(7) 0.6316(14) 1.0 0 .00382(26) 
O3 O2- 4 i 0.2641(11) 0.5548(7) 0.1280(15) 1.0 0 .00382(26) 
O4 O2- 4 i 0.2501(12) 0.5500(8) 0.6183(15) 1.0 0 .00382(26) 
O5 O2- 4 i 0.0392(12) 0.8568(7) 0.1229(16) 1.0 0 .00382(26) 
O6 O2- 4 i 0.0533(12) 0.8480(7) 0.6283(16) 1.0 0 .00382(26) 
O7 O2- 4 i 0.6996(14) 0.5967(7) 0.1182(16) 1.0 0 .00382(26) 
O8 O2- 4 i 0.7060(13) 0.5932(7) 0.6261(16) 1.0 0 .00382(26) 
O9 O2- 4 i 0.1363(13) 0.2639(7) 0.1288(15) 1.0 0 .00382(26) 
O10 O2- 4 i 0.1375(12) 0.2722(7) 0.6316(16) 1.0 0 .00382(26) 
O11 O2- 4 i 0.0230(14) 0.4319(7) 0.1113(6) 1.0 0 .00382(26) 
O12 O2- 4 i 0.0326(14) 0.4317(7) 0.6312(16) 1.0 0 .00382(26) 

#End of data_172023-ICSD


