data_34189-ICSD
#?2014 by Fachinformationszentrum Karlsruhe, and the U.S. Secretary of 
#Commerce on behalf of the United States.  All rights reserved.
_database_code_ICSD                34189
_audit_creation_date               1980/01/01
_audit_update_record               2003/04/01
_chemical_name_systematic
;
Magnesium Oxide Tris(diborate) Hexahydrate
;
_chemical_formula_structural       'Mg O (B2 O3)3 (H2 O)6'
_chemical_formula_sum              'H12 B6 Mg1 O16'
_publ_section_title
;
The crystal structure of synthetic hydrated borates: (I) Mg O (B2 
O3)3 (H2 O)6
;
loop_
_citation_id
_citation_journal_abbrev
_citation_year
_citation_journal_volume
_citation_page_first
_citation_page_last
_citation_journal_id_ASTM
primary 'Crystal Structure Communications' 1976 5 427 431 CSCMCS
_publ_author_name
;
dal Negro, A.;Ungaretti, L.;della Giusta, A.
;
_cell_length_a                     10.830(2)
_cell_length_b                     10.451(2)
_cell_length_c                     11.301(2)
_cell_angle_alpha                  90.
_cell_angle_beta                   95.3(2)
_cell_angle_gamma                  90.
_cell_volume                       1273.63
_cell_formula_units_Z              4
_symmetry_space_group_name_H-M     'P 1 21/c 1'
_symmetry_Int_Tables_number        14
_refine_ls_R_factor_all            .049
loop_
_symmetry_equiv_pos_site_id
_symmetry_equiv_pos_as_xyz
  1	'x, -y+.5, z+.5'
  2	'-x, -y, -z'
  3	'-x, y+.5, -z+.5'
  4	'x, y, z'
loop_
_atom_type_symbol
_atom_type_oxidation_number
B3+	3
H1+	1
Mg2+	2
O2-	-2
loop_
_atom_site_label
_atom_site_type_symbol
_atom_site_symmetry_multiplicity
_atom_site_Wyckoff_symbol
_atom_site_fract_x
_atom_site_fract_y
_atom_site_fract_z
_atom_site_occupancy
_atom_site_attached_hydrogens
_atom_site_B_iso_or_equiv
Mg1 Mg2+ 2 a 0 0 0 1. 0 1.1 
Mg2 Mg2+ 2 d 0.5 0 0.5 1. 0 1.6 
O1 O2- 4 e 0.9779(2) 0.0889(2) 0.1698(2) 1. 0 1.5 
O2 O2- 4 e 0.1037(2) 0.8663(2) 0.0918(2) 1. 0 1.4 
O3 O2- 4 e 0.1607(2) 0.1043(2) 0.9965(2) 1. 0 1.4 
O4 O2- 4 e 0.2141(2) 0.4287(2) 0.2178(2) 1. 0 2.4 
O5 O2- 4 e 0.0590(2) 0.8495(2) 0.4780(2) 1. 0 2.1 
O6 O2- 4 e 0.5049(2) 0.8610(2) 0.0929(2) 1. 0 2.3 
O7 O2- 4 e 0.1974(2) 0.0368(2) 0.2007(2) 1. 0 0.9 
O8 O2- 4 e 0.0749(2) 0.0388(2) 0.3658(2) 1. 0 1.4 
O9 O2- 4 e 0.1237(2) 0.2354(2) 0.2754(2) 1. 0 1.5 
O10 O2- 4 e 0.2801(2) 0.2371(2) 0.1381(2) 1. 0 1.3 
O11 O2- 4 e 0.3658(2) 0.0393(2) 0.0767(2) 1. 0 1.5 
O12 O2- 4 e 0.3164(2) 0.8446(2) 0.1745(2) 1. 0 1.3 
O13 O2- 4 e 0.1569(2) 0.8396(2) 0.3035(2) 1. 0 1.3 
O14 O2- 4 e 0.5114(2) 0.1506(2) 0.6165(2) 1. 0 2.6 
O15 O2- 4 e 0.6077(2) 0.8805(2) 0.6091(2) 1. 0 3.2 
O16 O2- 4 e 0.6565(2) 0.0736(2) 0.4301(2) 1. 0 3.2 
B1 B3+ 4 e 0.0905(2) 0.1032(3) 0.2546(2) 1. 0 1. 
B2 B3+ 4 e 0.2529(2) 0.1064(3) 0.0997(2) 1. 0 1. 
B3 B3+ 4 e 0.1928(2) 0.8899(2) 0.1927(2) 1. 0 0.9 
B4 B3+ 4 e 0.0992(3) 0.9108(3) 0.3816(2) 1. 0 1.3 
B5 B3+ 4 e 0.3937(3) 0.9174(3) 0.1136(2) 1. 0 1.2 
B6 B3+ 4 e 0.2040(3) 0.2986(3) 0.2107(3) 1. 0 1.3 
H1 H1+ 4 e 0.930(4) 0.158(4) 0.169(4) 1. 0 3. 
H2 H1+ 4 e 0.105(4) 0.792(4) 0.068(4) 1. 0 5. 
H3 H1+ 4 e 0.161(4) 0.170(4) 0.961(4) 1. 0 4. 
H4 H1+ 4 e 0.171(4) 0.469(5) 0.264(4) 1. 0 5. 
H5 H1+ 4 e 0.010(4) 0.890(4) 0.521(4) 1. 0 5. 
H6 H1+ 4 e 0.544(4) 0.907(4) 0.056(4) 1. 0 6. 
H7 H1+ 4 e 0.563(4) 0.163(5) 0.668(4) 1. 0 6. 
H8 H1+ 4 e 0.452(4) 0.191(4) 0.621(4) 1. 0 4. 
H9 H1+ 4 e 0.693(4) 0.028(4) 0.377(4) 1. 0 7. 
H10 H1+ 4 e 0.660(4) 0.149(5) 0.401(4) 1. 0 6. 
H11 H1+ 4 e 0.588(4) 0.805(5) 0.615(4) 1. 0 5. 
H12 H1+ 4 e 0.671(4) 0.895(4) 0.639(4) 1. 0 8. 

#End of data_34189-ICSD


