data_391344-ICSD
#?2014 by Fachinformationszentrum Karlsruhe, and the U.S. Secretary of 
#Commerce on behalf of the United States.  All rights reserved.
_database_code_ICSD                391344
_audit_creation_date               2006/10/01
_chemical_name_systematic
;
Potassium Undecasilver Tetrakisvanadate(V)
;
_chemical_formula_structural       'K Ag11 (V O4)4'
_chemical_formula_sum              'Ag11 K1 O16 V4'
_publ_section_title
;
Synthesis and crystal structure analysis of K Ag11 (V O4)4
;
loop_
_citation_id
_citation_journal_abbrev
_citation_year
_citation_journal_volume
_citation_journal_issue
_citation_page_first
_citation_page_last
_citation_journal_id_ASTM
primary 'Zeitschrift fuer Anorganische und Allgemeine Chemie (1950) (DE)'
 2006 632 3 413 436 ZAACAB
_publ_author_name                  'Kovalevskiy, A.;Jansen, M.'
_cell_length_a                     16.5328(12)
_cell_length_b                     10.6286(7)
_cell_length_c                     10.5452(7)
_cell_angle_alpha                  90.00
_cell_angle_beta                   90.00
_cell_angle_gamma                  90.00
_cell_volume                       1853.01
_cell_formula_units_Z              4
_symmetry_space_group_name_H-M     'P b c a'
_symmetry_Int_Tables_number        61
_refine_ls_R_factor_all            .054
loop_
_symmetry_equiv_pos_site_id
_symmetry_equiv_pos_as_xyz
  1	'x+.5, y, -z+.5'
  2	'x, -y+.5, z+.5'
  3	'-x+.5, y+.5, z'
  4	'-x, -y, -z'
  5	'-x+.5, -y, z+.5'
  6	'-x, y+.5, -z+.5'
  7	'x+.5, -y+.5, -z'
  8	'x, y, z'
loop_
_atom_type_symbol
_atom_type_oxidation_number
Ag1+	1
K1+	1
O2-	-2
V5+	5
loop_
_atom_site_label
_atom_site_type_symbol
_atom_site_symmetry_multiplicity
_atom_site_Wyckoff_symbol
_atom_site_fract_x
_atom_site_fract_y
_atom_site_fract_z
_atom_site_occupancy
_atom_site_attached_hydrogens
_atom_site_U_iso_or_equiv
Ag1 Ag1+ 8 c 0.13298(3) 0.22291(4) 0.51847(4) 1 0 0.02536(10) 
Ag2 Ag1+ 8 c 0.13204(3) -0.21381(4) 0.47373(4) 1 0 0.02574(10) 
Ag3 Ag1+ 8 c 0.12592(3) -0.00973(4) 0.28506(4) 1 0 0.02515(10) 
Ag4 Ag1+ 8 c 0.12335(3) 0.02192(4) 0.71563(4) 1 0 0.02661(11) 
Ag5 Ag1+ 8 c 0.25382(3) 0.24531(5) 0.74492(4) 1 0 0.03344(12) 
Ag6 Ag1+ 4 b 0.0000 0.0000 0.5000 1 0 0.02593(13) 
V1 V5+ 8 c 0.26841(5) 0.01345(8) 0.50124(8) 1 0 0.01621(15) 
V2 V5+ 8 c -0.00103(5) 0.26367(8) 0.75947(8) 1 0 0.01721(15) 
K1 K1+ 4 a 0.0000 0.0000 0.0000 1 0 0.0307(4) 
O1 O2- 8 c -0.0002(2) 0.3164(4) 0.9164(4) 1 0 0.0245(8) 
O2 O2- 8 c 0.2136(2) 0.1089(4) 0.3960(4) 1 0 0.0223(7) 
O3 O2- 8 c -0.0029(2) 0.1023(4) 0.7564(5) 1 0 0.0233(7) 
O4 O2- 8 c -0.0846(3) 0.3221(4) 0.6846(4) 1 0 0.0351(11) 
O5 O2- 8 c 0.3196(3) 0.1091(4) 0.6040(4) 1 0 0.0281(8) 
O6 O2- 8 c 0.2055(2) -0.0844(4) 0.5892(4) 1 0 0.0244(8) 
O7 O2- 8 c 0.0844(3) 0.3164(4) 0.6850(5) 1 0 0.0371(11) 
O8 O2- 8 c 0.3326(3) -0.0790(4) 0.4187(4) 1 0 0.0316(10) 

loop_
_atom_site_aniso_label
_atom_site_aniso_type_symbol
_atom_site_aniso_U_11
_atom_site_aniso_U_22
_atom_site_aniso_U_33
_atom_site_aniso_U_12
_atom_site_aniso_U_13
_atom_site_aniso_U_23
Ag1 Ag1+ 0.0277(2) 0.02152(18) 0.0269(2) 0.00190(14) 0.00638(15) 
-0.00069(14)
Ag2 Ag1+ 0.0282(2) 0.02288(19) 0.0261(2) 0.00027(15) -0.00575(15) 
-0.00137(15)
Ag3 Ag1+ 0.0283(2) 0.02193(18) 0.0252(2) -0.00160(14) -0.00517(15) 
-0.00045(14)
Ag4 Ag1+ 0.0300(2) 0.0255(2) 0.0244(2) 0.00353(15) 0.00696(16) 0.00143(15)
Ag5 Ag1+ 0.0441(3) 0.0301(2) 0.0261(2) 0.0033(2) 0.00256(19) -0.00477(16)
Ag6 Ag1+ 0.0252(3) 0.0293(3) 0.0233(3) 0.0007(2) 0.0003(2) 0.0065(2)
V1 V5+ 0.0153(3) 0.0153(3) 0.0180(3) -0.0002(3) 0.0008(3) 0.0005(3)
V2 V5+ 0.0220(4) 0.0146(3) 0.0150(3) -0.0010(3) 0.0000(3) -0.0011(3)
K1 K1+ 0.0339(9) 0.0381(10) 0.0202(7) -0.0040(7) 0.0024(7) -0.0002(7)
O1 O2- 0.0227(17) 0.033(2) 0.0179(17) 0.0005(15) -0.0011(14) -0.0061(15)
O2 O2- 0.0221(17) 0.0234(17) 0.0215(17) 0.0040(14) -0.0035(14) -0.0017(14)
O3 O2- 0.0206(16) 0.0177(15) 0.032(2) 0.0011(13) -0.0010(15) -0.0001(15)
O4 O2- 0.051(3) 0.025(2) 0.029(2) 0.0129(19) -0.021(2) -0.0083(17)
O5 O2- 0.031(2) 0.0283(19) 0.0254(19) -0.0077(16) -0.0121(16) 0.0058(16)
O6 O2- 0.0241(18) 0.0250(18) 0.0242(18) -0.0055(14) 0.0052(15) -0.0034(15)
O7 O2- 0.049(3) 0.030(2) 0.033(2) -0.017(2) 0.022(2) -0.0135(18)
O8 O2- 0.032(2) 0.032(2) 0.031(2) 0.0129(18) 0.0154(18) 0.0110(18)
#End of data_391344-ICSD


