data_260054-ICSD
#?2014 by Fachinformationszentrum Karlsruhe, and the U.S. Secretary of 
#Commerce on behalf of the United States.  All rights reserved.
_database_code_ICSD                260054
_audit_creation_date               2009/02/01
_chemical_name_systematic
;
Dipotassium Holmium(III) Phosphate(V) Tungstate(VI)
;
_chemical_formula_structural       'K2 Ho (P O4) (W O4)'
_chemical_formula_sum              'Ho1 K2 O8 P1 W1'
_publ_section_title                'K2 Ho (P O4) (W O4)'
loop_
_citation_id
_citation_journal_abbrev
_citation_year
_citation_journal_volume
_citation_journal_issue
_citation_page_first
_citation_page_last
_citation_journal_id_ASTM
primary 'Acta Crystallographica, Section E. Structure Reports Online'
 2008 64 11 i75 i75 ACSEBH
_publ_author_name
;
Terebilenko, K.V.;Zatovsky, I.V.;Baumer, V.N.;Slobodyanik, 
N.S.;Shishkin, O.V.
;
_cell_length_a                     6.8820(10)
_cell_length_b                     12.1485(18)
_cell_length_c                     19.695(3)
_cell_angle_alpha                  90
_cell_angle_beta                   90
_cell_angle_gamma                  90
_cell_volume                       1646.62
_cell_formula_units_Z              8
_symmetry_space_group_name_H-M     'I b c a'
_symmetry_Int_Tables_number        73
_refine_ls_R_factor_all            .0289
loop_
_symmetry_equiv_pos_site_id
_symmetry_equiv_pos_as_xyz
  1	'x, y+.5, -z'
  2	'x+.5, -y, z'
  3	'-x, y, z+.5'
  4	'-x, -y, -z'
  5	'-x, -y+.5, z'
  6	'-x+.5, y, -z'
  7	'x, -y, -z+.5'
  8	'x, y, z'
  9	'x+.5, y, -z+.5'
 10	'x, -y+.5, z+.5'
 11	'-x+.5, y+.5, z'
 12	'-x+.5, -y+.5, -z+.5'
 13	'-x+.5, -y, z+.5'
 14	'-x, y+.5, -z+.5'
 15	'x+.5, -y+.5, -z'
 16	'x+.5, y+.5, z+.5'
loop_
_atom_type_symbol
_atom_type_oxidation_number
Ho3+	3
K1+	1
O2-	-2
P5+	5
W6+	6
loop_
_atom_site_label
_atom_site_type_symbol
_atom_site_symmetry_multiplicity
_atom_site_Wyckoff_symbol
_atom_site_fract_x
_atom_site_fract_y
_atom_site_fract_z
_atom_site_occupancy
_atom_site_attached_hydrogens
_atom_site_U_iso_or_equiv
W1 W6+ 8 e 0.5 0.25 0.334530(12) 1 0 0.01088(5) 
Ho1 Ho3+ 8 d 0.75 0.325113(17) 0.5 1 0 0.00662(5) 
K1 K1+ 16 f 0.96872(15) 0.07992(10) 0.34389(5) 1 0 0.0196(2) 
P1 P5+ 8 d 0.75 0.07042(10) 0.5 1 0 0.0065(2) 
O1 O2- 16 f 0.7088(4) 0.2796(3) 0.38536(17) 1 0 0.0146(7) 
O2 O2- 16 f 0.4420(6) 0.3643(4) 0.2845(2) 1 0 0.0269(8) 
O3 O2- 16 f 0.7308(4) -0.0047(2) 0.43834(16) 1 0 0.0102(6) 
O4 O2- 16 f 0.9229(4) 0.1514(2) 0.49215(17) 1 0 0.0105(6) 

loop_
_atom_site_aniso_label
_atom_site_aniso_type_symbol
_atom_site_aniso_U_11
_atom_site_aniso_U_22
_atom_site_aniso_U_33
_atom_site_aniso_U_12
_atom_site_aniso_U_13
_atom_site_aniso_U_23
W1 W6+ 0.01432(9) 0.01167(9) 0.00666(9) -0.00095(8) 0 0
Ho1 Ho3+ 0.00652(9) 0.00523(9) 0.00811(10) 0 -0.00005(9) 0
K1 K1+ 0.0204(4) 0.0248(5) 0.0137(4) -0.0002(4) 0.0021(3) 0.0039(4)
P1 P5+ 0.0064(5) 0.0034(5) 0.0098(6) 0 0.0000(5) 0
O1 O2- 0.0154(14) 0.0171(14) 0.0113(14) -0.0035(11) -0.0012(11) -0.0031(11)
O2 O2- 0.0308(17) 0.0296(19) 0.0203(17) -0.0008(17) 0.0013(15) 0.0126(16)
O3 O2- 0.0126(13) 0.0079(11) 0.0101(13) -0.0018(10) -0.0002(11) -0.0010(9)
O4 O2- 0.0052(10) 0.0066(11) 0.0198(16) -0.0017(9) 0.0011(10) -0.0016(11)
#End of data_260054-ICSD


