data_40429-ICSD
#?2014 by Fachinformationszentrum Karlsruhe, and the U.S. Secretary of 
#Commerce on behalf of the United States.  All rights reserved.
_database_code_ICSD                40429
_audit_creation_date               1999/06/02
_chemical_name_systematic          'Disodium Platinum Diselenide'
_chemical_formula_structural       'Na2 Pt Se2'
_chemical_formula_sum              'Na2 Pt1 Se2'
_publ_section_title
;
Neue Verbindungen im Na2 Pt S2- und im K2 Pt S2-Typ
;
loop_
_citation_id
_citation_journal_abbrev
_citation_year
_citation_journal_volume
_citation_page_first
_citation_page_last
_citation_journal_id_ASTM
primary 'Journal of the Less-Common Metals' 1989 154 261 270 JCOMAH
_publ_author_name
;
Bronger, W.;Jaeger, S.;Rennau, R.;Schmitz, D.
;
_cell_length_a                     3.686(2)
_cell_length_b                     10.791(3)
_cell_length_c                     11.323(2)
_cell_angle_alpha                  90.
_cell_angle_beta                   90.
_cell_angle_gamma                  90.
_cell_volume                       450.38
_cell_formula_units_Z              4
_symmetry_space_group_name_H-M     'C m c 21'
_symmetry_Int_Tables_number        36
_refine_ls_R_factor_all            .054
loop_
_symmetry_equiv_pos_site_id
_symmetry_equiv_pos_as_xyz
  1	'x, -y, z+.5'
  2	'-x, -y, z+.5'
  3	'-x, y, z'
  4	'x, y, z'
  5	'x+.5, -y+.5, z+.5'
  6	'-x+.5, -y+.5, z+.5'
  7	'-x+.5, y+.5, z'
  8	'x+.5, y+.5, z'
loop_
_atom_type_symbol
_atom_type_oxidation_number
Na1+	1
Pt2+	2
Se2-	-2
loop_
_atom_site_label
_atom_site_type_symbol
_atom_site_symmetry_multiplicity
_atom_site_Wyckoff_symbol
_atom_site_fract_x
_atom_site_fract_y
_atom_site_fract_z
_atom_site_occupancy
_atom_site_attached_hydrogens
Na1 Na1+ 4 a 0 0.435(3) 0.128(3) 1. 0 
Na2 Na1+ 4 a 0 0.823(2) 0.402(3) 1. 0 
Pt1 Pt2+ 4 a 0 0.1362(2) 0.25 1. 0 
Se1 Se2- 4 a 0 0.7224(6) 0.1286(8) 1. 0 
Se2 Se2- 4 a 0 0.5516(6) 0.3691(8) 1. 0 

loop_
_atom_site_aniso_label
_atom_site_aniso_type_symbol
_atom_site_aniso_U_11
_atom_site_aniso_U_22
_atom_site_aniso_U_33
_atom_site_aniso_U_12
_atom_site_aniso_U_13
_atom_site_aniso_U_23
Na1 Na1+ 0.032(19) 0.025(16) 0.024(19) 0 0 -.003(14)
Na2 Na1+ 0.0017(13) 0.001(1) 0.0017(16) 0 0 0.0003(10)
Pt1 Pt2+ 0.007(1) 0.006(1) 0.0016(10) 0 0 0.001(2)
Se1 Se2- 0.009(3) 0.008(3) 0.014(4) 0 0 0.001(3)
Se2 Se2- 0.015(3) 0.009(3) 0.008(4) 0 0 0.003(3)
#End of data_40429-ICSD


