data_65621-ICSD
#?2014 by Fachinformationszentrum Karlsruhe, and the U.S. Secretary of 
#Commerce on behalf of the United States.  All rights reserved.
_database_code_ICSD                65621
_audit_creation_date               1990/06/08
_audit_update_record               2010/08/01
_chemical_name_systematic
;
Sodium Tetramagnesium Tris(vanadate)
;
_chemical_formula_structural       'Na Mg4 (V O4)3'
_chemical_formula_sum              'Mg4 Na1 O12 V3'
_publ_section_title
;
Crystal structure of Na Mg4 (V O4)3
;
loop_
_citation_id
_citation_journal_abbrev
_citation_year
_citation_journal_volume
_citation_page_first
_citation_page_last
_citation_journal_id_ASTM
primary 'Zhurnal Strukturnoi Khimii (Issue-No. from 1981)'
 1988 29 182 184 ZSTKAI
_publ_author_name
;
Murashova, E.V.;Velikodnyi, Yu.A.;Trunov, V.K.
;
_cell_length_a                     6.890(1)
_cell_length_b                     6.890(1)
_cell_length_c                     19.292(3)
_cell_angle_alpha                  90.
_cell_angle_beta                   90.
_cell_angle_gamma                  90.
_cell_volume                       915.83
_cell_formula_units_Z              4
_symmetry_space_group_name_H-M     'I -4 2 d'
_symmetry_Int_Tables_number        122
_refine_ls_R_factor_all            .025
loop_
_symmetry_equiv_pos_site_id
_symmetry_equiv_pos_as_xyz
  1	'-y, -x+.5, z+.25'
  2	'y, -x, -z'
  3	'y, x+.5, z+.25'
  4	'-y, x, -z'
  5	'x, -y+.5, -z+.25'
  6	'-x, -y, z'
  7	'-x, y+.5, -z+.25'
  8	'x, y, z'
  9	'-y+.5, -x, z+.75'
 10	'y+.5, -x+.5, -z+.5'
 11	'y+.5, x, z+.75'
 12	'-y+.5, x+.5, -z+.5'
 13	'x+.5, -y, -z+.75'
 14	'-x+.5, -y+.5, z+.5'
 15	'-x+.5, y, -z+.75'
 16	'x+.5, y+.5, z+.5'
loop_
_atom_type_symbol
_atom_type_oxidation_number
Mg2+	2
Na1+	1
O2-	-2
V5+	5
loop_
_atom_site_label
_atom_site_type_symbol
_atom_site_symmetry_multiplicity
_atom_site_Wyckoff_symbol
_atom_site_fract_x
_atom_site_fract_y
_atom_site_fract_z
_atom_site_occupancy
_atom_site_attached_hydrogens
_atom_site_B_iso_or_equiv
V1 V5+ 4 a 0 0 0 1. 0 0.320(6) 
V2 V5+ 8 d 0.34882(9) 0.75 0.125 1. 0 0.342(6) 
Mg1 Mg2+ 8 c 0 0 0.22581(7) 1. 0 0.54(2) 
Mg2 Mg2+ 8 d 0.2413(2) 0.25 0.125 1. 0 0.53(2) 
Na1 Na1+ 4 b 0 0 0.5 1. 0 0.84(3) 
O1 O2- 16 e 0.0542(3) 0.2075(3) 0.0454(1) 1. 0 0.61(2) 
O2 O2- 16 e 0.2282(3) 0.5418(3) 0.09863(9) 1. 0 0.62(3) 
O3 O2- 16 e 0.4919(4) 0.1994(3) 0.05904(9) 1. 0 0.57(2) 

#End of data_65621-ICSD


