data_24987-ICSD
#?2014 by Fachinformationszentrum Karlsruhe, and the U.S. Secretary of 
#Commerce on behalf of the United States.  All rights reserved.
_database_code_ICSD                24987
_audit_creation_date               1980/01/01
_audit_update_record               2012/02/01
_chemical_name_systematic          'Dipotassium Tetrachromate'
_chemical_formula_structural       'K2 (Cr4 O13)'
_chemical_formula_sum              'Cr4 K2 O13'
_publ_section_title
;
Systematic analysis of the patterson function on the basis of crystal 
symmetry. III. Application to analysis of the crystal structure of 
potassium tetrachromate
;
loop_
_citation_id
_citation_journal_abbrev
_citation_year
_citation_journal_volume
_citation_page_first
_citation_page_last
_citation_journal_id_ASTM
primary Kristallografiya 1972 17 929 933 KRISAJ
2 'Soviet Physics, Crystallography (= Kristallografiya)'
 1972 17 822 825 SPHCA6
3 'Doklady Akademii Nauk SSSR' 1970 192 1272 1274 DANKAS
_publ_author_name
;
Kuz'min, E.A.;Golovachev, V.P.;Kharitonov, Yu.A.;Belov, N.V.
;
_cell_length_a                     8.71
_cell_length_b                     7.55
_cell_length_c                     9.37
_cell_angle_alpha                  90.
_cell_angle_beta                   93.
_cell_angle_gamma                  90.
_cell_volume                       615.33
_cell_formula_units_Z              2
_symmetry_space_group_name_H-M     'P 1 c 1'
_symmetry_Int_Tables_number        7
_refine_ls_R_factor_all            .108
loop_
_symmetry_equiv_pos_site_id
_symmetry_equiv_pos_as_xyz
  1	'x, -y, z+.5'
  2	'x, y, z'
loop_
_atom_type_symbol
_atom_type_oxidation_number
Cr6+	6
K1+	1
O2-	-2
loop_
_atom_site_label
_atom_site_type_symbol
_atom_site_symmetry_multiplicity
_atom_site_Wyckoff_symbol
_atom_site_fract_x
_atom_site_fract_y
_atom_site_fract_z
_atom_site_occupancy
_atom_site_attached_hydrogens
_atom_site_B_iso_or_equiv
K1 K1+ 2 a 0.796 0.405 0.104 1. 0 2.04 
K2 K1+ 2 a 0.079 0.892 0.246 1. 0 1.48 
Cr1 Cr6+ 2 a 0.441 0.439 0.335 1. 0 1.29 
Cr2 Cr6+ 2 a 0.434 0.105 0.102 1. 0 0.92 
Cr3 Cr6+ 2 a 0.759 0.93 -.029 1. 0 1.11 
Cr4 Cr6+ 2 a 0.095 0.429 0.383 1. 0 1.19 
O1 O2- 2 a 0.906 0.064 0.98 1. 0 2.07 
O2 O2- 2 a 0.588 0.069 0.001 1. 0 1.43 
O3 O2- 2 a 0.282 0.103 0.997 1. 0 1.22 
O4 O2- 2 a 0.578 0.563 0.345 1. 0 2.45 
O5 O2- 2 a 0.959 0.562 0.332 1. 0 1.43 
O6 O2- 2 a 0.263 0.568 0.323 1. 0 1.42 
O7 O2- 2 a 0.07 0.244 0.268 1. 0 0.87 
O8 O2- 2 a 0.119 0.633 0.05 1. 0 2.66 
O9 O2- 2 a 0.467 0.349 0.166 1. 0 2.01 
O10 O2- 2 a 0.448 0.311 0.466 1. 0 1.36 
O11 O2- 2 a 0.425 0.97 0.238 1. 0 3.19 
O12 O2- 2 a 0.75 0.182 0.309 1. 0 2.23 
O13 O2- 2 a 0.767 0.779 0.093 1. 0 3.21 

#End of data_24987-ICSD


