data_160809-ICSD
#?2014 by Fachinformationszentrum Karlsruhe, and the U.S. Secretary of 
#Commerce on behalf of the United States.  All rights reserved.
_database_code_ICSD                160809
_audit_creation_date               2009/02/01
_chemical_name_systematic          'Calcium Iron Catena-disilicate'
_chemical_formula_structural       'Ca Fe (Si2 O6)'
_chemical_formula_sum              'Ca1 Fe1 O6 Si2'
_chemical_name_mineral             Hedenbergite
_publ_section_title
;
The effect of the hedenbergite substitution on the compressibility of 
jadeite
;
loop_
_citation_id
_citation_journal_abbrev
_citation_year
_citation_journal_volume
_citation_page_first
_citation_page_last
_citation_journal_id_ASTM
primary 'American Mineralogist' 2008 93 1005 1013 AMMIAY
_publ_author_name
;
Nestola, F.;Boffa Ballaran, T.;Liebske, C.;Thompson, R.;Downs, R.T.
;
_cell_length_a                     9.8447(2)
_cell_length_b                     9.0234(3)
_cell_length_c                     5.2509(2)
_cell_angle_alpha                  90.
_cell_angle_beta                   104.862(2)
_cell_angle_gamma                  90.
_cell_volume                       450.85
_cell_formula_units_Z              4
_symmetry_space_group_name_H-M     'C 1 2/c 1'
_symmetry_Int_Tables_number        15
loop_
_symmetry_equiv_pos_site_id
_symmetry_equiv_pos_as_xyz
  1	'x, -y, z+.5'
  2	'-x, -y, -z'
  3	'-x, y, -z+.5'
  4	'x, y, z'
  5	'x+.5, -y+.5, z+.5'
  6	'-x+.5, -y+.5, -z'
  7	'-x+.5, y+.5, -z+.5'
  8	'x+.5, y+.5, z'
loop_
_atom_type_symbol
_atom_type_oxidation_number
Ca2+	2
Fe2+	2
O2-	-2
Si4+	4
loop_
_atom_site_label
_atom_site_type_symbol
_atom_site_symmetry_multiplicity
_atom_site_Wyckoff_symbol
_atom_site_fract_x
_atom_site_fract_y
_atom_site_fract_z
_atom_site_occupancy
_atom_site_attached_hydrogens
_atom_site_U_iso_or_equiv
Ca1 Ca2+ 4 e 0 0.3001(1) 0.250 1. 0 0.0083(2) 
Fe1 Fe2+ 4 e 0 0.90740(7) 0.250 1. 0 0.0065(2) 
Si1 Si4+ 8 f 0.2877(4) 0.09253(9) 0.2325(2) 1. 0 0.0052(3) 
O1 O2- 8 f 0.1193(8) 0.0907(2) 0.1522(5) 1. 0 0.0083(6) 
O2 O2- 8 f 0.3624(8) 0.2464(3) 0.3245(5) 1. 0 0.0089(6) 
O3 O2- 8 f 0.3502(8) 0.0195(3) 0.9938(4) 1. 0 0.0090(6) 

#End of data_160809-ICSD


