data_411806-ICSD
#?2014 by Fachinformationszentrum Karlsruhe, and the U.S. Secretary of 
#Commerce on behalf of the United States.  All rights reserved.
_database_code_ICSD                411806
_audit_creation_date               2002/10/01
_audit_update_record               2009/08/01
_chemical_name_systematic
;
Potassium Trifluorooxotellurate(IV)
;
_chemical_formula_structural       'K (Te O F3)'
_chemical_formula_sum              'F3 K1 O1 Te1'
_publ_section_title
;
Synthese und Kristallstruktur von K Te O F3
;
loop_
_citation_id
_citation_journal_abbrev
_citation_year
_citation_journal_volume
_citation_page_first
_citation_page_last
_citation_journal_id_ASTM
primary 'Zeitschrift fuer Anorganische und Allgemeine Chemie (1950) (DE)'
 2001 627 1782 1786 ZAACAB
_publ_author_name                  'Kessler, U.;Jansen, M.'
_cell_length_a                     10.0796(3)
_cell_length_b                     10.0796(3)
_cell_length_c                     7.8958(3)
_cell_angle_alpha                  90.
_cell_angle_beta                   90.
_cell_angle_gamma                  90.
_cell_volume                       802.2
_cell_formula_units_Z              8
_symmetry_space_group_name_H-M     'P 42/n Z'
_symmetry_Int_Tables_number        86
_refine_ls_R_factor_all            .0567
loop_
_symmetry_equiv_pos_site_id
_symmetry_equiv_pos_as_xyz
  1	'-y+.5, x, -z+.5'
  2	'y, -x+.5, -z+.5'
  3	'x+.5, y+.5, -z'
  4	'-x, -y, -z'
  5	'y+.5, -x, z+.5'
  6	'-y, x+.5, z+.5'
  7	'-x+.5, -y+.5, z'
  8	'x, y, z'
loop_
_atom_type_symbol
_atom_type_oxidation_number
F1-	-1
K1+	1
O2-	-2
Te4+	4
loop_
_atom_site_label
_atom_site_type_symbol
_atom_site_symmetry_multiplicity
_atom_site_Wyckoff_symbol
_atom_site_fract_x
_atom_site_fract_y
_atom_site_fract_z
_atom_site_occupancy
_atom_site_attached_hydrogens
K1 K1+ 2 a 0.25 0.25 0.25 1. 0 
K2 K1+ 2 b 0.25 0.25 0.75 1. 0 
K3 K1+ 4 c 0 0 0 1. 0 
Te1 Te4+ 8 g 0.38194(2) 0.59436(2) 0.46123(3) 1. 0 
O1 O2- 8 g 0.4963(3) 0.4719(3) 0.3492(3) 1. 0 
F1 F1- 8 g 0.5109(3) 0.7349(3) 0.3960(4) 1. 0 
F2 F1- 8 g 0.3114(3) 0.6094(3) 0.2251(4) 1. 0 
F3 F1- 8 g 0.2565(2) 0.4342(3) 0.4865(3) 1. 0 

loop_
_atom_site_aniso_label
_atom_site_aniso_type_symbol
_atom_site_aniso_U_11
_atom_site_aniso_U_22
_atom_site_aniso_U_33
_atom_site_aniso_U_12
_atom_site_aniso_U_13
_atom_site_aniso_U_23
K1 K1+ 0.0612(10) 0.0612(10) 0.0290(11) 0 0 0
K2 K1+ 0.0268(5) 0.0268(5) 0.0256(8) 0 0 0
K3 K1+ 0.0289(6) 0.0241(6) 0.0256(6) -.0018(5) -.0008(4) -.0002(4)
Te1 Te4+ 0.01821(13) 0.02018(13) 0.02194(10) 0.0011(1) 0.00023(10) 
-.00035(10)
O1 O2- 0.0241(14) 0.0251(15) 0.0196(13) 0.0051(11) 0.000(1) -.0042(11)
F1 F1- 0.0362(15) 0.0241(13) 0.0496(17) -.0052(11) 0.0140(13) 0.0018(12)
F2 F1- 0.0439(17) 0.0508(18) 0.0305(15) 0.0106(14) -.0119(13) 0.0026(13)
F3 F1- 0.0216(11) 0.0294(13) 0.0394(15) -.0054(9) -.0008(10) 0.0022(11)
#End of data_411806-ICSD


