data_380300-ICSD
#?2014 by Fachinformationszentrum Karlsruhe, and the U.S. Secretary of 
#Commerce on behalf of the United States.  All rights reserved.
_database_code_ICSD                380300
_audit_creation_date               2010/02/01
_chemical_name_systematic
;
Potassium Bis(cyanido)-bis(fluoro)borate
;
_chemical_formula_structural       'K (B F2 (C N)2)'
_chemical_formula_sum              'C2 B1 F2 K1 N2'
_publ_section_title
;
The crystal structures of the cyanidofluoroborates K [B F(x) (C N)(4-
x)], x = 0 - 4
;
loop_
_citation_id
_citation_journal_abbrev
_citation_year
_citation_journal_volume
_citation_journal_issue
_citation_page_first
_citation_page_last
_citation_journal_id_ASTM
primary 'Zeitschrift fuer Anorganische und Allgemeine Chemie (1950) (DE)'
 2009 635 15 2511 2514 ZAACAB
_publ_author_name                  'Bernhardt, E.;Willner, H.'
_cell_length_a                     13.1659
_cell_length_b                     13.1659
_cell_length_c                     38.1976(26)
_cell_angle_alpha                  90.00
_cell_angle_beta                   90.00
_cell_angle_gamma                  90.00
_cell_volume                       6621.21
_cell_formula_units_Z              48
_symmetry_space_group_name_H-M     'P 41 21 2'
_symmetry_Int_Tables_number        92
_refine_ls_R_factor_all            .0266
loop_
_symmetry_equiv_pos_site_id
_symmetry_equiv_pos_as_xyz
  1	'x+.5, -y+.5, -z+.75'
  2	'-x+.5, y+.5, -z+.25'
  3	'-y, -x, -z+.5'
  4	'y, x, -z'
  5	'y+.5, -x+.5, z+.75'
  6	'-y+.5, x+.5, z+.25'
  7	'-x, -y, z+.5'
  8	'x, y, z'
loop_
_atom_type_symbol
_atom_type_oxidation_number
B3+	3
C2+	2
F1-	-1
K1+	1
N3-	-3
loop_
_atom_site_label
_atom_site_type_symbol
_atom_site_symmetry_multiplicity
_atom_site_Wyckoff_symbol
_atom_site_fract_x
_atom_site_fract_y
_atom_site_fract_z
_atom_site_occupancy
_atom_site_attached_hydrogens
_atom_site_U_iso_or_equiv
B1 B3+ 4 a 0.56178(12) 0.56178(12) 0.0000 1 0 0.0349(6) 
F1 F1- 8 b 0.47931(6) 0.55666(6) 0.022923(19) 1 0 0.0467(2) 
C1 C2+ 8 b 0.55784(10) 0.66716(11) -0.02172(4) 1 0 0.0410(3) 
N1 N3- 8 b 0.55587(10) 0.74255(11) -0.03612(3) 1 0 0.0615(4) 
B2 B3+ 4 a 0.19401(12) 0.19401(12) 0.0000 1 0 0.0377(6) 
F2 F1- 8 b 0.20922(6) 0.26515(6) -0.02636(2) 1 0 0.0533(2) 
C2 C2+ 8 b 0.08011(11) 0.20673(10) 0.01521(4) 1 0 0.0389(3) 
N2 N3- 8 b -0.00067(10) 0.21568(10) 0.02539(3) 1 0 0.0555(4) 
B3 B3+ 8 b 0.05854(12) 0.69263(12) 0.00034(4) 1 0 0.0357(4) 
F3 F1- 8 b -0.01822(6) 0.70093(6) 0.02543(2) 1 0 0.0499(2) 
F4 F1- 8 b 0.04290(6) 0.76632(6) -0.02521(2) 1 0 0.0463(2) 
C3 C2+ 8 b 0.05397(10) 0.58059(11) -0.01697(4) 1 0 0.0406(4) 
N3 N3- 8 b 0.05065(10) 0.50134(10) -0.02854(4) 1 0 0.0596(4) 
C4 C2+ 8 b 0.16787(11) 0.70852(10) 0.01834(3) 1 0 0.0379(3) 
N4 N3- 8 b 0.24601(10) 0.71833(9) 0.03041(3) 1 0 0.0559(4) 
B4 B3+ 8 b 0.04932(12) 0.56301(12) 0.33376(4) 1 0 0.0355(4) 
F5 F1- 8 b -0.02515(6) 0.55660(6) 0.35956(2) 1 0 0.0525(2) 
F6 F1- 8 b 0.03181(6) 0.48772(6) 0.30878(2) 1 0 0.0478(2) 
C5 C2+ 8 b 0.04477(10) 0.67401(11) 0.31576(4) 1 0 0.0404(4) 
N5 N3- 8 b 0.04131(10) 0.75245(10) 0.30351(3) 1 0 0.0601(4) 
C6 C2+ 8 b 0.16049(11) 0.54603(10) 0.35080(3) 1 0 0.0381(3) 
N6 N3- 8 b 0.23946(10) 0.53462(9) 0.36219(3) 1 0 0.0550(4) 
B5 B3+ 8 b 0.68428(12) 0.19613(12) 0.33316(4) 1 0 0.0352(4) 
F7 F1- 8 b 0.75907(6) 0.21017(6) 0.35845(2) 1 0 0.0466(2) 
F8 F1- 8 b 0.69091(6) 0.27461(6) 0.30869(2) 1 0 0.0502(2) 
C7 C2+ 8 b 0.57259(11) 0.19799(10) 0.35089(4) 1 0 0.0405(4) 
N7 N3- 8 b 0.49300(10) 0.19911(10) 0.36242(4) 1 0 0.0600(4) 
C8 C2+ 8 b 0.70001(10) 0.08762(11) 0.31408(4) 1 0 0.0378(3) 
N8 N3- 8 b 0.70948(9) 0.01078(10) 0.30113(3) 1 0 0.0540(4) 
B6 B3+ 8 b 0.55404(12) 0.69286(12) 0.33398(4) 1 0 0.0368(4) 
F9 F1- 8 b 0.54691(6) 0.77264(6) 0.31015(2) 1 0 0.0470(2) 
F10 F1- 8 b 0.47309(6) 0.70005(6) 0.35745(2) 1 0 0.0482(2) 
C9 C2+ 8 b 0.66050(11) 0.70036(10) 0.35486(4) 1 0 0.0407(4) 
N9 N3- 8 b 0.73638(11) 0.70484(10) 0.36901(4) 1 0 0.0625(4) 
C10 C2+ 8 b 0.54970(10) 0.58507(11) 0.31389(4) 1 0 0.0414(4) 
N10 N3- 8 b 0.54678(10) 0.50783(10) 0.30072(3) 1 0 0.0613(4) 
B7 B3+ 8 b 0.18683(12) 0.05777(12) 0.33267(4) 1 0 0.0351(4) 
F11 F1- 8 b 0.26021(6) 0.04111(6) 0.35838(2) 1 0 0.0493(2) 
F12 F1- 8 b 0.20002(6) -0.01315(6) 0.30597(2) 1 0 0.0507(2) 
C11 C2+ 8 b 0.07497(11) 0.04548(10) 0.34906(3) 1 0 0.0371(4) 
N11 N3- 8 b -0.00471(10) 0.03756(9) 0.36028(3) 1 0 0.0541(4) 
C12 C2+ 8 b 0.20001(10) 0.17162(11) 0.31758(4) 1 0 0.0384(4) 
N12 N3- 8 b 0.20854(10) 0.25241(10) 0.30753(3) 1 0 0.0547(4) 
K1 K1+ 4 a 0.37975(2) 0.37975(2) 0.0000 1 0 0.03854(16) 
K2 K1+ 4 a 0.87376(2) 0.87376(2) 0.0000 1 0 0.03724(17) 
K3 K1+ 8 b 0.87309(2) 0.38102(2) 0.001683(14) 1 0 0.04019(12) 
K4 K1+ 8 b 0.86528(2) 0.87642(2) 0.333502(13) 1 0 0.03832(10) 
K5 K1+ 8 b 0.37329(2) 0.37846(2) 0.333051(14) 1 0 0.03919(10) 
K6 K1+ 8 b 0.86395(2) 0.38192(3) 0.334977(11) 1 0 0.03677(12) 
K7 K1+ 8 b 0.37241(2) 0.87303(2) 0.331637(12) 1 0 0.03797(13) 

loop_
_atom_site_aniso_label
_atom_site_aniso_type_symbol
_atom_site_aniso_U_11
_atom_site_aniso_U_22
_atom_site_aniso_U_33
_atom_site_aniso_U_12
_atom_site_aniso_U_13
_atom_site_aniso_U_23
B1 B3+ 0.0353(8) 0.0353(8) 0.0343(13) -0.0041(10) 0.0018(8) -0.0018(8)
F1 F1- 0.0434(5) 0.0495(5) 0.0473(5) -0.0081(4) 0.0131(4) -0.0015(4)
C1 C2+ 0.0368(8) 0.0464(9) 0.0397(9) -0.0019(6) 0.0021(7) 0.0011(8)
N1 N3- 0.0651(9) 0.0553(9) 0.0641(10) 0.0025(7) 0.0022(8) 0.0188(8)
B2 B3+ 0.0360(8) 0.0360(8) 0.0411(14) 0.0006(10) -0.0026(8) 0.0026(8)
F2 F1- 0.0525(5) 0.0514(5) 0.0561(5) -0.0027(4) 0.0039(5) 0.0203(5)
C2 C2+ 0.0461(9) 0.0332(8) 0.0373(8) 0.0056(7) 0.0010(7) -0.0005(7)
N2 N3- 0.0512(8) 0.0605(9) 0.0547(9) 0.0139(7) 0.0116(7) 0.0033(7)
B3 B3+ 0.0346(9) 0.0351(9) 0.0374(10) 0.0021(7) 0.0039(8) 0.0005(8)
F3 F1- 0.0478(5) 0.0491(5) 0.0530(5) 0.0059(4) 0.0195(4) -0.0005(4)
F4 F1- 0.0458(5) 0.0479(5) 0.0452(5) 0.0083(4) -0.0020(4) 0.0111(4)
C3 C2+ 0.0331(8) 0.0431(9) 0.0455(9) -0.0026(6) 0.0029(7) -0.0044(8)
N3 N3- 0.0573(9) 0.0510(8) 0.0706(10) -0.0064(7) 0.0048(8) -0.0205(8)
C4 C2+ 0.0462(9) 0.0323(8) 0.0353(8) -0.0012(6) -0.0027(7) 0.0016(7)
N4 N3- 0.0540(9) 0.0546(8) 0.0590(9) -0.0050(7) -0.0174(7) 0.0025(7)
B4 B3+ 0.0346(9) 0.0342(9) 0.0377(10) -0.0011(7) 0.0039(8) 0.0000(8)
F5 F1- 0.0494(6) 0.0536(5) 0.0545(6) -0.0035(4) 0.0202(5) 0.0016(5)
F6 F1- 0.0478(5) 0.0470(5) 0.0487(5) -0.0081(4) -0.0023(4) -0.0115(4)
C5 C2+ 0.0319(8) 0.0465(9) 0.0427(9) 0.0012(7) 0.0001(7) 0.0033(8)
N5 N3- 0.0566(9) 0.0512(9) 0.0725(10) 0.0051(7) -0.0011(8) 0.0194(8)
C6 C2+ 0.0481(9) 0.0317(8) 0.0345(9) 0.0037(7) -0.0003(7) -0.0021(6)
N6 N3- 0.0517(9) 0.0575(9) 0.0557(9) 0.0107(7) -0.0142(7) -0.0029(7)
B5 B3+ 0.0341(9) 0.0347(9) 0.0369(10) -0.0031(7) -0.0006(8) 0.0038(8)
F7 F1- 0.0464(5) 0.0482(5) 0.0451(5) -0.0082(4) -0.0105(4) -0.0025(4)
F8 F1- 0.0510(5) 0.0468(5) 0.0526(5) -0.0041(4) -0.0002(4) 0.0192(5)
C7 C2+ 0.0451(9) 0.0346(8) 0.0419(9) 0.0030(7) 0.0051(8) 0.0013(7)
N7 N3- 0.0491(9) 0.0627(9) 0.0683(10) 0.0062(7) 0.0176(8) 0.0023(8)
C8 C2+ 0.0334(8) 0.0443(9) 0.0359(8) -0.0005(6) -0.0007(7) -0.0016(7)
N8 N3- 0.0547(9) 0.0533(8) 0.0542(9) 0.0050(7) -0.0018(7) -0.0150(7)
B6 B3+ 0.0357(9) 0.0351(9) 0.0397(10) 0.0036(7) 0.0043(8) 0.0007(8)
F9 F1- 0.0494(5) 0.0453(5) 0.0463(5) 0.0094(4) 0.0016(4) 0.0131(4)
F10 F1- 0.0451(5) 0.0503(5) 0.0492(5) 0.0082(4) 0.0150(4) 0.0010(4)
C9 C2+ 0.0448(9) 0.0343(8) 0.0430(9) 0.0012(7) -0.0027(8) 0.0018(7)
N9 N3- 0.0557(9) 0.0642(10) 0.0675(10) -0.0037(7) -0.0222(8) 0.0042(8)
C10 C2+ 0.0358(8) 0.0454(9) 0.0429(9) -0.0007(7) 0.0006(7) -0.0038(8)
N10 N3- 0.0647(9) 0.0531(9) 0.0662(10) -0.0046(7) 0.0040(8) -0.0196(8)
B7 B3+ 0.0345(9) 0.0348(9) 0.0361(10) -0.0021(7) -0.0025(8) -0.0023(8)
F11 F1- 0.0468(5) 0.0468(5) 0.0544(6) 0.0040(4) -0.0169(5) 0.0007(4)
F12 F1- 0.0500(5) 0.0511(5) 0.0509(5) 0.0020(4) 0.0029(4) -0.0194(4)
C11 C2+ 0.0441(9) 0.0304(8) 0.0367(9) -0.0039(7) 0.0013(7) -0.0007(7)
N11 N3- 0.0504(8) 0.0546(8) 0.0571(9) -0.0098(7) 0.0128(8) -0.0024(8)
C12 C2+ 0.0336(8) 0.0444(9) 0.0372(9) -0.0057(6) -0.0018(7) 0.0003(7)
N12 N3- 0.0585(9) 0.0513(9) 0.0542(9) -0.0138(7) -0.0048(7) 0.0133(8)
K1 K1+ 0.0389(2) 0.0389(2) 0.0378(4) -0.00819(19) 0.00045(15) -0.00045(15)
K2 K1+ 0.0391(2) 0.0391(2) 0.0336(4) 0.0079(2) -0.00033(14) 0.00033(14)
K3 K1+ 0.0387(2) 0.0392(2) 0.0426(3) -0.00083(16) -0.00207(16) 0.00559(17)
K4 K1+ 0.0377(2) 0.0386(3) 0.0387(2) 0.00028(15) -0.00035(16) -0.00301(15)
K5 K1+ 0.0379(2) 0.0385(3) 0.0411(2) 0.00052(15) -0.00353(16) -0.00245(15)
K6 K1+ 0.0389(2) 0.0377(2) 0.0338(3) -0.00719(13) 0.00075(16) -0.00115(15)
K7 K1+ 0.0375(2) 0.0401(3) 0.0363(3) 0.00827(13) 0.00197(15) 0.00235(15)
#End of data_380300-ICSD


