data_20709-ICSD
#?2014 by Fachinformationszentrum Karlsruhe, and the U.S. Secretary of 
#Commerce on behalf of the United States.  All rights reserved.
_database_code_ICSD                20709
_audit_creation_date               1980/01/01
_audit_update_record               2012/08/01
_chemical_name_systematic
;
Potassium Trichlorotrinitroplatinate
;
_chemical_formula_structural       'K2 (Pt (N O2)3 Cl3)'
_chemical_formula_sum              'Cl3 K2 N3 O6 Pt1'
_publ_section_title
;
The X-ray structural analysis of potassium trichloro 
trinitroplatinate
;
loop_
_citation_id
_citation_journal_abbrev
_citation_year
_citation_journal_volume
_citation_page_first
_citation_page_last
_citation_journal_id_ASTM
primary 'Zhurnal Strukturnoi Khimii (Issue-No. from 1981)'
 1962 3 173 183 ZSTKAI
_publ_author_name                  'Kukina, G.A.;Bokii, G.B.'
_cell_length_a                     10.90(2)
_cell_length_b                     7.61(1)
_cell_length_c                     6.54(1)
_cell_angle_alpha                  90.
_cell_angle_beta                   101.5
_cell_angle_gamma                  90.
_cell_volume                       531.6
_cell_formula_units_Z              2
_symmetry_space_group_name_H-M     'P 1 21/m 1'
_symmetry_Int_Tables_number        11
_refine_ls_R_factor_all            .22
loop_
_symmetry_equiv_pos_site_id
_symmetry_equiv_pos_as_xyz
  1	'x, -y+.5, z'
  2	'-x, -y, -z'
  3	'-x, y+.5, -z'
  4	'x, y, z'
loop_
_atom_type_symbol
_atom_type_oxidation_number
Cl1-	-1
K1+	1
N3+	3
O2-	-2
Pt4+	4
loop_
_atom_site_label
_atom_site_type_symbol
_atom_site_symmetry_multiplicity
_atom_site_Wyckoff_symbol
_atom_site_fract_x
_atom_site_fract_y
_atom_site_fract_z
_atom_site_occupancy
_atom_site_attached_hydrogens
_atom_site_B_iso_or_equiv
Pt1 Pt4+ 2 e 0.2485(17) 0.25 0.1125(17) 1. 0 1.5 
Cl1 Cl1- 2 e 0.456(13) 0.25 0.294(13) 1. 0 1.5 
Cl2 Cl1- 4 f 0.302(13) 0.027(13) -.104(13) 1. 0 1.5 
K1 K1+ 2 e 0.113(11) 0.75 0.616(11) 1. 0 1.5 
K2 K1+ 2 e 0.470(11) 0.75 0.217(11) 1. 0 1.5 
N1 N3+ 4 f 0.203(40) 0.037(40) 0.312(40) 1. 0 1.5 
O1 O2- 4 f 0.292(34) -.060(34) 0.388(34) 1. 0 1.5 
O2 O2- 4 f 0.109(34) 0.070(34) 0.383(34) 1. 0 1.5 
N2 N3+ 2 e 0.055(40) 0.25 -.06(4) 1. 0 1.5 
O3 O2- 2 e 0.060(34) 0.25 -.237(34) 1. 0 1.5 
O4 O2- 2 e -.035(34) 0.25 0.050(34) 1. 0 1.5 

#End of data_20709-ICSD


