data_250041-ICSD
#?2014 by Fachinformationszentrum Karlsruhe, and the U.S. Secretary of 
#Commerce on behalf of the United States.  All rights reserved.
_database_code_ICSD                250041
_audit_creation_date               2003/10/01
_chemical_name_systematic
;
Tetrasilver Dipotassium Tris(tetranitroplatinate)
;
_chemical_formula_structural       'Ag4 K2 (Pt (N O2)4)3'
_chemical_formula_sum              'Ag4 K2 N12 O24 Pt3'
_publ_section_title
;
Configurations of (Pd (N O2)4)2- complex anion. Crystal structure of 
Ag4 A2 (M (N O2)4)3 phases (M= Pd, Pt; A= K, Rb)
;
loop_
_citation_id
_citation_journal_abbrev
_citation_year
_citation_journal_volume
_citation_page_first
_citation_page_last
_citation_journal_id_ASTM
primary 'Zhurnal Strukturnoi Khimii (Issue-No. from 1981)'
 2003 44 90 98 ZSTKAI
_publ_author_name
;
Gromilov, S.A.;Baidina, I.A.;Khranenko, S.P.;Alekseev, V.I.;Belyaev, 
A.V.
;
_cell_length_a                     7.1845(5)
_cell_length_b                     23.7698(14)
_cell_length_c                     7.5920(6)
_cell_angle_alpha                  90
_cell_angle_beta                   98.678(7)
_cell_angle_gamma                  90
_cell_volume                       1281.67
_cell_formula_units_Z              2
_symmetry_space_group_name_H-M     'P 1 21/n 1'
_symmetry_Int_Tables_number        14
_refine_ls_R_factor_all            .0186
loop_
_symmetry_equiv_pos_site_id
_symmetry_equiv_pos_as_xyz
  1	'-x+.5, y+.5, -z+.5'
  2	'-x, -y, -z'
  3	'x+.5, -y+.5, z+.5'
  4	'x, y, z'
loop_
_atom_type_symbol
_atom_type_oxidation_number
Ag1+	1
K1+	1
N3+	3
O2-	-2
Pt2+	2
loop_
_atom_site_label
_atom_site_type_symbol
_atom_site_symmetry_multiplicity
_atom_site_Wyckoff_symbol
_atom_site_fract_x
_atom_site_fract_y
_atom_site_fract_z
_atom_site_occupancy
_atom_site_attached_hydrogens
_atom_site_U_iso_or_equiv
Pt1 Pt2+ 2 c 0.5 0.0 0.5 1. 0 0.019(1) 
Pt2 Pt2+ 4 e 0.3840(1) 0.1758(1) 0.2097(1) 1. 0 0.020(1) 
Ag1 Ag1+ 4 e 0.3880(1) 0.1829(1) -0.1888(1) 1. 0 0.030(1) 
Ag2 Ag1+ 4 e 0.8647(1) 0.0259(1) 0.1154(1) 1. 0 0.044(1) 
K1 K1+ 4 e -0.1029(3) 0.1343(1) 0.5696(2) 1. 0 0.040(1) 
N1 N3+ 4 e 0.3824(9) 0.0692(2) 0.5960(8) 1. 0 0.029(2) 
N2 N3+ 4 e 0.2976(9) -0.0055(2) 0.2834(8) 1. 0 0.030(2) 
N3 N3+ 4 e 0.5655(9) 0.1167(2) 0.1468(8) 1. 0 0.030(2) 
N4 N3+ 4 e 0.6013(9) 0.2292(2) 0.2715(8) 1. 0 0.027(2) 
N5 N3+ 4 e 0.1623(9) 0.1224(2) 0.1407(8) 1. 0 0.029(2) 
N6 N3+ 4 e 0.2039(8) 0.2336(2) 0.2793(8) 1. 0 0.023(2) 
O1 O2- 4 e 0.2316(8) 0.0663(2) 0.6522(7) 1. 0 0.048(2) 
O2 O2- 4 e 0.4715(8) 0.1132(2) 0.6017(7) 1. 0 0.043(2) 
O3 O2- 4 e 0.1432(7) -0.0244(3) 0.2950(7) 1. 0 0.046(2) 
O4 O2- 4 e 0.3381(7) 0.0097(2) 0.1362(6) 1. 0 0.039(2) 
O5 O2- 4 e 0.5863(7) 0.1087(2) -0.0102(6) 1. 0 0.042(2) 
O6 O2- 4 e 0.6650(7) 0.0893(2) 0.2647(6) 1. 0 0.028(2) 
O7 O2- 4 e 0.1534(7) 0.2297(2) 0.4265(7) 1. 0 0.043(2) 
O8 O2- 4 e 0.7635(7) 0.2128(2) 0.2968(7) 1. 0 0.040(2) 
O9 O2- 4 e 0.5715(7) 0.2812(2) 0.2796(6) 1. 0 0.033(1) 
O10 O2- 4 e 0.1474(8) 0.2732(2) 0.1795(7) 1. 0 0.044(2) 
O11 O2- 4 e 0.0835(7) 0.1031(2) 0.2630(7) 1. 0 0.036(1) 
O12 O2- 4 e 0.1113(8) 0.1085(2) -0.0110(7) 1. 0 0.044(2) 

#End of data_250041-ICSD


