data_426199-ICSD
#?2014 by Fachinformationszentrum Karlsruhe, and the U.S. Secretary of 
#Commerce on behalf of the United States.  All rights reserved.
_database_code_ICSD                426199
_audit_creation_date               2014/08/01
_chemical_name_systematic
;
Lithium Sodium Magnesium Phosphate Fluoride
;
_chemical_formula_structural       'Li Na Mg (P O4) F'
_chemical_formula_sum              'F1 Li1 Mg1 Na1 O4 P1'
_publ_section_title
;
Structural relationships among LiNaMg[PO4]F and Na2M[PO4]F (M = Mn-
Ni, and Mg), and the magnetic structure of LiNaNi[PO4]F
;
loop_
_citation_id
_citation_journal_abbrev
_citation_year
_citation_journal_volume
_citation_journal_issue
_citation_page_first
_citation_page_last
_citation_journal_id_ASTM
primary 'Dalton Transactions' 2014 43 5 2044 2051 DTARAF
_publ_author_name
;
Ben Yahia, Hamdi;Shikano, Masahiro;Kobayashi, Hironori;Avdeev, 
Maxim;Liu, Samuel;Ling, Chris D.
;
_cell_length_a                     6.8179(7)
_cell_length_b                     11.2234(12)
_cell_length_c                     5.0222(5)
_cell_angle_alpha                  90
_cell_angle_beta                   90.000(10)
_cell_angle_gamma                  90
_cell_volume                       384.29
_cell_formula_units_Z              4
_symmetry_space_group_name_H-M     'P 1 21/c 1'
_symmetry_Int_Tables_number        14
_refine_ls_R_factor_all            .0298
loop_
_symmetry_equiv_pos_site_id
_symmetry_equiv_pos_as_xyz
  1	'x, -y+.5, z+.5'
  2	'-x, -y, -z'
  3	'-x, y+.5, -z+.5'
  4	'x, y, z'
loop_
_atom_type_symbol
_atom_type_oxidation_number
F1-	-1
Li1+	1
Mg2+	2
Na1+	1
O2-	-2
P5+	5
loop_
_atom_site_label
_atom_site_type_symbol
_atom_site_symmetry_multiplicity
_atom_site_Wyckoff_symbol
_atom_site_fract_x
_atom_site_fract_y
_atom_site_fract_z
_atom_site_occupancy
_atom_site_attached_hydrogens
_atom_site_U_iso_or_equiv
Li1 Li1+ 4 e 0.7408(5) 0.9196(3) 0.7635(7) 1 0 0.0068(12) 
Na1 Na1+ 4 e 0.51155(15) 0.83455(9) 0.2530(2) 1 0 0.0199(4) 
Mg1 Mg2+ 4 e 0.01886(12) 0.17115(7) 0.76322(16) 1 0 0.0082(2) 
P1 P5+ 4 e 0.75454(9) 0.08170(5) 0.27092(12) 1 0 0.00751(19) 
O1 O2- 4 e 0.5429(2) 0.12366(16) 0.2405(3) 1 0 0.0143(5) 
O2 O2- 4 e 0.8905(3) 0.17177(16) 0.1317(4) 1 0 0.0143(5) 
O3 O2- 4 e 0.8051(3) 0.07394(15) 0.5700(4) 1 0 0.0126(5) 
O4 O2- 4 e 0.7828(3) 0.95910(14) 0.1428(3) 1 0 0.0119(5) 
F1 F1- 4 e 0.1990(2) 0.28708(13) 0.9647(3) 1 0 0.0137(4) 

loop_
_atom_site_aniso_label
_atom_site_aniso_type_symbol
_atom_site_aniso_U_11
_atom_site_aniso_U_22
_atom_site_aniso_U_33
_atom_site_aniso_U_12
_atom_site_aniso_U_13
_atom_site_aniso_U_23
Li1 Li1+ 0.0089(19) 0.007(2) 0.0041(19) 0.0000(13) 0.001(2) -0.0031(12)
Na1 Na1+ 0.0203(6) 0.0204(7) 0.0189(7) -0.0026(4) 0.0013(8) -0.0003(6)
Mg1 Mg2+ 0.0091(4) 0.0089(5) 0.0066(4) 0.0001(3) -0.0004(5) 0.0009(4)
P1 P5+ 0.0070(3) 0.0076(3) 0.0079(3) -0.0004(2) 0.0004(4) 0.00062(18)
O1 O2- 0.0100(8) 0.0145(9) 0.0184(9) 0.0014(7) 0.0003(9) -0.0015(7)
O2 O2- 0.0176(9) 0.0152(9) 0.0102(9) -0.0056(7) 0.0038(7) 0.0003(7)
O3 O2- 0.0136(9) 0.0166(9) 0.0076(9) -0.0017(7) 0.0007(8) 0.0000(6)
O4 O2- 0.0132(8) 0.0118(8) 0.0106(8) 0.0009(7) -0.0003(7) -0.0013(7)
F1 F1- 0.0132(7) 0.0179(8) 0.0100(7) -0.0028(6) 0.0026(6) -0.0034(5)
#End of data_426199-ICSD


