data_16646-ICSD
#?2014 by Fachinformationszentrum Karlsruhe, and the U.S. Secretary of 
#Commerce on behalf of the United States.  All rights reserved.
_database_code_ICSD                16646
_audit_creation_date               1980/01/01
_audit_update_record               2008/02/01
_chemical_name_systematic          'Disodium Duo-disulfate(IV)'
_chemical_formula_structural       'Na2 (S2 O4)'
_chemical_formula_sum              'Na2 O4 S2'
_publ_section_title
;
The structure of sodium dithionite and the nature of the dithionite 
ion
;
loop_
_citation_id
_citation_journal_abbrev
_citation_year
_citation_journal_volume
_citation_page_first
_citation_page_last
_citation_journal_id_ASTM
primary 'Acta Crystallographica (1,1948-23,1967)' 1956 9 579 586 ACCRA9
_publ_author_name                  'Dunitz, J.D.'
_cell_length_a                     6.404(5)
_cell_length_b                     6.559(3)
_cell_length_c                     6.586(6)
_cell_angle_alpha                  90.
_cell_angle_beta                   119.51(1)
_cell_angle_gamma                  90.
_cell_volume                       240.75
_cell_formula_units_Z              2
_symmetry_space_group_name_H-M     'P 1 2/c 1'
_symmetry_Int_Tables_number        13
_refine_ls_R_factor_all            .26
loop_
_symmetry_equiv_pos_site_id
_symmetry_equiv_pos_as_xyz
  1	'x, -y, z+.5'
  2	'-x, -y, -z'
  3	'-x, y, -z+.5'
  4	'x, y, z'
loop_
_atom_type_symbol
_atom_type_oxidation_number
Na1+	1
O2-	-2
S3+	3
loop_
_atom_site_label
_atom_site_type_symbol
_atom_site_symmetry_multiplicity
_atom_site_Wyckoff_symbol
_atom_site_fract_x
_atom_site_fract_y
_atom_site_fract_z
_atom_site_occupancy
_atom_site_attached_hydrogens
S1 S3+ 4 g 0.1887 0.3443 -.074 1. 0 
Na1 Na1+ 4 g 0.2626 -.149 -.025 1. 0 
O1 O2- 4 g 0.3153 0.193 -.145 1. 0 
O2 O2- 4 g 0.1153 0.2375 0.0856 1. 0 

#End of data_16646-ICSD


