data_89903-ICSD
#?2014 by Fachinformationszentrum Karlsruhe, and the U.S. Secretary of 
#Commerce on behalf of the United States.  All rights reserved.
_database_code_ICSD                89903
_audit_creation_date               2002/04/01
_chemical_name_systematic          'Lithium Triantimonate'
_chemical_formula_structural       'Li (Sb3 O8)'
_chemical_formula_sum              'Li1 O8 Sb3'
_publ_section_title
;
Li Sb3 O8: the first tetrarutile structure
;
loop_
_citation_id
_citation_journal_abbrev
_citation_year
_citation_journal_volume
_citation_page_first
_citation_page_last
_citation_journal_id_ASTM
primary 'ChemComm - Chemical Communications' 2000 2000 1951 1952 CHCOFS
_publ_author_name
;
Lopes, M.E.;Kirk, C.A.;Blake, S.M.;Marr, J.;West, A.R.
;
_cell_length_a                     10.2578(9)
_cell_length_b                     4.7063(3)
_cell_length_c                     5.6017(5)
_cell_angle_alpha                  90.
_cell_angle_beta                   96.467(7)
_cell_angle_gamma                  90.
_cell_volume                       268.71
_cell_formula_units_Z              2
_symmetry_space_group_name_H-M     'P 1 21/a 1'
_symmetry_Int_Tables_number        14
_refine_ls_R_factor_all            .078
loop_
_symmetry_equiv_pos_site_id
_symmetry_equiv_pos_as_xyz
  1	'x+.5, -y+.5, z'
  2	'-x, -y, -z'
  3	'-x+.5, y+.5, -z'
  4	'x, y, z'
loop_
_atom_type_symbol
_atom_type_oxidation_number
Li1+	1
O2-	-2
Sb5+	5
loop_
_atom_site_label
_atom_site_type_symbol
_atom_site_symmetry_multiplicity
_atom_site_Wyckoff_symbol
_atom_site_fract_x
_atom_site_fract_y
_atom_site_fract_z
_atom_site_occupancy
_atom_site_attached_hydrogens
_atom_site_U_iso_or_equiv
Sb1 Sb5+ 4 e 0.25108(7) 0.52020(2) 0.2375(1) 1. 0 0.0133(2) 
Sb2 Sb5+ 2 b 0.5 0 0.5 1. 0 0.0134(3) 
O1 O2- 4 e 0.3266(7) 0.226(2) 0.477(2) 1. 0 0.016(2) 
O2 O2- 4 e 0.4210(7) 0.709(2) 0.276(2) 1. 0 0.008(2) 
O3 O2- 4 e 0.8264(7) 0.192(2) -.013(2) 1. 0 0.010(2) 
O4 O2- 4 e 0.5799(7) 0.174(1) 0.230(2) 1. 0 0.013(2) 
Li1 Li1+ 2 a 0 0 0 1. 0 0.025(2) 

#End of data_89903-ICSD


