data_94912-ICSD
#?2014 by Fachinformationszentrum Karlsruhe, and the U.S. Secretary of 
#Commerce on behalf of the United States.  All rights reserved.
_database_code_ICSD                94912
_audit_creation_date               2003/10/01
_audit_update_record               2008/02/01
_chemical_name_systematic
;
Tristrontium Calcium Diruthenate(V)
;
_chemical_formula_structural       'Sr3 Ca (Ru2 O9)'
_chemical_formula_sum              'Ca1 O9 Ru2 Sr3'
_publ_section_title
;
Site and oxidation-state specificity yielding dimensional control in 
perovskite ruthenates
;
loop_
_citation_id
_citation_journal_abbrev
_citation_year
_citation_journal_volume
_citation_journal_issue
_citation_page_first
_citation_page_last
_citation_journal_id_ASTM
primary 'Journal of the American Chemical Society' 2002 124 10 2090 2091 JACSAT
_publ_author_name
;
Rijssenbeek, J.T.;Malo, S.;Caignaert, V.;Poeppelmeier, K.R.
;
_cell_length_a                     17.1540(5)
_cell_length_b                     5.6891(2)
_cell_length_c                     9.8627(3)
_cell_angle_alpha                  90
_cell_angle_beta                   125.0(1)
_cell_angle_gamma                  90
_cell_volume                       788.44
_cell_formula_units_Z              4
_symmetry_space_group_name_H-M     'P 1 21/c 1'
_symmetry_Int_Tables_number        14
_refine_ls_R_factor_all            .0432
loop_
_symmetry_equiv_pos_site_id
_symmetry_equiv_pos_as_xyz
  1	'x, -y+.5, z+.5'
  2	'-x, -y, -z'
  3	'-x, y+.5, -z+.5'
  4	'x, y, z'
loop_
_atom_type_symbol
_atom_type_oxidation_number
Ca2+	2
O2-	-2
Ru5+	5
Sr2+	2
loop_
_atom_site_label
_atom_site_type_symbol
_atom_site_symmetry_multiplicity
_atom_site_Wyckoff_symbol
_atom_site_fract_x
_atom_site_fract_y
_atom_site_fract_z
_atom_site_occupancy
_atom_site_attached_hydrogens
_atom_site_B_iso_or_equiv
Sr1 Sr2+ 4 e 0.2460(9) 0.5136(16) 0.7410(11) 1. 0 0.59(5) 
Sr2 Sr2+ 4 e 0.4159(7) 0.0363(18) 0.0815(13) 1. 0 0.59(5) 
Sr3 Sr2+ 4 e 0.9135(6) 0.5238(19) 0.0819(14) 1. 0 0.59(5) 
Ca1 Ca2+ 2 a 0 0.5 0.5 1. 0 1.23(20) 
Ca2 Ca2+ 2 d 0.5 0 0.5 1. 0 1.23(20) 
Ru1 Ru5+ 4 e 0.1676(7) 0.0075(19) 0.8330(14) 1. 0 0.03(5) 
Ru2 Ru5+ 4 e 0.3263(7) 0.5026(18) 0.1539(13) 1. 0 0.03(5) 
O1 O2- 4 e 0.0748(7) 0.4916(18) 0.3759(13) 1. 0 0.610(34) 
O2 O2- 4 e 0.0963(6) 0.8025(19) 0.6473(13) 1. 0 0.610(34) 
O3 O2- 4 e 0.1089(6) 0.2574(21) 0.6931(14) 1. 0 0.610(34) 
O4 O2- 4 e 0.2715(8) -0.0193(20) 0.7902(15) 1. 0 0.610(34) 
O5 O2- 4 e 0.2508(8) 0.2252(22) 0.0258(12) 1. 0 0.610(34) 
O6 O2- 4 e 0.2263(7) 0.7908(24) 0.4870(14) 1. 0 0.610(34) 
O7 O2- 4 e 0.4063(6) 0.7717(22) 0.2832(12) 1. 0 0.610(34) 
O8 O2- 4 e 0.3857(6) 0.4972(20) 0.0395(13) 1. 0 0.610(34) 
O9 O2- 4 e 0.4295(8) 0.2061(18) 0.8202(13) 1. 0 0.610(34) 

#End of data_94912-ICSD


