data_279612-ICSD
#?2014 by Fachinformationszentrum Karlsruhe, and the U.S. Secretary of 
#Commerce on behalf of the United States.  All rights reserved.
_database_code_ICSD                279612
_audit_creation_date               2002/10/01
_chemical_name_systematic
;
Tripotassium Lanthanum Bis(tetraselenophosphate(V))
;
_chemical_formula_structural       'K3 La (P Se4)2'
_chemical_formula_sum              'K3 La1 P2 Se8'
_publ_section_title
;
Selenophosphate phase diagrams developed in conjunction with the 
synthesis of the new compounds K2 La (P2 Se6)1/2 (P Se4), K3 La (P 
Se4)2, K4 La0.67 (P Se4)2, K9-x La1+x/3 (P Se4)4 (x = 0.5), and K Eu 
P Se4
;
loop_
_citation_id
_citation_journal_abbrev
_citation_year
_citation_journal_volume
_citation_page_first
_citation_page_last
_citation_journal_id_ASTM
primary 'Inorganic Chemistry' 2001 40 2875 2883 INOCAJ
_publ_author_name                  'Evenson, C.R.IV.;Dorhout, P.K.'
_cell_length_a                     9.5782(2)
_cell_length_b                     17.66229(40)
_cell_length_c                     9.9869(3)
_cell_angle_alpha                  90.
_cell_angle_beta                   90.120(1)
_cell_angle_gamma                  90.
_cell_volume                       1689.51
_cell_formula_units_Z              4
_symmetry_space_group_name_H-M     'P 1 21/c 1'
_symmetry_Int_Tables_number        14
_refine_ls_R_factor_all            .0773
loop_
_symmetry_equiv_pos_site_id
_symmetry_equiv_pos_as_xyz
  1	'x, -y+.5, z+.5'
  2	'-x, -y, -z'
  3	'-x, y+.5, -z+.5'
  4	'x, y, z'
loop_
_atom_type_symbol
_atom_type_oxidation_number
K1+	1
La3+	3
P5+	5
Se2-	-2
loop_
_atom_site_label
_atom_site_type_symbol
_atom_site_symmetry_multiplicity
_atom_site_Wyckoff_symbol
_atom_site_fract_x
_atom_site_fract_y
_atom_site_fract_z
_atom_site_occupancy
_atom_site_attached_hydrogens
La1 La3+ 4 e 0.22660(5) 0.01380(3) 0.97044(5) 1. 0 
Se1 Se2- 4 e -.03654(10) 0.12681(6) 0.96812(10) 1. 0 
Se2 Se2- 4 e 0.05666(11) 0.01861(6) 0.25576(10) 1. 0 
Se3 Se2- 4 e 0.53781(10) 0.02463(5) 0.81926(9) 1. 0 
Se4 Se2- 4 e 0.30881(10) -.13195(6) 0.82260(11) 1. 0 
Se5 Se2- 4 e 0.21718(10) 0.11665(6) 0.71832(10) 1. 0 
Se6 Se2- 4 e -.12783(11) 0.18152(6) 0.63084(11) 1. 0 
Se7 Se2- 4 e 0.57089(11) -.12595(6) 0.56803(10) 1. 0 
Se8 Se2- 4 e 0.33250(11) 0.16110(5) 0.09106(10) 1. 0 
K1 K1+ 4 e 0.1195(3) 0.20579(15) 0.3727(3) 1. 0 
P1 P5+ 4 e 0.5251(2) -.09907(14) 0.7750(2) 1. 0 
K2 K1+ 4 e 0.3826(3) -.28555(15) 0.6259(3) 1. 0 
P2 P5+ 4 e -.0077(3) 0.10356(14) 0.7507(2) 1. 0 
K3 K1+ 4 e 0.2699(2) -.03230(14) 0.5138(2) 1. 0 

loop_
_atom_site_aniso_label
_atom_site_aniso_type_symbol
_atom_site_aniso_U_11
_atom_site_aniso_U_22
_atom_site_aniso_U_33
_atom_site_aniso_U_12
_atom_site_aniso_U_13
_atom_site_aniso_U_23
La1 La3+ 0.0200(3) 0.0134(3) 0.0164(3) -.0001(2) 0.0098(2) -.0007(2)
Se1 Se2- 0.0245(5) 0.0224(5) 0.0179(5) -.0051(4) 0.0108(4) -.0042(4)
Se2 Se2- 0.0363(6) 0.0137(5) 0.0211(5) 0.0012(4) 0.0103(4) -.0002(4)
Se3 Se2- 0.0223(5) 0.0129(5) 0.0212(5) -.0005(4) 0.0067(4) 0.0006(4)
Se4 Se2- 0.0221(5) 0.0187(5) 0.0332(6) -.0051(4) 0.0162(4) -.0074(4)
Se5 Se2- 0.0211(5) 0.0339(6) 0.0190(5) -.0025(4) 0.0105(4) 0.0027(4)
Se6 Se2- 0.0345(6) 0.0211(6) 0.0281(6) 0.0064(4) 0.0038(4) 0.0082(4)
Se7 Se2- 0.0319(5) 0.0270(6) 0.0156(5) -.0010(4) 0.0123(4) -.0046(4)
Se8 Se2- 0.0355(6) 0.0127(5) 0.0249(5) 0.0031(4) 0.0008(4) 0.0001(4)
K1 K1+ 0.0404(14) 0.0242(13) 0.063(2) 0.0056(11) 0.0212(13) -.0016(13)
P1 P5+ 0.0192(12) 0.0161(12) 0.0146(12) -.0020(9) 0.0074(9) -.0021(9)
K2 K1+ 0.071(2) 0.0243(14) 0.045(2) -.0118(13) 0.0317(14) -.0115(12)
P2 P5+ 0.0213(12) 0.0162(12) 0.0135(12) 0.0007(9) 0.0071(9) 0.0005(9)
K3 K1+ 0.0360(13) 0.0289(13) 0.0285(12) -.0016(10) -.0016(10) 0.000(1)
#End of data_279612-ICSD


