data_408552-ICSD
#?2014 by Fachinformationszentrum Karlsruhe, and the U.S. Secretary of 
#Commerce on behalf of the United States.  All rights reserved.
_database_code_ICSD                408552
_audit_creation_date               1999/06/02
_audit_update_record               2009/08/01
_chemical_name_systematic
;
Dipotassium Lithium Hexafluoroaluminate - Ht
;
_chemical_formula_structural       'K2 Li (Al F6)'
_chemical_formula_sum              'Al1 F6 K2 Li1'
_chemical_name_mineral             'Elpasolite, lithian'
_publ_section_title
;
Roentgenstrukturuntersuchungen an den polymorphen Elpasolithen K2 Li 
Al F6 und Rb2 Li Ga F6
;
loop_
_citation_id
_citation_journal_abbrev
_citation_year
_citation_journal_volume
_citation_page_first
_citation_page_last
_citation_journal_id_ASTM
primary 'Zeitschrift fuer Anorganische und Allgemeine Chemie (1950) (DE)'
 1998 624 1460 1464 ZAACAB
2 'Golden Book of Phase Transitions, Wroclaw' 2002 1 1 123 GBOPT5
_publ_author_name                  'Graulich, J.;Drueeke, S.;Babel, D.'
_cell_length_a                     5.617(1)
_cell_length_b                     5.617(1)
_cell_length_c                     27.5760(60)
_cell_angle_alpha                  90.
_cell_angle_beta                   90.
_cell_angle_gamma                  120.
_cell_volume                       753.48
_cell_formula_units_Z              6
_symmetry_space_group_name_H-M     'R -3 m H'
_symmetry_Int_Tables_number        166
_refine_ls_R_factor_all            .0453
loop_
_symmetry_equiv_pos_site_id
_symmetry_equiv_pos_as_xyz
  1	'x-y, -y, -z'
  2	'-x, -x+y, -z'
  3	'y, x, -z'
  4	'x-y, x, -z'
  5	'y, -x+y, -z'
  6	'-x, -y, -z'
  7	'-x+y, y, z'
  8	'x, x-y, z'
  9	'-y, -x, z'
 10	'-x+y, -x, z'
 11	'-y, x-y, z'
 12	'x, y, z'
 13	'x-y+.6666, -y+.3333, -z+.3333'
 14	'x-y+.3333, -y+.6666, -z+.6666'
 15	'-x+.6666, -x+y+.3333, -z+.3333'
 16	'-x+.3333, -x+y+.6666, -z+.6666'
 17	'y+.6666, x+.3333, -z+.3333'
 18	'y+.3333, x+.6666, -z+.6666'
 19	'x-y+.6666, x+.3333, -z+.3333'
 20	'x-y+.3333, x+.6666, -z+.6666'
 21	'y+.6666, -x+y+.3333, -z+.3333'
 22	'y+.3333, -x+y+.6666, -z+.6666'
 23	'-x+.6666, -y+.3333, -z+.3333'
 24	'-x+.3333, -y+.6666, -z+.6666'
 25	'-x+y+.6666, y+.3333, z+.3333'
 26	'-x+y+.3333, y+.6666, z+.6666'
 27	'x+.6666, x-y+.3333, z+.3333'
 28	'x+.3333, x-y+.6666, z+.6666'
 29	'-y+.6666, -x+.3333, z+.3333'
 30	'-y+.3333, -x+.6666, z+.6666'
 31	'-x+y+.6666, -x+.3333, z+.3333'
 32	'-x+y+.3333, -x+.6666, z+.6666'
 33	'-y+.6666, x-y+.3333, z+.3333'
 34	'-y+.3333, x-y+.6666, z+.6666'
 35	'x+.6666, y+.3333, z+.3333'
 36	'x+.3333, y+.6666, z+.6666'
loop_
_atom_type_symbol
_atom_type_oxidation_number
Al3+	3
F1-	-1
K1+	1
Li1+	1
loop_
_atom_site_label
_atom_site_type_symbol
_atom_site_symmetry_multiplicity
_atom_site_Wyckoff_symbol
_atom_site_fract_x
_atom_site_fract_y
_atom_site_fract_z
_atom_site_occupancy
_atom_site_attached_hydrogens
K1 K1+ 6 c 0 0 0.12775(3) 1. 0 
K2 K1+ 6 c 0 0 0.28057(4) 1. 0 
Al1 Al3+ 3 a 0 0 0 1. 0 
Al2 Al3+ 3 b 0 0 0.5 1. 0 
F1 F1- 18 h 0.14805(15) 0.85195(15) 0.46102(5) 1. 0 
F2 F1- 18 h 0.18051(15) 0.81949(15) 0.62911(5) 1. 0 
Li1 Li1+ 6 c 0 0 0.4025(3) 1. 0 

loop_
_atom_site_aniso_label
_atom_site_aniso_type_symbol
_atom_site_aniso_U_11
_atom_site_aniso_U_22
_atom_site_aniso_U_33
_atom_site_aniso_U_12
_atom_site_aniso_U_13
_atom_site_aniso_U_23
K1 K1+ 0.0136(3) 0.0136(3) 0.0159(5) 0.0068(2) 0 0
K2 K1+ 0.0139(3) 0.0139(3) 0.0185(5) 0.0069(2) 0 0
Al1 Al3+ 0.0069(5) 0.0069(5) 0.0085(8) 0.0035(3) 0 0
Al2 Al3+ 0.0091(6) 0.0091(6) 0.0085(8) 0.0045(3) 0 0
F1 F1- 0.0153(6) 0.0153(6) 0.0145(6) 0.0092(6) 0.0021(3) -.0021(3)
F2 F1- 0.0151(6) 0.0151(6) 0.0163(6) 0.0092(6) -.0029(3) 0.0029(3)
Li1 Li1+ 0.015(3) 0.015(3) 0.021(4) 0.0076(13) 0 0
#End of data_408552-ICSD


