data_248116-ICSD
#?2014 by Fachinformationszentrum Karlsruhe, and the U.S. Secretary of 
#Commerce on behalf of the United States.  All rights reserved.
_database_code_ICSD                248116
_audit_creation_date               2010/08/01
_chemical_name_systematic          'Lithium Arsenic Diselenide - Beta'
_chemical_formula_structural       'Li As Se2'
_chemical_formula_sum              'As1 Li1 Se2'
_publ_section_title
;
Soluble semiconductors A As Se2 (A = Li, Na) with a direct - band - 
gap and strong second harmonic generation: A combined experimental 
and theoretical study
;
loop_
_citation_id
_citation_journal_abbrev
_citation_year
_citation_journal_volume
_citation_journal_issue
_citation_page_first
_citation_page_last
_citation_journal_id_ASTM
primary 'Journal of the American Chemical Society' 2010 132 10 3484 3495 JACSAT
_publ_author_name
;
Bera, T.K.;Jang, J.-I.;Song Jungh Wan;Malliakas, C.D.;Freeman, 
A.J.;Ketterson, J.B.;Kanatzidis, M.G.
;
_cell_length_a                     12.2872(14)
_cell_length_b                     5.5419(7)
_cell_length_c                     5.5533(6)
_cell_angle_alpha                  90.00
_cell_angle_beta                   113.117(8)
_cell_angle_gamma                  90.00
_cell_volume                       347.79
_cell_formula_units_Z              4
_symmetry_space_group_name_H-M     'C 1 c 1'
_symmetry_Int_Tables_number        9
_refine_ls_R_factor_all            .0237
loop_
_symmetry_equiv_pos_site_id
_symmetry_equiv_pos_as_xyz
  1	'x, -y, z+.5'
  2	'x, y, z'
  3	'x+.5, -y+.5, z+.5'
  4	'x+.5, y+.5, z'
loop_
_atom_type_symbol
_atom_type_oxidation_number
As3+	3
Li1+	1
Se2-	-2
loop_
_atom_site_label
_atom_site_type_symbol
_atom_site_symmetry_multiplicity
_atom_site_Wyckoff_symbol
_atom_site_fract_x
_atom_site_fract_y
_atom_site_fract_z
_atom_site_occupancy
_atom_site_attached_hydrogens
_atom_site_U_iso_or_equiv
As1 As3+ 4 a 0.78451(6) 0.78261(18) 0.33549(13) 1 0 0.0033(2) 
Se1 Se2- 4 a 0.74415(5) 0.78369(13) 0.73604(9) 1 0 0.00264(17) 
Se2 Se2- 4 a 0.98992(6) 0.76364(16) 0.49276(10) 1 0 0.00347(14) 
Li1 Li1+ 4 a 0.0000(14) 0.741(3) 1.001(3) 1 0 0.015(2) 

loop_
_atom_site_aniso_label
_atom_site_aniso_type_symbol
_atom_site_aniso_U_11
_atom_site_aniso_U_22
_atom_site_aniso_U_33
_atom_site_aniso_U_12
_atom_site_aniso_U_13
_atom_site_aniso_U_23
As1 As3+ 0.0029(2) 0.0045(5) 0.0023(2) 0.0000(3) 0.00095(17) -0.0001(4)
Se1 Se2- 0.0039(2) 0.0016(4) 0.00306(19) -0.0005(4) 0.00207(16) 0.0001(4)
Se2 Se2- 0.0034(2) 0.0030(3) 0.0040(2) 0.0013(3) 0.00152(16) 0.0007(3)
#End of data_248116-ICSD


