data_153801-ICSD
#?2014 by Fachinformationszentrum Karlsruhe, and the U.S. Secretary of 
#Commerce on behalf of the United States.  All rights reserved.
_database_code_ICSD                153801
_audit_creation_date               2007/04/01
_chemical_name_systematic          'Dicalcium Ruthenate(IV)'
_chemical_formula_structural       'Ca2 (Ru O4)'
_chemical_formula_sum              'Ca2 O4 Ru1'
_publ_section_title
;
High-pressure diffraction studies on Ca2 Ru O4
;
loop_
_citation_id
_citation_journal_abbrev
_citation_year
_citation_journal_volume
_citation_page_first
_citation_page_last
_citation_journal_id_ASTM
primary 'Physical Review, Serie 3. B - Condensed Matter (18,1978-)'
 2005 72 094104-1 094104-7 PRBMDO
_publ_author_name
;
Steffens, P.;Friedt, O.;Alireza, P.;Marshall, W.G.;Schmidt, 
W.;Nakamura, F.;Nakatsuji, S.;Maeno, Y.;Lengsdorf, R.;Abd-Elmeguid, 
M.M.;Braden, M.
;
_cell_length_a                     5.3312(6)
_cell_length_b                     5.3160(6)
_cell_length_c                     12.2923(8)
_cell_angle_alpha                  90.
_cell_angle_beta                   90.
_cell_angle_gamma                  90.
_cell_volume                       348.37
_cell_formula_units_Z              4
_symmetry_space_group_name_H-M     'P b c a'
_symmetry_Int_Tables_number        61
_refine_ls_R_factor_all            .027
loop_
_symmetry_equiv_pos_site_id
_symmetry_equiv_pos_as_xyz
  1	'x+.5, y, -z+.5'
  2	'x, -y+.5, z+.5'
  3	'-x+.5, y+.5, z'
  4	'-x, -y, -z'
  5	'-x+.5, -y, z+.5'
  6	'-x, y+.5, -z+.5'
  7	'x+.5, -y+.5, -z'
  8	'x, y, z'
loop_
_atom_type_symbol
_atom_type_oxidation_number
Ca2+	2
O2-	-2
Ru4+	4
loop_
_atom_site_label
_atom_site_type_symbol
_atom_site_symmetry_multiplicity
_atom_site_Wyckoff_symbol
_atom_site_fract_x
_atom_site_fract_y
_atom_site_fract_z
_atom_site_occupancy
_atom_site_attached_hydrogens
_atom_site_U_iso_or_equiv
Ca1 Ca2+ 8 c 0.0116(13) 0.0289(15) 0.3473(4) 1. 0 0.0107(11) 
Ru1 Ru4+ 4 a 0 0 0 1. 0 0.0011(7) 
O1 O2- 8 c 0.1909(4) 0.3094(4) 0.0134(4) 1. 0 0.0077(8) 
O2 O2- 8 c -0.0385(8) -0.0116(12) 0.1662(3) 1. 0 0.0092(10) 

#End of data_153801-ICSD


