data_240364-ICSD
#?2014 by Fachinformationszentrum Karlsruhe, and the U.S. Secretary of 
#Commerce on behalf of the United States.  All rights reserved.
_database_code_ICSD                240364
_audit_creation_date               2007/04/01
_audit_update_record               2012/02/01
_chemical_name_systematic
;
Tripotassium Gadolinium Octathioarsenate(V)
;
_chemical_formula_structural       'K3 Gd As2 S8'
_chemical_formula_sum              'As2 Gd1 K3 S8'
_publ_section_title
;
K3Ln(AsS4)2 (Ln = Nd, Sm, Gd): the First Rare Earth Thioarsenate 
Compounds with Infinite Straight [Ln(AsS4)2]3- Chains
;
loop_
_citation_id
_citation_journal_abbrev
_citation_year
_citation_journal_volume
_citation_journal_issue
_citation_page_first
_citation_page_last
_citation_journal_id_ASTM
primary 'Inorganic Chemistry' 2006 45 22 8835 8837 INOCAJ
_publ_author_name                  'Wu, Y.;Naether, C.;Bensch, W.'
_cell_length_a                     10.3484(7)
_cell_length_b                     18.8039(14)
_cell_length_c                     8.8238(6)
_cell_angle_alpha                  90.00
_cell_angle_beta                   117.063(7)
_cell_angle_gamma                  90.00
_cell_volume                       1529.02
_cell_formula_units_Z              4
_symmetry_space_group_name_H-M     'C 1 2/c 1'
_symmetry_Int_Tables_number        15
_refine_ls_R_factor_all            .045
loop_
_symmetry_equiv_pos_site_id
_symmetry_equiv_pos_as_xyz
  1	'x, -y, z+.5'
  2	'-x, -y, -z'
  3	'-x, y, -z+.5'
  4	'x, y, z'
  5	'x+.5, -y+.5, z+.5'
  6	'-x+.5, -y+.5, -z'
  7	'-x+.5, y+.5, -z+.5'
  8	'x+.5, y+.5, z'
loop_
_atom_type_symbol
_atom_type_oxidation_number
As5+	5
Gd3+	3
K1+	1
S2-	-2
loop_
_atom_site_label
_atom_site_type_symbol
_atom_site_symmetry_multiplicity
_atom_site_Wyckoff_symbol
_atom_site_fract_x
_atom_site_fract_y
_atom_site_fract_z
_atom_site_occupancy
_atom_site_attached_hydrogens
_atom_site_U_iso_or_equiv
Gd1 Gd3+ 4 e 0.5000 0.256850(19) 0.2500 1 0 0.00971(13) 
As1 As5+ 8 f 0.21808(6) 0.12331(3) 0.10273(7) 1 0 0.01053(16) 
K1 K1+ 4 e 0.5000 0.50538(11) 0.2500 1 0 0.0209(4) 
K2 K1+ 4 b 0.5000 0.0000 0.0000 1 0 0.0414(7) 
K3 K1+ 4 e 0.5000 0.23639(12) -0.2500 1 0 0.0269(4) 
S1 S2- 8 f 0.25359(16) 0.01159(8) 0.12729(19) 1 0 0.0165(3) 
S2 S2- 8 f 0.51315(14) 0.35570(8) 0.02024(18) 1 0 0.0137(3) 
S3 S2- 8 f 0.20056(15) 0.32741(8) 0.05986(18) 1 0 0.0147(3) 
S4 S2- 8 f 0.68181(16) 0.17677(8) 0.15285(18) 1 0 0.0188(3) 

loop_
_atom_site_aniso_label
_atom_site_aniso_type_symbol
_atom_site_aniso_U_11
_atom_site_aniso_U_22
_atom_site_aniso_U_33
_atom_site_aniso_U_12
_atom_site_aniso_U_13
_atom_site_aniso_U_23
Gd1 Gd3+ 0.00755(19) 0.0119(2) 0.0082(2) 0.000 0.00228(15) 0.000
As1 As5+ 0.0076(3) 0.0117(3) 0.0096(3) -0.00192(18) 0.0015(2) 0.00100(19)
K1 K1+ 0.0164(8) 0.0295(10) 0.0153(9) 0.000 0.0058(7) 0.000
K2 K1+ 0.0175(10) 0.090(2) 0.0148(10) -0.0027(11) 0.0060(9) -0.0093(11)
K3 K1+ 0.0330(11) 0.0314(10) 0.0216(10) 0.000 0.0171(10) 0.000
S1 S2- 0.0148(7) 0.0135(6) 0.0175(7) 0.0018(5) 0.0041(6) 0.0030(5)
S2 S2- 0.0069(6) 0.0163(6) 0.0157(7) -0.0004(5) 0.0031(5) 0.0034(5)
S3 S2- 0.0125(6) 0.0196(7) 0.0127(6) -0.0037(5) 0.0065(6) -0.0006(5)
S4 S2- 0.0176(7) 0.0270(8) 0.0093(6) 0.0107(6) 0.0039(6) 0.0031(6)
#End of data_240364-ICSD


