data_2411-ICSD
#?2014 by Fachinformationszentrum Karlsruhe, and the U.S. Secretary of 
#Commerce on behalf of the United States.  All rights reserved.
_database_code_ICSD                2411
_audit_creation_date               1980/01/01
_audit_update_record               2012/08/01
_chemical_name_systematic          'Nonasilver Gallium Selenide - Beta'
_chemical_formula_structural       'Ag9 Ga Se6'
_chemical_formula_sum              'Ag9 Ga1 Se6'
_publ_section_title
;
Structure cristalline de la phase Ag9 Ga Se6-beta
;
loop_
_citation_id
_citation_journal_abbrev
_citation_year
_citation_journal_volume
_citation_page_first
_citation_page_last
_citation_journal_id_ASTM
primary 'Acta Crystallographica B (24,1968-38,1982)' 1978 34 3189 3193 ACBCAR
2 'Phase Transition' 1992 38 127 220 PHTRDP
_publ_author_name
;
Deloume, J.P.;Faure, R.;Loiseleur, H.;Roubin, M.
;
_cell_length_a                     11.126(2)
_cell_length_b                     11.126(2)
_cell_length_c                     11.126(2)
_cell_angle_alpha                  90.
_cell_angle_beta                   90.
_cell_angle_gamma                  90.
_cell_volume                       1377.26
_cell_formula_units_Z              4
_symmetry_space_group_name_H-M     'P 21 3'
_symmetry_Int_Tables_number        198
_refine_ls_R_factor_all            .044
loop_
_symmetry_equiv_pos_site_id
_symmetry_equiv_pos_as_xyz
  1	'-z+.5, -x, y+.5'
  2	'-y+.5, -z, x+.5'
  3	'-x+.5, -y, z+.5'
  4	'-z, x+.5, -y+.5'
  5	'-y, z+.5, -x+.5'
  6	'-x, y+.5, -z+.5'
  7	'z+.5, -x+.5, -y'
  8	'y+.5, -z+.5, -x'
  9	'x+.5, -y+.5, -z'
 10	'z, x, y'
 11	'y, z, x'
 12	'x, y, z'
loop_
_atom_type_symbol
_atom_type_oxidation_number
Ag1+	1
Ga3+	3
Se2-	-2
loop_
_atom_site_label
_atom_site_type_symbol
_atom_site_symmetry_multiplicity
_atom_site_Wyckoff_symbol
_atom_site_fract_x
_atom_site_fract_y
_atom_site_fract_z
_atom_site_occupancy
_atom_site_attached_hydrogens
Ga1 Ga3+ 4 a 0.5080(4) 0.5080(4) 0.5080(4) 1. 0 
Se1 Se2- 4 a 0.0192(4) 0.0192(4) 0.0192(4) 1. 0 
Se2 Se2- 4 a 0.6304(4) 0.6304(4) 0.6304(4) 1. 0 
Se3 Se2- 4 a 0.2628(3) 0.2628(3) 0.2628(3) 1. 0 
Se4 Se2- 12 b 0.3975(4) 0.6232(4) 0.3672(4) 1. 0 
Ag1 Ag1+ 12 b -.1727(3) 0.0697(4) 0.1378(3) 1. 0 
Ag2 Ag1+ 12 b 0.2272(4) 0.2308(4) 0.0313(3) 1. 0 
Ag3 Ag1+ 12 b -.1692(3) 0.0349(3) -.1466(4) 1. 0 

#End of data_2411-ICSD


