data_419509-ICSD
#?2014 by Fachinformationszentrum Karlsruhe, and the U.S. Secretary of 
#Commerce on behalf of the United States.  All rights reserved.
_database_code_ICSD                419509
_audit_creation_date               2009/08/01
_audit_update_record               2013/02/01
_chemical_name_systematic
;
Potassium Vanadium(III) Tetrafluoride
;
_chemical_formula_structural       'K V F4'
_chemical_formula_sum              'F4 K1 V1'
_publ_section_title
;
Crystallisation of some mixed Na/V and K/V fluorides by solvothermal 
methods
;
loop_
_citation_id
_citation_journal_abbrev
_citation_year
_citation_journal_volume
_citation_journal_issue
_citation_page_first
_citation_page_last
_citation_journal_id_ASTM
primary 'Solid State Sciences' 2009 11 2 315 319 SSSCFJ
_publ_author_name                  'Aldous, D.W.;Lightfoot, P.'
_cell_length_a                     7.5908(11)
_cell_length_b                     7.7439(11)
_cell_length_c                     12.2825(17)
_cell_angle_alpha                  90.00
_cell_angle_beta                   90.00
_cell_angle_gamma                  90.00
_cell_volume                       721.99
_cell_formula_units_Z              8
_symmetry_space_group_name_H-M     'P m c n'
_symmetry_Int_Tables_number        62
_refine_ls_R_factor_all            .0303
loop_
_symmetry_equiv_pos_site_id
_symmetry_equiv_pos_as_xyz
  1	'x, -y+.5, z+.5'
  2	'-x+.5, y, z'
  3	'x+.5, y+.5, -z+.5'
  4	'-x, -y, -z'
  5	'-x, y+.5, -z+.5'
  6	'x+.5, -y, -z'
  7	'-x+.5, -y+.5, z+.5'
  8	'x, y, z'
loop_
_atom_type_symbol
_atom_type_oxidation_number
F1-	-1
K1+	1
V3+	3
loop_
_atom_site_label
_atom_site_type_symbol
_atom_site_symmetry_multiplicity
_atom_site_Wyckoff_symbol
_atom_site_fract_x
_atom_site_fract_y
_atom_site_fract_z
_atom_site_occupancy
_atom_site_attached_hydrogens
_atom_site_U_iso_or_equiv
V1 V3+ 8 d 0.00057(5) 0.12544(7) 0.25148(3) 1 0 0.0010(2) 
K1 K1+ 4 c 0.2500 0.37372(12) 0.02512(7) 1 0 0.0061(3) 
K2 K1+ 4 c 0.2500 0.87460(12) 0.01398(7) 1 0 0.0053(3) 
F1 F1- 8 d 0.0492(2) 0.1171(2) 0.10159(12) 1 0 0.0063(4) 
F2 F1- 8 d -0.0465(2) 0.1339(2) 0.40167(12) 1 0 0.0063(4) 
F3 F1- 4 c -0.2500 0.1654(3) 0.21710(18) 1 0 0.0053(5) 
F4 F1- 4 c 0.2500 0.0858(3) 0.28702(18) 1 0 0.0064(5) 
F5 F1- 8 d -0.0440(3) -0.1245(2) 0.25247(11) 1 0 0.0081(4) 

loop_
_atom_site_aniso_label
_atom_site_aniso_type_symbol
_atom_site_aniso_U_11
_atom_site_aniso_U_22
_atom_site_aniso_U_33
_atom_site_aniso_U_12
_atom_site_aniso_U_13
_atom_site_aniso_U_23
V1 V3+ 0.0010(4) 0.0010(3) 0.0018(3) 0.00001(14) 0.00037(15) 0.00021(13)
K1 K1+ 0.0047(5) 0.0045(5) 0.0093(5) 0.000 0.000 0.0009(4)
K2 K1+ 0.0036(4) 0.0043(5) 0.0080(4) 0.000 0.000 -0.0004(4)
F1 F1- 0.0060(9) 0.0092(8) 0.0037(8) -0.0006(7) 0.0005(6) -0.0004(7)
F2 F1- 0.0059(8) 0.0086(8) 0.0044(8) 0.0019(7) 0.0002(6) 0.0000(7)
F3 F1- 0.0026(8) 0.0060(8) 0.0072(8) 0.000 0.000 0.0009(7)
F4 F1- 0.0039(8) 0.0071(9) 0.0081(8) 0.000 0.000 0.0010(7)
F5 F1- 0.0081(7) 0.0037(7) 0.0124(7) -0.0001(6) -0.0013(5) -0.0003(5)
#End of data_419509-ICSD


