data_75582-ICSD
#?2014 by Fachinformationszentrum Karlsruhe, and the U.S. Secretary of 
#Commerce on behalf of the United States.  All rights reserved.
_database_code_ICSD                75582
_audit_creation_date               1996/04/22
_chemical_name_systematic
;
Trisodium Yttrium Catena-hexasilicate
;
_chemical_formula_structural       'Na3 Y (Si6 O15)'
_chemical_formula_sum              'Na3 O15 Si6 Y1'
_publ_section_title
;
Preparation et affinement de la structure d'un silicate a double 
chaines d'yttrium et de trisodium
;
loop_
_citation_id
_citation_journal_abbrev
_citation_year
_citation_journal_volume
_citation_journal_issue
_citation_page_first
_citation_page_last
_citation_journal_id_ASTM
primary 'Materials Research Bulletin' 1994 29 29 427 436 MRBUAC
_publ_author_name                  'Bourguiba, N.F.;Dogguy Smiri, L.'
_cell_length_a                     14.744(8)
_cell_length_b                     17.8440(80)
_cell_length_c                     10.610(3)
_cell_angle_alpha                  90.
_cell_angle_beta                   90.
_cell_angle_gamma                  90.
_cell_volume                       2791.41
_cell_formula_units_Z              8
_symmetry_space_group_name_H-M     'C m c a'
_symmetry_Int_Tables_number        64
_refine_ls_R_factor_all            .048
loop_
_symmetry_equiv_pos_site_id
_symmetry_equiv_pos_as_xyz
  1	'-x, -y+.5, z+.5'
  2	'-x, y+.5, -z+.5'
  3	'-x, y, z'
  4	'-x, -y, -z'
  5	'x, y+.5, -z+.5'
  6	'x, -y+.5, z+.5'
  7	'x, -y, -z'
  8	'x, y, z'
  9	'-x+.5, -y, z+.5'
 10	'-x+.5, y, -z+.5'
 11	'-x+.5, y+.5, z'
 12	'-x+.5, -y+.5, -z'
 13	'x+.5, y, -z+.5'
 14	'x+.5, -y, z+.5'
 15	'x+.5, -y+.5, -z'
 16	'x+.5, y+.5, z'
loop_
_atom_type_symbol
_atom_type_oxidation_number
Na1+	1
O2-	-2
Si4+	4
Y3+	3
loop_
_atom_site_label
_atom_site_type_symbol
_atom_site_symmetry_multiplicity
_atom_site_Wyckoff_symbol
_atom_site_fract_x
_atom_site_fract_y
_atom_site_fract_z
_atom_site_occupancy
_atom_site_attached_hydrogens
Y1 Y3+ 8 e 0.25 0.0894 0.75 1. 0 
Si1 Si4+ 16 g 0.1100(1) 0.0822(1) 0.1995(1) 1. 0 
Si2 Si4+ 16 g 0.1072(1) 0.1905(1) 0.9664(2) 1. 0 
Si3 Si4+ 16 g 0.1075(1) 0.1352(1) 0.4790(1) 1. 0 
Na1 Na1+ 8 f 0 0.4258(2) 0.2470(6) 1. 0 
Na2 Na1+ 8 d 0.2382(3) 0.5 0.5 1. 0 
Na3 Na1+ 8 e 0.25 0.2233(2) 0.25 1. 0 
O1 O2- 8 f 0 0.0734(3) 0.2020(5) 1. 0 
O2 O2- 8 f 0 0.1131(3) 0.4892(5) 1. 0 
O3 O2- 16 g 0.3587(3) 0.1403(2) 0.4114(4) 1. 0 
O4 O2- 8 f 0 0.1702(3) 0.9402(5) 1. 0 
O5 O2- 16 g 0.3461(3) 0.5020(2) 0.1800(4) 1. 0 
O6 O2- 16 g 0.1630(3) 0.4142(2) 0.0768(3) 1. 0 
O7 O2- 16 g 0.1177(3) 0.2762(2) 0.0125(4) 1. 0 
O8 O2- 16 g 0.1413 0.1242(2) 0.3320(4) 1. 0 
O9 O2- 16 g 0.1640(3) 0.3247(2) 0.3413(3) 1. 0 

#End of data_75582-ICSD


