data_85073-ICSD
#?2014 by Fachinformationszentrum Karlsruhe, and the U.S. Secretary of 
#Commerce on behalf of the United States.  All rights reserved.
_database_code_ICSD                85073
_audit_creation_date               1999/06/02
_chemical_name_systematic
;
Calcium Bis(hydrogensulfate(VI)) Bis(dihydrogensulfate(VI))
;
_chemical_formula_structural       'Ca ((H S O4)2 (H2 S O4)2)'
_chemical_formula_sum              'H6 Ca1 O16 S4'
_publ_section_title
;
Die Kristallstruktur des Calciumhydrogensulfat-Dihydrogensulfats - 
ein neuer Strukturtyp fuer schwefelsaure Hydrogensulfate
;
loop_
_citation_id
_citation_journal_abbrev
_citation_year
_citation_journal_volume
_citation_page_first
_citation_page_last
_citation_journal_id_ASTM
primary 'Zeitschrift fuer Anorganische und Allgemeine Chemie (1950) (DE)'
 1989 576 179 185 ZAACAB
_publ_author_name
;
Kemnitz, E.;Hass, D.;Worzala, H.;Troyanov, S.I.;Rybakov, V.B.
;
_cell_length_a                     5.336(3)
_cell_length_b                     7.864(2)
_cell_length_c                     8.231(2)
_cell_angle_alpha                  88.66(3)
_cell_angle_beta                   74.37(4)
_cell_angle_gamma                  79.18(4)
_cell_volume                       326.57
_cell_formula_units_Z              1
_symmetry_space_group_name_H-M     'P -1'
_symmetry_Int_Tables_number        2
_refine_ls_R_factor_all            .032
loop_
_symmetry_equiv_pos_site_id
_symmetry_equiv_pos_as_xyz
  1	'-x, -y, -z'
  2	'x, y, z'
loop_
_atom_type_symbol
_atom_type_oxidation_number
Ca2+	2
H1+	1
O2-	-2
S6+	6
loop_
_atom_site_label
_atom_site_type_symbol
_atom_site_symmetry_multiplicity
_atom_site_Wyckoff_symbol
_atom_site_fract_x
_atom_site_fract_y
_atom_site_fract_z
_atom_site_occupancy
_atom_site_attached_hydrogens
_atom_site_B_iso_or_equiv
Ca1 Ca2+ 1 a 0 0 0 1. 0 0.61(1) 
S1 S6+ 2 i 0.4648(1) 0.82311(9) 0.24569(9) 1. 0 0.65(1) 
S2 S6+ 2 i 0.0703(1) 0.34149(9) 0.26235(9) 1. 0 0.79(1) 
O1 O2- 2 i 0.5121(4) 0.3628(3) 0.7261(3) 1. 0 0.87(4) 
O2 O2- 2 i 0.2864(4) -.0941(3) 0.4159(3) 1. 0 1.21(4) 
O3 O2- 2 i 0.2825(4) 0.1228(3) 0.7841(3) 1. 0 1.00(4) 
O4 O2- 2 i 0.3338(4) 0.8744(3) 0.1154(3) 1. 0 1.22(4) 
O5 O2- 2 i -.0384(4) 0.2461(3) 0.1606(3) 1. 0 1.25(4) 
O6 O2- 2 i 0.7606(4) 0.7551(3) 0.6462(3) 1. 0 1.25(4) 
O7 O2- 2 i 0.1503(4) 0.5432(3) 0.6098(3) 1. 0 1.20(4) 
O8 O2- 2 i 0.7838(4) 0.5368(3) 0.8591(3) 1. 0 1.42(4) 
H1 H1+ 2 i 0.258(9) 0.512(6) 0.191(6) 1. 0 3.(4) 
H2 H1+ 2 i 0.770(1) 0.521(7) 0.354(7) 1. 0 3.(4) 
H3 H1+ 2 i 0.266(8) 0.017(5) 0.407(6) 1. 0 3.(4) 

#End of data_85073-ICSD


