data_78388-ICSD
#?2014 by Fachinformationszentrum Karlsruhe, and the U.S. Secretary of 
#Commerce on behalf of the United States.  All rights reserved.
_database_code_ICSD                78388
_audit_creation_date               1996/04/22
_audit_update_record               2010/02/01
_chemical_name_systematic          'Disilver Selenate(IV)'
_chemical_formula_structural       'Ag2 (Se O3)'
_chemical_formula_sum              'Ag2 O3 Se1'
_publ_section_title
;
Crystal structure and thermal stability of silver selenite
;
loop_
_citation_id
_citation_journal_abbrev
_citation_year
_citation_journal_volume
_citation_page_first
_citation_page_last
_citation_journal_id_ASTM
primary 'Acta Chemica Scandinavica (43,1989-)' 1994 48 857 860 ACHSE7
_publ_author_name
;
Okkonen, P.;Hiltunen, L.;Koskenlinna, M.;Niinisto, L.
;
_cell_length_a                     4.854(1)
_cell_length_b                     10.332(3)
_cell_length_c                     6.956(2)
_cell_angle_alpha                  90.
_cell_angle_beta                   91.13(2)
_cell_angle_gamma                  90.
_cell_volume                       348.79
_cell_formula_units_Z              4
_symmetry_space_group_name_H-M     'P 1 21/c 1'
_symmetry_Int_Tables_number        14
_refine_ls_R_factor_all            .0585
loop_
_symmetry_equiv_pos_site_id
_symmetry_equiv_pos_as_xyz
  1	'x, -y+.5, z+.5'
  2	'-x, -y, -z'
  3	'-x, y+.5, -z+.5'
  4	'x, y, z'
loop_
_atom_type_symbol
_atom_type_oxidation_number
Ag1+	1
O2-	-2
Se4+	4
loop_
_atom_site_label
_atom_site_type_symbol
_atom_site_symmetry_multiplicity
_atom_site_Wyckoff_symbol
_atom_site_fract_x
_atom_site_fract_y
_atom_site_fract_z
_atom_site_occupancy
_atom_site_attached_hydrogens
_atom_site_B_iso_or_equiv
Ag1 Ag1+ 4 e 0.2616(2) 0.2519(1) 0.0916(2) 1. 0 2.17 
Ag2 Ag1+ 4 e 0.2526(2) 0.5837(1) 0.6357(1) 1. 0 2.04 
Se1 Se4+ 4 e 0.7398(3) 0.4083(1) 0.8358(2) 1. 0 1.35 
O1 O2- 4 e 0.3891(19) 0.3948(8) 0.8505(12) 1. 0 1.68 
O2 O2- 4 e 0.7623(21) 0.5371(9) 0.6864(14) 1. 0 2.34 
O3 O2- 4 e 0.7965(20) 0.2871(8) 0.6770(13) 1. 0 1.77 

#End of data_78388-ICSD


