data_28543-ICSD
#?2014 by Fachinformationszentrum Karlsruhe, and the U.S. Secretary of 
#Commerce on behalf of the United States.  All rights reserved.
_database_code_ICSD                28543
_audit_creation_date               1980/01/01
_audit_update_record               2009/02/01
_chemical_name_systematic
;
Disodium Zirconium Closo-tetrasilicate
;
_chemical_formula_structural       'Na2 Zr (Si4 O11)'
_chemical_formula_sum              'Na2 O11 Si4 Zr1'
_chemical_name_mineral             'Vlasovite 1M'
_publ_section_title                'The crystal structure of vlasovite'
loop_
_citation_id
_citation_journal_abbrev
_citation_year
_citation_journal_volume
_citation_page_first
_citation_page_last
_citation_journal_id_ASTM
primary Kristallografiya 1961 6 937 943 KRISAJ
2 'Doklady Akademii Nauk SSSR' 1961 141 958 961 DANKAS
3 'Soviet Physics, Crystallography (= Kristallografiya)'
 1961 6 755 760 SPHCA6
_publ_author_name                  'Voronkov, A.A.;Pyatenko, Yu.A.'
_cell_length_a                     10.98(4)
_cell_length_b                     10.00(4)
_cell_length_c                     8.52(3)
_cell_angle_alpha                  90.
_cell_angle_beta                   100.4
_cell_angle_gamma                  90.
_cell_volume                       920.13
_cell_formula_units_Z              4
_symmetry_space_group_name_H-M     'C 1 2/c 1'
_symmetry_Int_Tables_number        15
_refine_ls_R_factor_all            .167
loop_
_symmetry_equiv_pos_site_id
_symmetry_equiv_pos_as_xyz
  1	'x, -y, z+.5'
  2	'-x, -y, -z'
  3	'-x, y, -z+.5'
  4	'x, y, z'
  5	'x+.5, -y+.5, z+.5'
  6	'-x+.5, -y+.5, -z'
  7	'-x+.5, y+.5, -z+.5'
  8	'x+.5, y+.5, z'
loop_
_atom_type_symbol
_atom_type_oxidation_number
Na1+	1
O2-	-2
Si4+	4
Zr4+	4
loop_
_atom_site_label
_atom_site_type_symbol
_atom_site_symmetry_multiplicity
_atom_site_Wyckoff_symbol
_atom_site_fract_x
_atom_site_fract_y
_atom_site_fract_z
_atom_site_occupancy
_atom_site_attached_hydrogens
Na1 Na1+ 4 e 0 0.081 0.75 1. 0 
Na2 Na1+ 4 e 0 0.412 0.75 1. 0 
Zr1 Zr4+ 4 c 0.25 0.25 0 1. 0 
Si1 Si4+ 8 f 0.265 0.072 0.638 1. 0 
Si2 Si4+ 8 f 0.049 0.216 0.431 1. 0 
O1 O2- 4 e 0 0.166 0.25 1. 0 
O2 O2- 8 f 0.147 0.103 0.504 1. 0 
O3 O2- 8 f 0.111 0.358 0.418 1. 0 
O4 O2- 8 f 0.054 0.239 0.965 1. 0 
O5 O2- 8 f 0.243 0.137 0.8 1. 0 
O6 O2- 8 f 0.296 0.088 0.158 1. 0 

#End of data_28543-ICSD


