data_414128-ICSD
#?2014 by Fachinformationszentrum Karlsruhe, and the U.S. Secretary of 
#Commerce on behalf of the United States.  All rights reserved.
_database_code_ICSD                414128
_audit_creation_date               2005/10/01
_chemical_name_systematic
;
Heptasodium Cobalt Cobalt(III) Oxide
;
_chemical_formula_structural       'Na7 (Co O3)2'
_chemical_formula_sum              'Co2 Na7 O6'
_publ_section_title
;
Unusual charge distribution in Na7(CoO3)2
;
loop_
_citation_id
_citation_journal_abbrev
_citation_year
_citation_journal_volume
_citation_page_first
_citation_page_last
_citation_journal_id_ASTM
primary 'Solid State Sciences' 2004 6 1163 1168 SSSCFJ
_publ_author_name                  'Sofin, M.;Peters, E.M.;Jansen, M.'
_cell_length_a                     14.5109(12)
_cell_length_b                     5.7837(5)
_cell_length_c                     10.5712(9)
_cell_angle_alpha                  90.00
_cell_angle_beta                   104.986(2)
_cell_angle_gamma                  90.00
_cell_volume                       857.03
_cell_formula_units_Z              4
_symmetry_space_group_name_H-M     'C 1 2/c 1'
_symmetry_Int_Tables_number        15
_refine_ls_R_factor_all            .0657
loop_
_symmetry_equiv_pos_site_id
_symmetry_equiv_pos_as_xyz
  1	'x, -y, z+.5'
  2	'-x, -y, -z'
  3	'-x, y, -z+.5'
  4	'x, y, z'
  5	'x+.5, -y+.5, z+.5'
  6	'-x+.5, -y+.5, -z'
  7	'-x+.5, y+.5, -z+.5'
  8	'x+.5, y+.5, z'
loop_
_atom_type_symbol
_atom_type_oxidation_number
Co2.5+	2.5
Na1+	1
O2-	-2
loop_
_atom_site_label
_atom_site_type_symbol
_atom_site_symmetry_multiplicity
_atom_site_Wyckoff_symbol
_atom_site_fract_x
_atom_site_fract_y
_atom_site_fract_z
_atom_site_occupancy
_atom_site_attached_hydrogens
_atom_site_U_iso_or_equiv
Co1 Co2.5+ 8 f 0.62379(3) 0.38596(9) 0.03864(5) 1 0 0.00600(13) 
Na1 Na1+ 4 e 0.5000 0.4293(4) 0.2500 1 0 0.0107(4) 
Na2 Na1+ 8 f 0.72433(13) 0.5330(3) 0.30552(17) 1 0 0.0129(3) 
Na3 Na1+ 8 f 0.44004(11) 0.8642(3) 0.34875(16) 1 0 0.0087(3) 
Na4 Na1+ 8 f 0.66677(11) -0.0949(3) -0.09491(15) 1 0 0.0090(3) 
O1 O2- 8 f 0.5960(2) 0.2686(5) -0.1241(3) 1 0 0.0100(5) 
O2 O2- 8 f 0.6208(2) 0.2269(5) 0.1873(3) 1 0 0.0094(5) 
O3 O2- 8 f 0.6737(2) 0.6732(5) 0.0814(3) 1 0 0.0092(5) 

loop_
_atom_site_aniso_label
_atom_site_aniso_type_symbol
_atom_site_aniso_U_11
_atom_site_aniso_U_22
_atom_site_aniso_U_33
_atom_site_aniso_U_12
_atom_site_aniso_U_13
_atom_site_aniso_U_23
Co1 Co2.5+ 0.0064(2) 0.0066(2) 0.0050(2) 0.00023(16) 0.00160(14) 
-0.00009(16)
Na1 Na1+ 0.0111(10) 0.0068(9) 0.0133(10) 0.000 0.0017(8) 0.000
Na2 Na1+ 0.0153(8) 0.0164(8) 0.0083(7) -0.0046(6) 0.0054(6) -0.0028(6)
Na3 Na1+ 0.0086(6) 0.0080(7) 0.0103(7) 0.0011(5) 0.0036(5) 0.0009(5)
Na4 Na1+ 0.0091(6) 0.0093(7) 0.0083(6) 0.0029(5) 0.0014(5) 0.0004(5)
O1 O2- 0.0119(12) 0.0102(12) 0.0092(12) 0.0032(9) 0.0050(9) 0.0017(9)
O2 O2- 0.0130(12) 0.0078(11) 0.0089(12) -0.0008(9) 0.0057(9) 0.0007(9)
O3 O2- 0.0115(11) 0.0078(11) 0.0103(11) 0.0021(9) 0.0067(9) 0.0030(9)
#End of data_414128-ICSD


