data_421091-ICSD
#?2014 by Fachinformationszentrum Karlsruhe, and the U.S. Secretary of 
#Commerce on behalf of the United States.  All rights reserved.
_database_code_ICSD                421091
_audit_creation_date               2010/08/01
_chemical_name_systematic          'Cesium Disilver Thioarsenate(III)'
_chemical_formula_structural       'Cs Ag2 (As S3)'
_chemical_formula_sum              'Ag2 As1 Cs1 S3'
_publ_section_title
;
Syntheses and characterization of a series of silver-
thioantimonates(III) and thioarsenates(III) containing two types of 
silver-sulfur chains
;
loop_
_citation_id
_citation_journal_abbrev
_citation_year
_citation_journal_volume
_citation_journal_issue
_citation_page_first
_citation_page_last
_citation_journal_id_ASTM
primary 'Inorganic Chemistry' 2010 49 3 1186 1190 INOCAJ
_publ_author_name
;
Yao Huagang;Zhou Peng;Ji Shouhua;Zhang Renchun;Ji Min;An Yonglin;Ning 
Guiling
;
_cell_length_a                     10.0357(16)
_cell_length_b                     8.3893(11)
_cell_length_c                     9.2176(14)
_cell_angle_alpha                  90.00
_cell_angle_beta                   107.034(5)
_cell_angle_gamma                  90.00
_cell_volume                       742.01
_cell_formula_units_Z              4
_symmetry_space_group_name_H-M     'P 1 21/c 1'
_symmetry_Int_Tables_number        14
_refine_ls_R_factor_all            .077
loop_
_symmetry_equiv_pos_site_id
_symmetry_equiv_pos_as_xyz
  1	'x, -y+.5, z+.5'
  2	'-x, -y, -z'
  3	'-x, y+.5, -z+.5'
  4	'x, y, z'
loop_
_atom_type_symbol
_atom_type_oxidation_number
Ag1+	1
As3+	3
Cs1+	1
S2-	-2
loop_
_atom_site_label
_atom_site_type_symbol
_atom_site_symmetry_multiplicity
_atom_site_Wyckoff_symbol
_atom_site_fract_x
_atom_site_fract_y
_atom_site_fract_z
_atom_site_occupancy
_atom_site_attached_hydrogens
_atom_site_U_iso_or_equiv
Cs1 Cs1+ 4 e 0.0828(2) 0.0685(2) 0.7537(3) 1 0 0.0231(14) 
Ag1 Ag1+ 4 e -0.3238(3) 0.0203(4) 0.7872(4) 1 0 0.0253(15) 
As1 As3+ 4 e 0.3455(3) -0.1300(4) 0.5559(4) 1 0 0.0139(15) 
Ag2 Ag1+ 4 e 0.4472(3) 0.2391(4) 1.0616(4) 1 0 0.0305(15) 
S1 S2- 4 e 0.2450(9) 0.0957(10) 0.4349(10) 1 0 0.018(2) 
S2 S2- 4 e -0.1634(8) 0.2254(11) 0.9360(12) 1 0 0.020(2) 
S3 S2- 4 e 0.4321(10) -0.0179(10) 0.7891(12) 1 0 0.021(2) 

loop_
_atom_site_aniso_label
_atom_site_aniso_type_symbol
_atom_site_aniso_U_11
_atom_site_aniso_U_22
_atom_site_aniso_U_33
_atom_site_aniso_U_12
_atom_site_aniso_U_13
_atom_site_aniso_U_23
Cs1 Cs1+ 0.025(2) 0.018(2) 0.028(2) 0.0008(8) 0.0110(14) -0.0069(9)
Ag1 Ag1+ 0.034(2) 0.022(2) 0.022(2) -0.0059(11) 0.0117(16) -0.0043(12)
As1 As3+ 0.020(2) 0.011(2) 0.016(2) 0.0007(12) 0.0131(17) -0.0014(12)
Ag2 Ag1+ 0.033(2) 0.023(2) 0.036(3) 0.0039(12) 0.0121(18) 0.0125(13)
S1 S2- 0.028(5) 0.010(4) 0.011(4) 0.000(3) 0.001(4) 0.001(3)
S2 S2- 0.014(4) 0.018(4) 0.028(5) -0.002(3) 0.007(4) -0.010(4)
S3 S2- 0.028(5) 0.013(4) 0.020(5) 0.004(3) 0.004(4) 0.003(3)
#End of data_421091-ICSD


