data_203131-ICSD
#?2014 by Fachinformationszentrum Karlsruhe, and the U.S. Secretary of 
#Commerce on behalf of the United States.  All rights reserved.
_database_code_ICSD                203131
_audit_creation_date               1990/12/27
_audit_update_record               1998/06/26
_chemical_name_systematic          'Calcium Zirconium Disilicate'
_chemical_formula_structural       'Ca Zr (Si2 O7)'
_chemical_formula_sum              'Ca1 O7 Si2 Zr1'
_chemical_name_mineral             Gittinsite
_publ_section_title
;
Gittinsite: A Modification of the Thortveitite Structure
;
loop_
_citation_id
_citation_journal_abbrev
_citation_year
_citation_journal_volume
_citation_page_first
_citation_page_last
_citation_journal_id_ASTM
primary 'Canadian Mineralogist' 1989 27 703 708 CAMIA6
_publ_author_name                  'Roelofsen-Ahl, J.N.;Peterson, R.C.'
_cell_length_a                     6.852(2)
_cell_length_b                     8.659(1)
_cell_length_c                     4.686(2)
_cell_angle_alpha                  90.
_cell_angle_beta                   101.69(2)
_cell_angle_gamma                  90.
_cell_volume                       272.26
_cell_formula_units_Z              2
_symmetry_space_group_name_H-M     'C 1 2 1'
_symmetry_Int_Tables_number        5
_refine_ls_R_factor_all            .031
loop_
_symmetry_equiv_pos_site_id
_symmetry_equiv_pos_as_xyz
  1	'-x, y, -z'
  2	'x, y, z'
  3	'-x+.5, y+.5, -z'
  4	'x+.5, y+.5, z'
loop_
_atom_type_symbol
_atom_type_oxidation_number
Ca2+	2
O2-	-2
Si4+	4
Zr4+	4
loop_
_atom_site_label
_atom_site_type_symbol
_atom_site_symmetry_multiplicity
_atom_site_Wyckoff_symbol
_atom_site_fract_x
_atom_site_fract_y
_atom_site_fract_z
_atom_site_occupancy
_atom_site_attached_hydrogens
Zr1 Zr4+ 2 b 0 0.3140(2) 0.5 1. 0 
Ca1 Ca2+ 2 b 0 0.7063(2) 0.5 1. 0 
Si1 Si4+ 4 c 0.2123(2) 0.9920(2) 0.9187(4) 1. 0 
O1 O2- 2 a 0 0.9387(9) 0 1. 0 
O2 O2- 4 c 0.3734(6) 0 0.2196(10) 1. 0 
O3 O2- 4 c 0.1885(8) 0.1549(6) 0.7405(11) 1. 0 
O4 O2- 4 c 0.2640(7) 0.8539(5) 0.7103 1. 0 

loop_
_atom_site_aniso_label
_atom_site_aniso_type_symbol
_atom_site_aniso_U_11
_atom_site_aniso_U_22
_atom_site_aniso_U_33
_atom_site_aniso_U_12
_atom_site_aniso_U_13
_atom_site_aniso_U_23
Zr1 Zr4+ 0.0103(2) 0.0099(4) 0.0096(3) 0 0.0015(5) 0
Ca1 Ca2+ 0.0179(9) 0.0104(8) 0.027(1) 0 -.014(2) 0
Si1 Si4+ 0.0128(7) 0.0126(8) 0.0086(7) 0.002(1) -.001(1) -.001(2)
O1 O2- 0.013(2) 0.029(4) 0.027(4) 0 0.007(6) 0
O2 O2- 0.016(2) 0.016(2) 0.012(2) 0.001(3) -.008(3) 0.002(6)
O3 O2- 0.030(2) 0.012(2) 0.015(2) 0.001(6) -.006(5) 0.001(4)
O4 O2- 0.021(2) 0.016(4) 0.013(2) -.004(3) 0.005(5) -.009(4)
#End of data_203131-ICSD


