data_2042-ICSD
#?2014 by Fachinformationszentrum Karlsruhe, and the U.S. Secretary of 
#Commerce on behalf of the United States.  All rights reserved.
_database_code_ICSD                2042
_audit_creation_date               1980/01/01
_audit_update_record               2011/02/01
_chemical_name_systematic
;
Tripotassium Hexacyanomanganate(III)
;
_chemical_formula_structural       'K3 (Mn (C N)6)'
_chemical_formula_sum              'C6 K3 Mn1 N6'
_publ_section_title
;
The crystal structure of twinned monoclinic potassium manganicyanide  
K3 Mn (C N)6
;
loop_
_citation_id
_citation_journal_abbrev
_citation_year
_citation_journal_volume
_citation_page_first
_citation_page_last
_citation_journal_id_ASTM
primary 'Acta Crystallographica B (24,1968-38,1982)' 1974 30 656 661 ACBCAR
_publ_author_name
;
Gupta, M.P.;Milledge, H.J.;McCarthy, A.E.
;
_cell_length_a                     7.09(9)
_cell_length_b                     10.49(7)
_cell_length_c                     8.46(6)
_cell_angle_alpha                  90.
_cell_angle_beta                   107.6(2)
_cell_angle_gamma                  90.
_cell_volume                       599.75
_cell_formula_units_Z              2
_symmetry_space_group_name_H-M     'P 1 21/c 1'
_symmetry_Int_Tables_number        14
_refine_ls_R_factor_all            .1193
loop_
_symmetry_equiv_pos_site_id
_symmetry_equiv_pos_as_xyz
  1	'x, -y+.5, z+.5'
  2	'-x, -y, -z'
  3	'-x, y+.5, -z+.5'
  4	'x, y, z'
loop_
_atom_type_symbol
_atom_type_oxidation_number
C2+	2
K1+	1
Mn3+	3
N3-	-3
loop_
_atom_site_label
_atom_site_type_symbol
_atom_site_symmetry_multiplicity
_atom_site_Wyckoff_symbol
_atom_site_fract_x
_atom_site_fract_y
_atom_site_fract_z
_atom_site_occupancy
_atom_site_attached_hydrogens
_atom_site_B_iso_or_equiv
Mn1 Mn3+ 2 a 0 0 0 1. 0 2.89 
K1 K1+ 2 c 0 0 0.5 1. 0 2.85 
K2 K1+ 4 e 0.49790(53) 0.27158(38) -.12626(50) 1. 0 2.98 
C1 C2+ 4 e 0.1220(24) 0.1730(17) 0.0288(23) 1. 0 2.94 
C2 C2+ 4 e 0.1888(25) -0.0518(17) -0.1167(23) 1. 0 2.99 
C3 C2+ 4 e 0.1921(24) -0.0542(16) 0.2164(23) 1. 0 2.77 
N1 N3- 4 e 0.2049(20) 0.2678(14) 0.0537(18) 1. 0 3.02 
N2 N3- 4 e 0.2952(21) -0.0848(14) -0.1910(20) 1. 0 3.16 
N3 N3- 4 e 0.2985(21) -0.0858(14) 0.3446(19) 1. 0 3.8 

#End of data_2042-ICSD


