data_10286-ICSD
#?2014 by Fachinformationszentrum Karlsruhe, and the U.S. Secretary of 
#Commerce on behalf of the United States.  All rights reserved.
_database_code_ICSD                10286
_audit_creation_date               1980/01/01
_audit_update_record               2012/02/01
_chemical_name_systematic
;
Calcium Catena-pentafluorochromate(III)
;
_chemical_formula_structural       'Ca (Cr F5)'
_chemical_formula_sum              'Ca1 Cr1 F5'
_publ_section_title
;
Refinement of the crystal structure of Ca Cr F5
;
loop_
_citation_id
_citation_journal_abbrev
_citation_year
_citation_journal_volume
_citation_page_first
_citation_page_last
_citation_journal_id_ASTM
primary 'Materials Research Bulletin' 1973 8 593 598 MRBUAC
2 'Materials Research Bulletin' 1971 6 561 561 MRBUAC
_publ_author_name                  'Wu, K.K.;Brown, I.D.'
_cell_length_a                     9.005(5)
_cell_length_b                     6.472(5)
_cell_length_c                     7.533(5)
_cell_angle_alpha                  90.
_cell_angle_beta                   115.85(10)
_cell_angle_gamma                  90.
_cell_volume                       395.1
_cell_formula_units_Z              4
_symmetry_space_group_name_H-M     'C 1 2/c 1'
_symmetry_Int_Tables_number        15
_refine_ls_R_factor_all            .114
loop_
_symmetry_equiv_pos_site_id
_symmetry_equiv_pos_as_xyz
  1	'x, -y, z+.5'
  2	'-x, -y, -z'
  3	'-x, y, -z+.5'
  4	'x, y, z'
  5	'x+.5, -y+.5, z+.5'
  6	'-x+.5, -y+.5, -z'
  7	'-x+.5, y+.5, -z+.5'
  8	'x+.5, y+.5, z'
loop_
_atom_type_symbol
_atom_type_oxidation_number
Ca2+	2
Cr3+	3
F1-	-1
loop_
_atom_site_label
_atom_site_type_symbol
_atom_site_symmetry_multiplicity
_atom_site_Wyckoff_symbol
_atom_site_fract_x
_atom_site_fract_y
_atom_site_fract_z
_atom_site_occupancy
_atom_site_attached_hydrogens
Ca1 Ca2+ 4 e 0.5 0.0426(4) 0.25 1. 0 
Cr1 Cr3+ 4 a 0 0 0 1. 0 
F1 F1- 4 e 0 -.0721(15) 0.25 1. 0 
F2 F1- 8 f 0.0097(10) -.2934(9) -.0291(10) 1. 0 
F3 F1- 8 f -.2273(12) -.0230(13) -.1174(12) 1. 0 

loop_
_atom_site_aniso_label
_atom_site_aniso_type_symbol
_atom_site_aniso_U_11
_atom_site_aniso_U_22
_atom_site_aniso_U_33
_atom_site_aniso_U_12
_atom_site_aniso_U_13
_atom_site_aniso_U_23
Ca1 Ca2+ 0.0102(21) 0.0011(13) 0.0084(14) 0 0.0092(13) 0
Cr1 Cr3+ 0.0171(18) 0.0014(11) 0.0069(12) 0.0005(10) 0.0105(10) 0.0006(8)
F1 F1- 0.0148(66) 0.0183(46) 0.0074(45) 0 0.0101(42) 0
F2 F1- 0.0163(48) 0.0093(31) 0.0107(35) -0.0001(27) 0.0010(31) -0.0005(22)
F3 F1- 0.0372(62) 0.0305(43) 0.0239(37) 0.0033(4) 0.0142(40) -0.0057(34)
#End of data_10286-ICSD


