data_86102-ICSD
#?2014 by Fachinformationszentrum Karlsruhe, and the U.S. Secretary of 
#Commerce on behalf of the United States.  All rights reserved.
_database_code_ICSD                86102
_audit_creation_date               1999/11/30
_audit_update_record               2011/02/01
_chemical_name_systematic          'Magnesium Divanadate(IV)'
_chemical_formula_structural       'Mg (V2 O5)'
_chemical_formula_sum              'Mg1 O5 V2'
_publ_section_title
;
Crystal structure and electronic states of the low-dimensional S = 
1/2 system Mg V2 O5
;
loop_
_citation_id
_citation_journal_abbrev
_citation_year
_citation_journal_volume
_citation_page_first
_citation_page_last
_citation_journal_id_ASTM
primary 'Journal of Physics: Condensed Matter' 1998 10 1229 1236 JCOMEL
_publ_author_name                  'Onoda, M.;Ohyama, A.'
_cell_length_a                     3.692(1)
_cell_length_b                     9.971(1)
_cell_length_c                     11.018(1)
_cell_angle_alpha                  90.
_cell_angle_beta                   90.
_cell_angle_gamma                  90.
_cell_volume                       405.6
_cell_formula_units_Z              4
_symmetry_space_group_name_H-M     'C m c m'
_symmetry_Int_Tables_number        63
_refine_ls_R_factor_all            .038
loop_
_symmetry_equiv_pos_site_id
_symmetry_equiv_pos_as_xyz
  1	'-x, y, -z+.5'
  2	'-x, -y, z+.5'
  3	'-x, y, z'
  4	'-x, -y, -z'
  5	'x, -y, z+.5'
  6	'x, y, -z+.5'
  7	'x, -y, -z'
  8	'x, y, z'
  9	'-x+.5, y+.5, -z+.5'
 10	'-x+.5, -y+.5, z+.5'
 11	'-x+.5, y+.5, z'
 12	'-x+.5, -y+.5, -z'
 13	'x+.5, -y+.5, z+.5'
 14	'x+.5, y+.5, -z+.5'
 15	'x+.5, -y+.5, -z'
 16	'x+.5, y+.5, z'
loop_
_atom_type_symbol
_atom_type_oxidation_number
Mg2+	2
O2-	-2
V4+	4
loop_
_atom_site_label
_atom_site_type_symbol
_atom_site_symmetry_multiplicity
_atom_site_Wyckoff_symbol
_atom_site_fract_x
_atom_site_fract_y
_atom_site_fract_z
_atom_site_occupancy
_atom_site_attached_hydrogens
V1 V4+ 8 f 0 0.20194(4) 0.09700(4) 1. 0 
Mg1 Mg2+ 4 c 0 0.1132(1) 0.75 1. 0 
O1 O2- 8 f 0 0.0432(2) 0.1275(2) 1. 0 
O2 O2- 8 f 0 0.2358(2) -.0792(1) 1. 0 
O3 O2- 4 c 0 0.3044(3) 0.25 1. 0 

loop_
_atom_site_aniso_label
_atom_site_aniso_type_symbol
_atom_site_aniso_U_11
_atom_site_aniso_U_22
_atom_site_aniso_U_33
_atom_site_aniso_U_12
_atom_site_aniso_U_13
_atom_site_aniso_U_23
V1 V4+ 0.0065(1) 0.0064(1) 0.00448(9) 0 0 0.0001(1)
Mg1 Mg2+ 0.0079(5) 0.0071(5) 0.0092(5) 0 0 0
O1 O2- 0.027(1) 0.0080(7) 0.0103(7) 0 0 0.0016(6)
O2 O2- 0.0066(6) 0.0118(7) 0.0055(6) 0 0 -.0003(5)
O3 O2- 0.0078(8) 0.0064(8) 0.0062(7) 0 0 0
#End of data_86102-ICSD


