data_155113-ICSD
#?2014 by Fachinformationszentrum Karlsruhe, and the U.S. Secretary of 
#Commerce on behalf of the United States.  All rights reserved.
_database_code_ICSD                155113
_audit_creation_date               2007/04/01
_audit_update_record               2011/02/01
_chemical_name_systematic          'Trizinc Bis(borate) - Beta'
_chemical_formula_structural       'Zn3 (B O3)2'
_chemical_formula_sum              'B2 O6 Zn3'
_publ_section_title
;
Syntheses and crystal structures of the alpha- and beta-forms of zinc 
orthoborate, Zn3 B2 O6
;
loop_
_citation_id
_citation_journal_abbrev
_citation_year
_citation_journal_volume
_citation_page_first
_citation_page_last
_citation_journal_id_ASTM
primary 'Journal of Alloys and Compounds' 2006 425 96 100 JALCEU
_publ_author_name
;
Chen Xue An;Xue Hai Ping;Chang Xi Nan;Zhang Li;Zhao Ying Hua;Zuo Jian 
Long;Zang Hegui;Xiao Wei Qiang
;
_cell_length_a                     23.840(1)
_cell_length_b                     5.049(1)
_cell_length_c                     8.388(1)
_cell_angle_alpha                  90.
_cell_angle_beta                   102.905(9)
_cell_angle_gamma                  90.
_cell_volume                       984.15
_cell_formula_units_Z              8
_symmetry_space_group_name_H-M     'C 1 2/c 1'
_symmetry_Int_Tables_number        15
_refine_ls_R_factor_all            .0508
loop_
_symmetry_equiv_pos_site_id
_symmetry_equiv_pos_as_xyz
  1	'x, -y, z+.5'
  2	'-x, -y, -z'
  3	'-x, y, -z+.5'
  4	'x, y, z'
  5	'x+.5, -y+.5, z+.5'
  6	'-x+.5, -y+.5, -z'
  7	'-x+.5, y+.5, -z+.5'
  8	'x+.5, y+.5, z'
loop_
_atom_type_symbol
_atom_type_oxidation_number
B3+	3
O2-	-2
Zn2+	2
loop_
_atom_site_label
_atom_site_type_symbol
_atom_site_symmetry_multiplicity
_atom_site_Wyckoff_symbol
_atom_site_fract_x
_atom_site_fract_y
_atom_site_fract_z
_atom_site_occupancy
_atom_site_attached_hydrogens
_atom_site_U_iso_or_equiv
Zn1 Zn2+ 8 f 0.37250(2) 0.18404(9) 0.62122(5) 1. 0 0.01118(14) 
Zn2 Zn2+ 8 f 0.45048(2) -0.32832(9) 0.82523(5) 1. 0 0.01184(14) 
Zn3 Zn2+ 8 f 0.29057(2) 0.19075(9) 0.28937(5) 1. 0 0.01078(14) 
B1 B3+ 8 f 0.56581(19) -0.1764(8) 0.0374(5) 1. 0 0.0100(7) 
B2 B3+ 8 f 0.31259(19) -0.3154(8) 0.4800(5) 1. 0 0.0097(7) 
O1 O2- 8 f 0.53643(14) -0.2999(6) 0.8990(3) 1. 0 0.0139(6) 
O2 O2- 8 f 0.41844(14) 0.0865(6) 0.4594(3) 1. 0 0.0149(5) 
O3 O2- 8 f 0.41907(16) 0.3179(6) 0.8192(4) 1. 0 0.0152(6) 
O4 O2- 8 f 0.33678(14) -0.1769(5) 0.6201(3) 1. 0 0.0116(5) 
O5 O2- 8 f 0.21510(14) 0.3124(6) 0.1609(4) 1. 0 0.0130(5) 
O6 O2- 8 f 0.31539(13) 0.4122(6) 0.4802(3) 1. 0 0.0113(5) 

#End of data_155113-ICSD


