data_37026-ICSD
#?2014 by Fachinformationszentrum Karlsruhe, and the U.S. Secretary of 
#Commerce on behalf of the United States.  All rights reserved.
_database_code_ICSD                37026
_audit_creation_date               1983/12/31
_chemical_name_systematic          'Sodium Iron(III) Sulfide'
_chemical_formula_structural       'Na Fe S2'
_chemical_formula_sum              'Fe1 Na1 S2'
_publ_section_title
;
Zur Kenntnis des Natriumthioferrates(III)
;
loop_
_citation_id
_citation_journal_abbrev
_citation_year
_citation_journal_volume
_citation_page_first
_citation_page_last
_citation_journal_id_ASTM
primary 'Monatshefte fuer Chemie' 1983 114 145 154 MOCMB7
_publ_author_name                  'Boller, H.;Blaha, H.'
_cell_length_a                     6.25
_cell_length_b                     10.83
_cell_length_c                     5.4
_cell_angle_alpha                  90.
_cell_angle_beta                   90.
_cell_angle_gamma                  90.
_cell_volume                       365.51
_cell_formula_units_Z              4
_symmetry_space_group_name_H-M     'I 2 2 2'
_symmetry_Int_Tables_number        23
loop_
_symmetry_equiv_pos_site_id
_symmetry_equiv_pos_as_xyz
  1	'-x, y, -z'
  2	'x, -y, -z'
  3	'-x, -y, z'
  4	'x, y, z'
  5	'-x+.5, y+.5, -z+.5'
  6	'x+.5, -y+.5, -z+.5'
  7	'-x+.5, -y+.5, z+.5'
  8	'x+.5, y+.5, z+.5'
loop_
_atom_type_symbol
_atom_type_oxidation_number
Fe3+	3
Na1+	1
S2-	-2
loop_
_atom_site_label
_atom_site_type_symbol
_atom_site_symmetry_multiplicity
_atom_site_Wyckoff_symbol
_atom_site_fract_x
_atom_site_fract_y
_atom_site_fract_z
_atom_site_occupancy
_atom_site_attached_hydrogens
Na1 Na1+ 4 g 0 0.28 0 1. 0 
Fe1 Fe3+ 2 a 0 0 0 1. 0 
Fe2 Fe3+ 2 c 0 0 0.5 1. 0 
S1 S2- 8 k 0.2 0.115 0.75 1. 0 

#End of data_37026-ICSD


