data_414462-ICSD
#?2014 by Fachinformationszentrum Karlsruhe, and the U.S. Secretary of 
#Commerce on behalf of the United States.  All rights reserved.
_database_code_ICSD                414462
_audit_creation_date               2007/08/01
_chemical_name_systematic          'Pentacalcium Hexanitridodisilicate'
_chemical_formula_structural       'Ca5 (Si2 N6)'
_chemical_formula_sum              'Ca5 N6 Si2'
_publ_section_title
;
Syntheses and crystal structure of the nitridosilicates Ca5 (Si2 N6) 
and Ca7 (Nb Si2 N9).
;
loop_
_citation_id
_citation_journal_abbrev
_citation_year
_citation_journal_volume
_citation_page_first
_citation_page_last
_citation_journal_id_ASTM
primary 'Zeitschrift fuer Anorganische und Allgemeine Chemie (1950) (DE)'
 2005 631 1597 1602 ZAACAB
_publ_author_name                  'Ottinger, F.;Nesper, R.'
_cell_length_a                     9.836(2)
_cell_length_b                     6.0519(12)
_cell_length_c                     12.757(3)
_cell_angle_alpha                  90.00
_cell_angle_beta                   100.20(3)
_cell_angle_gamma                  90.00
_cell_volume                       747.38
_cell_formula_units_Z              4
_symmetry_space_group_name_H-M     'C 1 2/c 1'
_symmetry_Int_Tables_number        15
_refine_ls_R_factor_all            .0251
loop_
_symmetry_equiv_pos_site_id
_symmetry_equiv_pos_as_xyz
  1	'x, -y, z+.5'
  2	'-x, -y, -z'
  3	'-x, y, -z+.5'
  4	'x, y, z'
  5	'x+.5, -y+.5, z+.5'
  6	'-x+.5, -y+.5, -z'
  7	'-x+.5, y+.5, -z+.5'
  8	'x+.5, y+.5, z'
loop_
_atom_type_symbol
_atom_type_oxidation_number
Ca2+	2
N3-	-3
Si4+	4
loop_
_atom_site_label
_atom_site_type_symbol
_atom_site_symmetry_multiplicity
_atom_site_Wyckoff_symbol
_atom_site_fract_x
_atom_site_fract_y
_atom_site_fract_z
_atom_site_occupancy
_atom_site_attached_hydrogens
_atom_site_U_iso_or_equiv
Ca1 Ca2+ 4 e 0.0000 0.61709(16) 0.2500 1 0 0.0087(2) 
Ca2 Ca2+ 8 f 0.06479(6) 0.26001(11) 0.49927(5) 1 0 0.00891(17) 
Ca3 Ca2+ 8 f 0.15322(6) 0.08474(11) 0.21615(4) 1 0 0.00565(16) 
Si1 Si4+ 8 f 0.27680(8) 0.37023(14) 0.07598(6) 1 0 0.00385(19) 
N1 N3- 8 f 0.1512(3) 0.4587(5) 0.14778(18) 1 0 0.0064(5) 
N2 N3- 8 f 0.2761(3) 0.0690(5) 0.06249(18) 1 0 0.0068(5) 
N3 N3- 8 f 0.4409(3) 0.4565(5) 0.12759(18) 1 0 0.0061(5) 

loop_
_atom_site_aniso_label
_atom_site_aniso_type_symbol
_atom_site_aniso_U_11
_atom_site_aniso_U_22
_atom_site_aniso_U_33
_atom_site_aniso_U_12
_atom_site_aniso_U_13
_atom_site_aniso_U_23
Ca1 Ca2+ 0.0087(4) 0.0073(5) 0.0126(4) 0.000 0.0085(3) 0.000
Ca2 Ca2+ 0.0107(3) 0.0097(4) 0.0067(3) -0.0028(2) 0.0026(2) -0.0022(2)
Ca3 Ca2+ 0.0039(3) 0.0078(3) 0.0050(3) -0.0010(2) 0.00026(19) 0.0017(2)
Si1 Si4+ 0.0027(4) 0.0059(5) 0.0032(3) 0.0001(3) 0.0013(3) -0.0001(3)
N1 N3- 0.0051(11) 0.0097(14) 0.0048(10) 0.0011(9) 0.0017(8) -0.0015(9)
N2 N3- 0.0072(12) 0.0080(15) 0.0048(11) 0.0018(9) -0.0001(9) 0.0003(9)
N3 N3- 0.0057(11) 0.0071(14) 0.0054(10) -0.0005(9) 0.0010(8) -0.0010(9)
#End of data_414462-ICSD


