data_84367-ICSD
#?2014 by Fachinformationszentrum Karlsruhe, and the U.S. Secretary of 
#Commerce on behalf of the United States.  All rights reserved.
_database_code_ICSD                84367
_audit_creation_date               1999/01/19
_audit_update_record               2008/02/01
_chemical_name_systematic
;
Heptasilver Niobium Hexasulfide - Ii
;
_chemical_formula_structural       'Ag7 Nb S6'
_chemical_formula_sum              'Ag7 Nb1 S6'
_publ_section_title
;
Crystal structures of low-temperature phases (phase II) of ionic 
conductors Ag7 Ta S6 and Ag7 Nb S6
;
loop_
_citation_id
_citation_journal_abbrev
_citation_year
_citation_journal_volume
_citation_page_first
_citation_page_last
_citation_journal_id_ASTM
primary 'Journal of Alloys and Compounds' 1997 262 39 44 JALCEU
2 'Golden Book of Phase Transitions, Wroclaw' 2002 1 1 123 GBOPT5
_publ_author_name
;
Onoda, M.;Wada, H.;Tansho, M.;Ishii, M.
;
_cell_length_a                     7.368
_cell_length_b                     14.77
_cell_length_c                     12.768
_cell_angle_alpha                  90.
_cell_angle_beta                   124.28
_cell_angle_gamma                  90.
_cell_volume                       1148.12
_cell_formula_units_Z              4
_symmetry_space_group_name_H-M     'P 1 c 1'
_symmetry_Int_Tables_number        7
_refine_ls_R_factor_all            .094
loop_
_symmetry_equiv_pos_site_id
_symmetry_equiv_pos_as_xyz
  1	'x, -y, z+.5'
  2	'x, y, z'
loop_
_atom_type_symbol
_atom_type_oxidation_number
Ag1+	1
Nb5+	5
S2-	-2
loop_
_atom_site_label
_atom_site_type_symbol
_atom_site_symmetry_multiplicity
_atom_site_Wyckoff_symbol
_atom_site_fract_x
_atom_site_fract_y
_atom_site_fract_z
_atom_site_occupancy
_atom_site_attached_hydrogens
Ag1 Ag1+ 2 a 0.900(5) 0.077(1) 0.583(3) 1. 0 
Ag2 Ag1+ 2 a 0.442(5) 0.015(1) 0.787(3) 1. 0 
Ag3 Ag1+ 2 a 0.007(5) 0.243(1) 0.735(3) 1. 0 
Ag4 Ag1+ 2 a 0.681(5) 0.172(1) 0.762(2) 1. 0 
Ag5 Ag1+ 2 a 0.377(5) 0.166(1) 0.276(3) 1. 0 
Ag6 Ag1+ 2 a 0.672(5) 0.218(1) 0.964(2) 1. 0 
Ag7 Ag1+ 2 a 0.257(4) 0.206(1) 0.577(2) 1. 0 
Nb1 Nb5+ 2 a 0 0.118(1) 0 1. 0 
S1 S2- 2 a 0.384(7) 0.112(3) 0.110(5) 1. 0 
S2 S2- 2 a 0.92(1) 0.107(4) 0.148(7) 1. 0 
S3 S2- 2 a 0.863(7) -.013(3) 0.879(4) 1. 0 
S4 S2- 2 a 0.899(8) 0.255(3) 0.898(4) 1. 0 
S5 S2- 2 a 0.245(10) 0.142(3) 0.732(5) 1. 0 
S6 S2- 2 a 0.53(1) 0.110(4) 0.521(6) 1. 0 
Ag8 Ag1+ 2 a 0.900(5) 0.577(1) 0.583(3) 1. 0 
Ag9 Ag1+ 2 a 0.442(5) 0.515(1) 0.787(3) 1. 0 
Ag10 Ag1+ 2 a 0.007(5) 0.743(1) 0.735(3) 1. 0 
Ag11 Ag1+ 2 a 0.681(5) 0.672(1) 0.762(2) 1. 0 
Ag12 Ag1+ 2 a 0.377(5) 0.666(1) 0.276(3) 1. 0 
Ag13 Ag1+ 2 a 0.672(5) 0.718(1) 0.964(2) 1. 0 
Ag14 Ag1+ 2 a 0.257(4) 0.706(1) 0.577(2) 1. 0 
Nb2 Nb5+ 2 a 0 0.618(1) 0 1. 0 
S7 S2- 2 a 0.384(7) 0.612(3) 0.110(5) 1. 0 
S8 S2- 2 a 0.92(1) 0.607(4) 0.148(7) 1. 0 
S9 S2- 2 a 0.863(9) 0.487(3) 0.879(4) 1. 0 
S10 S2- 2 a 0.899(8) 0.755(3) 0.898(4) 1. 0 
S11 S2- 2 a 0.245(10) 0.642(3) 0.732(5) 1. 0 
S12 S2- 2 a 0.53(1) 0.610(4) 0.521(6) 1. 0 

#End of data_84367-ICSD


