data_34806-ICSD
#?2014 by Fachinformationszentrum Karlsruhe, and the U.S. Secretary of 
#Commerce on behalf of the United States.  All rights reserved.
_database_code_ICSD                34806
_audit_creation_date               1980/01/01
_audit_update_record               2000/07/15
_chemical_name_systematic          'Dialuminium Beryllium Oxide'
_chemical_formula_structural       'Al2 Be O4'
_chemical_formula_sum              'Al2 Be1 O4'
_chemical_name_mineral             Chrysoberyl
_publ_section_title
;
Refinement of the chrysoberyl structure
;
loop_
_citation_id
_citation_journal_abbrev
_citation_year
_citation_journal_volume
_citation_page_first
_citation_page_last
_citation_journal_id_ASTM
primary 'American Mineralogist' 1963 48 804 810 AMMIAY
2
;
Journal of Research of the National Bureau of Standards, Section A. 
Physics and Chemistry
;
 1960 64 103 106 JNBAAR
_publ_author_name
;
Farrell, E.F.;Fang, J.H.;Newnham, R.E.
;
_cell_length_a                     9.404
_cell_length_b                     5.476
_cell_length_c                     4.427
_cell_angle_alpha                  90.
_cell_angle_beta                   90.
_cell_angle_gamma                  90.
_cell_volume                       227.97
_cell_formula_units_Z              4
_symmetry_space_group_name_H-M     'P n m a'
_symmetry_Int_Tables_number        62
_refine_ls_R_factor_all            .15
loop_
_symmetry_equiv_pos_site_id
_symmetry_equiv_pos_as_xyz
  1	'x+.5, y, -z+.5'
  2	'x, -y+.5, z'
  3	'-x+.5, y+.5, z+.5'
  4	'-x, -y, -z'
  5	'-x+.5, -y, z+.5'
  6	'-x, y+.5, -z'
  7	'x+.5, -y+.5, -z+.5'
  8	'x, y, z'
loop_
_atom_type_symbol
_atom_type_oxidation_number
Al3+	3
Be2+	2
O2-	-2
loop_
_atom_site_label
_atom_site_type_symbol
_atom_site_symmetry_multiplicity
_atom_site_Wyckoff_symbol
_atom_site_fract_x
_atom_site_fract_y
_atom_site_fract_z
_atom_site_occupancy
_atom_site_attached_hydrogens
_atom_site_B_iso_or_equiv
Al1 Al3+ 4 a 0 0 0 1. 0 0.073 
Al2 Al3+ 4 c 0.27319(15) 0.25 -.00595(34) 1. 0 0.103 
Be1 Be2+ 4 c 0.09294(65) 0.25 0.4335(14) 1. 0 0.151 
O1 O2- 4 c 0.09051(27) 0.25 0.79016(57) 1. 0 0.061 
O2 O2- 4 c 0.43343(30) 0.25 0.24097(71) 1. 0 0.226 
O3 O2- 8 d 0.16318(19) 0.01718(55) 0.25850(43) 1. 0 0.14 

#End of data_34806-ICSD


