data_20189-ICSD
#?2014 by Fachinformationszentrum Karlsruhe, and the U.S. Secretary of 
#Commerce on behalf of the United States.  All rights reserved.
_database_code_ICSD                20189
_audit_creation_date               1980/01/01
_audit_update_record               2006/04/01
_chemical_name_systematic
;
Tetrasodium Dizirconium Tris(germanate)
;
_chemical_formula_structural       'Na4 Zr2 (Ge O4)3'
_chemical_formula_sum              'Ge3 Na4 O12 Zr2'
_publ_section_title
;
The crystal structure of Na4 Zr2 Ge3 O12
;
loop_
_citation_id
_citation_journal_abbrev
_citation_year
_citation_journal_volume
_citation_page_first
_citation_page_last
_citation_journal_id_ASTM
primary 'Doklady Akademii Nauk SSSR' 1978 238 855 857 DANKAS
_publ_author_name
;
Sizova, R.G.;Blinov, V.A.;Kuznetsov, V.A.;Voronkov, A.A.;Ilyukhin, 
V.V.;Belov, N.V.
;
_cell_length_a                     9.429
_cell_length_b                     9.429
_cell_length_c                     22.529
_cell_angle_alpha                  90.
_cell_angle_beta                   90.
_cell_angle_gamma                  120.
_cell_volume                       1734.62
_cell_formula_units_Z              6
_symmetry_space_group_name_H-M     'R -3 H'
_symmetry_Int_Tables_number        148
_refine_ls_R_factor_all            .076
loop_
_symmetry_equiv_pos_site_id
_symmetry_equiv_pos_as_xyz
  1	'x-y, x, -z'
  2	'y, -x+y, -z'
  3	'-x, -y, -z'
  4	'-x+y, -x, z'
  5	'-y, x-y, z'
  6	'x, y, z'
  7	'x-y+.6666, x+.3333, -z+.3333'
  8	'x-y+.3333, x+.6666, -z+.6666'
  9	'y+.6666, -x+y+.3333, -z+.3333'
 10	'y+.3333, -x+y+.6666, -z+.6666'
 11	'-x+.6666, -y+.3333, -z+.3333'
 12	'-x+.3333, -y+.6666, -z+.6666'
 13	'-x+y+.6666, -x+.3333, z+.3333'
 14	'-x+y+.3333, -x+.6666, z+.6666'
 15	'-y+.6666, x-y+.3333, z+.3333'
 16	'-y+.3333, x-y+.6666, z+.6666'
 17	'x+.6666, y+.3333, z+.3333'
 18	'x+.3333, y+.6666, z+.6666'
loop_
_atom_type_symbol
_atom_type_oxidation_number
Ge4+	4
Na1+	1
O2-	-2
Zr4+	4
loop_
_atom_site_label
_atom_site_type_symbol
_atom_site_symmetry_multiplicity
_atom_site_Wyckoff_symbol
_atom_site_fract_x
_atom_site_fract_y
_atom_site_fract_z
_atom_site_occupancy
_atom_site_attached_hydrogens
_atom_site_B_iso_or_equiv
Zr1 Zr4+ 6 c 0 0 0.1450(4) 1. 0 0.6 
Zr2 Zr4+ 6 c 0 0 0.6450(4) 1. 0 0.61 
Ge1 Ge4+ 18 f 0.2943(1) 0.2943(1) 0.7500(1) 1. 0 0.29 
Na1 Na1+ 3 a 0 0 0 1. 0 1.75 
Na2 Na1+ 3 b 0 0 0.5 1. 0 1.6 
Na3 Na1+ 18 f 0.2968(6) 0.2997(6) 0.2528(6) 1. 0 2.34 
O1 O2- 18 f 0.1715(8) 0.1599(8) 0.0835(8) 1. 0 1.58 
O2 O2- 18 f 0.1600(8) 0.1810(8) 0.4175(8) 1. 0 1.57 
O3 O2- 18 f 0.1770(9) 0.1986(9) 0.6882(9) 1. 0 1.91 
O4 O2- 18 f 0.1995(9) 0.1758(9) 0.8133(9) 1. 0 2.04 

#End of data_20189-ICSD


