data_65345-ICSD
#?2014 by Fachinformationszentrum Karlsruhe, and the U.S. Secretary of 
#Commerce on behalf of the United States.  All rights reserved.
_database_code_ICSD                65345
_audit_creation_date               1989/12/04
_audit_update_record               1999/11/30
_chemical_name_systematic
;
Potassium Lutetium Catena-hexasilicate
;
_chemical_formula_structural       'K6 Lu2 (Si6 O18)'
_chemical_formula_sum              'K6 Lu2 O18 Si6'
_publ_section_title
;
Hydrothermal synthesis and crystal structure of K6 Lu2 (Si6 O18)
;
loop_
_citation_id
_citation_journal_abbrev
_citation_year
_citation_journal_volume
_citation_page_first
_citation_page_last
_citation_journal_id_ASTM
primary Kristallografiya 1988 33 1122 1127 KRISAJ
2 'Soviet Physics, Crystallography (= Kristallografiya)'
 1988 33 664 667 SPHCA6
_publ_author_name
;
Filipenko, O.S.;Dimitrova, O.V.;Atovmyan, L.O.;Ponomarev, V.I.
;
_cell_length_a                     14.011(2)
_cell_length_b                     12.919(2)
_cell_length_c                     5.853(2)
_cell_angle_alpha                  90.
_cell_angle_beta                   90.
_cell_angle_gamma                  90.
_cell_volume                       1059.44
_cell_formula_units_Z              2
_symmetry_space_group_name_H-M     'P m 21 n'
_symmetry_Int_Tables_number        31
_refine_ls_R_factor_all            .0065
loop_
_symmetry_equiv_pos_site_id
_symmetry_equiv_pos_as_xyz
  1	'x+.5, y+.5, -z'
  2	'-x+.5, y+.5, -z'
  3	'-x, y, z'
  4	'x, y, z'
loop_
_atom_type_symbol
_atom_type_oxidation_number
K1+	1
Lu3+	3
O2-	-2
Si4+	4
loop_
_atom_site_label
_atom_site_type_symbol
_atom_site_symmetry_multiplicity
_atom_site_Wyckoff_symbol
_atom_site_fract_x
_atom_site_fract_y
_atom_site_fract_z
_atom_site_occupancy
_atom_site_attached_hydrogens
_atom_site_U_iso_or_equiv
Lu1 Lu3+ 4 b 0.2570(1) 0.4592(1) 0.8510(1) 1. 0 0.005 
Si1 Si4+ 4 b 0.3885(2) 0.3813(2) 0.3487(5) 1. 0 0.006 
Si2 Si4+ 4 b 0.2331(2) 0.2439(2) 0.1719(4) 1. 0 0.006 
Si3 Si4+ 4 b 0.1150(2) 0.4183(2) 0.3513(5) 1. 0 0.006 
O1 O2- 2 a 0.5 0.3403(7) 0.3378(22) 1. 0 0.012 
O2 O2- 4 b 0.3694(6) 0.4328(6) 0.5881(15) 1. 0 0.014 
O3 O2- 4 b 0.3704(5) 0.455(1) 0.1314(12) 1. 0 0.012 
O4 O2- 4 b 0.3324(6) 0.2699(7) 0.3138(13) 1. 0 0.014 
O5 O2- 4 b 0.2365(7) 0.2940(5) 0.9200(12) 1. 0 0.015 
O6 O2- 4 b 0.2135(6) 0.1234(5) 0.1750(13) 1. 0 0.012 
O7 O2- 4 b 0.1475(6) 0.2959(6) 0.3274(18) 1. 0 0.018 
O8 O2- 4 b 0.1471(6) 0.4857(6) 0.1327(14) 1. 0 0.014 
O9 O2- 4 b 0.1433(6) 0.4682(10) 0.5883(12) 1. 0 0.016 
O10 O2- 2 a 0 0.4062(11) 0.3522(30) 1. 0 0.02 
K1 K1+ 4 b 0.2349(2) 0.1280(2) 0.6574(4) 1. 0 0.018 
K2 K1+ 2 a 0.5 0.6109(5) 0.6898(8) 1. 0 0.03 
K3 K1+ 2 a 0.5 0.8418(5) 0.1443(10) 1. 0 0.03 
K4 K1+ 2 a 0.5 0.1246(3) 0.3513(8) 1. 0 0.021 
K5 K1+ 2 a 0.5 0.3330(3) 0.8560(7) 1. 0 0.02 

#End of data_65345-ICSD


