data_92820-ICSD
#?2014 by Fachinformationszentrum Karlsruhe, and the U.S. Secretary of 
#Commerce on behalf of the United States.  All rights reserved.
_database_code_ICSD                92820
_audit_creation_date               2003/04/01
_chemical_name_systematic
;
Dicalcium Heptahydroxotrioxotriborate Hydroxide Trihydrate
;
_chemical_formula_structural       'Ca2 (B3 O3 (O H)6) (O H) (H2 O)3'
_chemical_formula_sum              'H13 B3 Ca2 O13'
_chemical_name_mineral             Olshanskyite
_publ_section_title
;
The crystal structure of olshanskyite
;
loop_
_citation_id
_citation_journal_abbrev
_citation_year
_citation_journal_volume
_citation_page_first
_citation_page_last
_citation_journal_id_ASTM
primary 'Canadian Mineralogist' 2001 39 137 144 CAMIA6
_publ_author_name                  'Callegari, A.;Mazzi, F.;Tadini, C.'
_cell_length_a                     7.953(4)
_cell_length_b                     9.873(9)
_cell_length_c                     7.362(6)
_cell_angle_alpha                  111.00(7)
_cell_angle_beta                   94.65(7)
_cell_angle_gamma                  107.53(7)
_cell_volume                       502.87
_cell_formula_units_Z              2
_symmetry_space_group_name_H-M     'P -1'
_symmetry_Int_Tables_number        2
_refine_ls_R_factor_all            .017
loop_
_symmetry_equiv_pos_site_id
_symmetry_equiv_pos_as_xyz
  1	'-x, -y, -z'
  2	'x, y, z'
loop_
_atom_type_symbol
_atom_type_oxidation_number
B3+	3
Ca2+	2
H1+	1
O2-	-2
loop_
_atom_site_label
_atom_site_type_symbol
_atom_site_symmetry_multiplicity
_atom_site_Wyckoff_symbol
_atom_site_fract_x
_atom_site_fract_y
_atom_site_fract_z
_atom_site_occupancy
_atom_site_attached_hydrogens
_atom_site_B_iso_or_equiv
Ca1 Ca2+ 2 i 0.08117(3) 0.03398(2) 0.25741(2) 1. 0 0.75(1) 
Ca2 Ca2+ 2 i 0.11601(2) 0.67181(2) 0.41741(3) 1. 0 0.82(1) 
B1 B3+ 2 i 0.2840(1) 0.0291(1) 0.6344(1) 1. 0 0.66(2) 
B2 B3+ 2 i 0.2358(1) 0.2864(1) 0.6911(1) 1. 0 0.68(2) 
B3 B3+ 2 i 0.5283(1) 0.2874(1) 0.8530(1) 1. 0 0.73(2) 
O1 O2- 2 i 0.2590(1) -0.0683(1) 0.4197(1) 1.000 0 0.83(2) 
O2 O2- 2 i 0.2003(1) -0.0901(1) 0.7134(1) 1.000 0 0.87(2) 
O3 O2- 2 i 0.1684(1) 0.1209(1) 0.6453(1) 1. 0 0.78(1) 
O4 O2- 2 i 0.1790(1) 0.3022(1) 0.5027(1) 1.000 0 0.95(2) 
O5 O2- 2 i 0.1296(1) 0.3593(1) 0.8291(1) 1.000 0 0.87(2) 
O6 O2- 2 i 0.4297(1) 0.3589(1) 0.7594(1) 1. 0 0.79(1) 
O7 O2- 2 i 0.7226(1) 0.3539(1) 0.8568(1) 1.000 0 1.03(2) 
O8 O2- 2 i 0.4976(1) 0.3171(1) 0.0597(1) 1.000 0 1.22(2) 
O9 O2- 2 i 0.4693(1) 0.1190(1) 0.7378(1) 1. 0 0.80(1) 
O10 O2- 2 i 0.0691(1) 0.1791(1) 0.0541(1) 1.000 0 1.13(2) 
O11 O2- 2 i 0.3587(1) 0.0524(1) 0.1249(1) 1.000 0 1.65(2) 
O12 O2- 2 i -0.0500(1) 0.3918(1) 0.2696(1) 1.000 0 1.28(2) 
O13 O2- 2 i 0.3705(1) 0.6072(1) 0.5114(1) 1.000 0 1.51(2) 
H1 H1+ 2 i 0.355(3) -0.077(2) 0.376(3) 1. 0 3.4(4) 
H2 H1+ 2 i 0.248(2) -0.063(2) 0.833(3) 1. 0 3.1(4) 
H3 H1+ 2 i 0.246(2) 0.382(2) 0.491(3) 1. 0 3.1(4) 
H4 H1+ 2 i 0.100(2) 0.308(2) -0.094(3) 1. 0 2.9(4) 
H5 H1+ 2 i 0.767(2) 0.446(2) -0.049(3) 1. 0 2.6(4) 
H6 H1+ 2 i 0.502(2) 0.410(2) 0.115(3) 1. 0 2.9(4) 
H7 H1+ 2 i 0.182(3) 0.219(2) 0.066(3) 1. 0 3.4(4) 
H8 H1+ 2 i 0.424(3) 0.128(2) 0.103(3) 1. 0 4.1(5) 
H9 H1+ 2 i 0.431(3) 0.010(3) 0.166(3) 1. 0 4.7(5) 
H10 H1+ 2 i -0.001(3) 0.320(2) 0.199(3) 1. 0 4.0(4) 
H11 H1+ 2 i 0.860(3) 0.379(2) 0.180(3) 1. 0 3.9(4) 
H12 H1+ 2 i 0.427(3) 0.648(2) 0.643(3) 1. 0 3.6(4) 
H13 H1+ 2 i 0.452(3) 0.624(2) 0.431(3) 1. 0 3.3(4) 

#End of data_92820-ICSD


