data_24270-ICSD
#?2014 by Fachinformationszentrum Karlsruhe, and the U.S. Secretary of 
#Commerce on behalf of the United States.  All rights reserved.
_database_code_ICSD                24270
_audit_creation_date               1980/01/01
_audit_update_record               2010/08/01
_chemical_name_systematic          'Magnesium Catena-silicate'
_chemical_formula_structural       'Mg (Si O3)'
_chemical_formula_sum              'Mg1 O3 Si1'
_chemical_name_mineral             Clinoenstatite
_publ_section_title
;
The crystal structures of clinoenstatite and pigeonite
;
loop_
_citation_id
_citation_journal_abbrev
_citation_year
_citation_journal_volume
_citation_page_first
_citation_page_last
_citation_journal_id_ASTM
primary
;
Zeitschrift fuer Kristallographie, Kristallgeometrie, Kristallphysik, 
Kristallchemie (-144,1977)
;
 1960 114 120 147 ZEKGAX
2 'Golden Book of Phase Transitions, Wroclaw' 2002 1 1 123 GBOPT5
_publ_author_name
;
Morimoto, N.;Appleman, D.E.;Evans, H.T.jr.
;
_cell_length_a                     9.620(5)
_cell_length_b                     8.825(5)
_cell_length_c                     5.188(5)
_cell_angle_alpha                  90.
_cell_angle_beta                   71.67(17)
_cell_angle_gamma                  90.
_cell_volume                       418.1
_cell_formula_units_Z              8
_symmetry_space_group_name_H-M     'P 1 21/c 1'
_symmetry_Int_Tables_number        14
_refine_ls_R_factor_all            .133
loop_
_symmetry_equiv_pos_site_id
_symmetry_equiv_pos_as_xyz
  1	'x, -y+.5, z+.5'
  2	'-x, -y, -z'
  3	'-x, y+.5, -z+.5'
  4	'x, y, z'
loop_
_atom_type_symbol
_atom_type_oxidation_number
Mg2+	2
O2-	-2
Si4+	4
loop_
_atom_site_label
_atom_site_type_symbol
_atom_site_symmetry_multiplicity
_atom_site_Wyckoff_symbol
_atom_site_fract_x
_atom_site_fract_y
_atom_site_fract_z
_atom_site_occupancy
_atom_site_attached_hydrogens
_atom_site_B_iso_or_equiv
Mg1 Mg2+ 4 e 0.242(2) 0.986(2) 0.193(3) 1. 0 0.25(26) 
Mg2 Mg2+ 4 e 0.247(2) 0.347(2) 0.220(3) 1. 0 0.23(23) 
Si1 Si4+ 4 e 0.457(1) 0.658(2) 0.294(3) 1. 0 0.33(20) 
Si2 Si4+ 4 e 0.053(1) 0.661(2) 0.264(3) 1. 0 0.47(22) 
O1 O2- 4 e 0.362(4) 0.156(4) 0.320(7) 1. 0 0.61(55) 
O2 O2- 4 e 0.124(4) 0.159(4) 0.112(7) 1. 0 0.86(58) 
O3 O2- 4 e 0.377(4) 0.498(4) 0.298(7) 1. 0 1.61(69) 
O4 O2- 4 e 0.137(4) 0.518(4) 0.103(7) 1. 0 0.67(60) 
O5 O2- 4 e 0.395(4) 0.775(4) 0.101(7) 1. 0 0.70(66) 
O6 O2- 4 e 0.105(4) 0.813(4) 0.051(7) 1. 0 0.40(62) 

#End of data_24270-ICSD


