data_34884-ICSD
#?2014 by Fachinformationszentrum Karlsruhe, and the U.S. Secretary of 
#Commerce on behalf of the United States.  All rights reserved.
_database_code_ICSD                34884
_audit_creation_date               1980/01/01
_audit_update_record               2008/08/01
_chemical_name_systematic          'Sodium Alumium Silicate'
_chemical_formula_structural       'Na Al (Si O4)'
_chemical_formula_sum              'Al1 Na1 O4 Si1'
_chemical_name_mineral             'Carnegieite high'
_publ_section_title
;
Silicate structures of the cristobalite type: III. Structural 
relationship of high-cristobalite, alpha-carnegieite, and Na2 Si O4
;
loop_
_citation_id
_citation_journal_abbrev
_citation_year
_citation_journal_volume
_citation_page_first
_citation_page_last
_citation_journal_id_ASTM
primary
;
Zeitschrift fuer Kristallographie, Kristallgeometrie, Kristallphysik, 
Kristallchemie (-144,1977)
;
 1932 81 376 385 ZEKGAX
2
;
Zeitschrift fuer Kristallographie, Kristallgeometrie, Kristallphysik, 
Kristallchemie (-144,1977)
;
 1932 81 135 141 ZEKGAX
_publ_author_name                  'Barth, F.W.;Posnjak, E.'
_cell_length_a                     7.385(20)
_cell_length_b                     7.385(20)
_cell_length_c                     7.385(20)
_cell_angle_alpha                  90.
_cell_angle_beta                   90.
_cell_angle_gamma                  90.
_cell_volume                       402.76
_cell_formula_units_Z              4
_symmetry_space_group_name_H-M     'P 21 3'
_symmetry_Int_Tables_number        198
loop_
_symmetry_equiv_pos_site_id
_symmetry_equiv_pos_as_xyz
  1	'-z+.5, -x, y+.5'
  2	'-y+.5, -z, x+.5'
  3	'-x+.5, -y, z+.5'
  4	'-z, x+.5, -y+.5'
  5	'-y, z+.5, -x+.5'
  6	'-x, y+.5, -z+.5'
  7	'z+.5, -x+.5, -y'
  8	'y+.5, -z+.5, -x'
  9	'x+.5, -y+.5, -z'
 10	'z, x, y'
 11	'y, z, x'
 12	'x, y, z'
loop_
_atom_type_symbol
_atom_type_oxidation_number
Al3+	3
Na1+	1
O2-	-2
Si4+	4
loop_
_atom_site_label
_atom_site_type_symbol
_atom_site_symmetry_multiplicity
_atom_site_Wyckoff_symbol
_atom_site_fract_x
_atom_site_fract_y
_atom_site_fract_z
_atom_site_occupancy
_atom_site_attached_hydrogens
Si1 Si4+ 4 a 0 0 0 1. 0 
Al1 Al3+ 4 a 0.258 0.258 0.258 1. 0 
Na1 Na1+ 4 a 0.745 0.745 0.745 1. 0 
O1 O2- 4 a 0.125 0.125 0.125 1. 0 
O2 O2- 12 b 0.66 0.645 0.056 1. 0 

#End of data_34884-ICSD


