data_261835-ICSD
#?2014 by Fachinformationszentrum Karlsruhe, and the U.S. Secretary of 
#Commerce on behalf of the United States.  All rights reserved.
_database_code_ICSD                261835
_audit_creation_date               2012/02/01
_chemical_name_systematic          'Lithium Dysprosium Ditungstate'
_chemical_formula_structural       'Li Dy W2 O8'
_chemical_formula_sum              'Dy1 Li1 O8 W2'
_publ_section_title
;
Crystal structure of Li Ln W2 O8 (Ln=Lanthanides and Y): An X-ray 
powder diffraction study
;
loop_
_citation_id
_citation_journal_abbrev
_citation_year
_citation_journal_volume
_citation_journal_issue
_citation_page_first
_citation_page_last
_citation_journal_id_ASTM
primary 'Journal of Solid State Chemistry' 2011 184 8 2004 2008 JSSCBI
_publ_author_name
;
Postema, J.M.;Fu, W.T.;Ijdo, D.J.W.
;
_cell_length_a                     10.0409(2)
_cell_length_b                     5.79404(9)
_cell_length_c                     5.01216(8)
_cell_angle_alpha                  90.
_cell_angle_beta                   94.5869(9)
_cell_angle_gamma                  90.
_cell_volume                       290.66
_cell_formula_units_Z              2
_symmetry_space_group_name_H-M     'P 1 2/n 1'
_symmetry_Int_Tables_number        13
_refine_ls_R_factor_all            .0467
loop_
_symmetry_equiv_pos_site_id
_symmetry_equiv_pos_as_xyz
  1	'x+.5, -y, z+.5'
  2	'-x+.5, y, -z+.5'
  3	'-x, -y, -z'
  4	'x, y, z'
loop_
_atom_type_symbol
_atom_type_oxidation_number
Dy3+	3
Li1+	1
O2-	-2
W6+	6
loop_
_atom_site_label
_atom_site_type_symbol
_atom_site_symmetry_multiplicity
_atom_site_Wyckoff_symbol
_atom_site_fract_x
_atom_site_fract_y
_atom_site_fract_z
_atom_site_occupancy
_atom_site_attached_hydrogens
_atom_site_B_iso_or_equiv
Li1 Li1+ 2 f 0.25 0.230(8) 0.75 1. 0 0.24(2) 
Dy1 Dy3+ 2 e 0.25 0.7010(3) 0.25 1. 0 0.24(2) 
W1 W6+ 4 g 0.0177(1) 0.1824(2) 0.2526(2) 1. 0 0.24(2) 
O1 O2- 4 g 0.108(1) 0.621(2) 0.894(2) 1. 0 0.24(2) 
O2 O2- 4 g 0.150(1) 0.377(2) 0.437(2) 1. 0 0.24(2) 
O3 O2- 4 g 0.116(1) 0.082(2) 0.960(2) 1. 0 0.24(2) 
O4 O2- 4 g 0.098(1) 0.893(2) 0.466(2) 1. 0 0.24(2) 

#End of data_261835-ICSD


