data_47181-ICSD
#?2014 by Fachinformationszentrum Karlsruhe, and the U.S. Secretary of 
#Commerce on behalf of the United States.  All rights reserved.
_database_code_ICSD                47181
_audit_creation_date               1985/06/13
_chemical_name_systematic
;
Barium Calcium Chromium Heptafluoride
;
_chemical_formula_structural       'Ba Ca Cr F7'
_chemical_formula_sum              'Ba1 Ca1 Cr1 F7'
_publ_section_title
;
Die Kristallstruktur der Verbindungen Ba Ca Ga F7 und Ba Ca Cr F7.
;
loop_
_citation_id
_citation_journal_abbrev
_citation_year
_citation_journal_volume
_citation_page_first
_citation_page_last
_citation_journal_id_ASTM
primary 'Zeitschrift fuer Anorganische und Allgemeine Chemie (1950) (DE)'
 1985 523 89 98 ZAACAB
_publ_author_name                  'Holler, H.;Babel, D.'
_cell_length_a                     5.398(1)
_cell_length_b                     5.422(1)
_cell_length_c                     19.006(8)
_cell_angle_alpha                  90.
_cell_angle_beta                   92.10(2)
_cell_angle_gamma                  90.
_cell_volume                       555.89
_cell_formula_units_Z              4
_symmetry_space_group_name_H-M     'P 1 2/n 1'
_symmetry_Int_Tables_number        13
_refine_ls_R_factor_all            .0476
loop_
_symmetry_equiv_pos_site_id
_symmetry_equiv_pos_as_xyz
  1	'x+.5, -y, z+.5'
  2	'-x+.5, y, -z+.5'
  3	'-x, -y, -z'
  4	'x, y, z'
loop_
_atom_type_symbol
_atom_type_oxidation_number
Ba2+	2
Ca2+	2
Cr3+	3
F1-	-1
loop_
_atom_site_label
_atom_site_type_symbol
_atom_site_symmetry_multiplicity
_atom_site_Wyckoff_symbol
_atom_site_fract_x
_atom_site_fract_y
_atom_site_fract_z
_atom_site_occupancy
_atom_site_attached_hydrogens
Cr1 Cr3+ 4 g 0.1978(2) 0.2221(2) 0.38082(5) 1. 0 
Ba1 Ba2+ 4 g 0.24747(7) 0.24359(7) -.06860(2) 1. 0 
Ca1 Ca2+ 2 e 0.75 0.2095(3) 0.75 1. 0 
Ca2 Ca2+ 2 f 0.25 0.6775(3) 0.75 1. 0 
F1 F1- 4 g 0.5915(8) 0.5928(8) 0.5608(2) 1. 0 
F2 F1- 4 g 0.5572(8) 0.8698(8) 0.6840(2) 1. 0 
F3 F1- 4 g 0.0799(8) 0.4921(7) 0.3552(2) 1. 0 
F4 F1- 4 g 0.4234(8) 0.3701(7) 0.6909(2) 1. 0 
F5 F1- 4 g 0.0590(8) 0.7170(8) 0.5565(2) 1. 0 
F6 F1- 4 g 0.0257(7) -.0227(7) 0.6764(2) 1. 0 
F7 F1- 4 g 0.2802(9) -.0550(8) 0.4369(2) 1. 0 

loop_
_atom_site_aniso_label
_atom_site_aniso_type_symbol
_atom_site_aniso_U_11
_atom_site_aniso_U_22
_atom_site_aniso_U_33
_atom_site_aniso_U_12
_atom_site_aniso_U_13
_atom_site_aniso_U_23
Cr1 Cr3+ 0.0095(3) 0.0061(4) 0.0094(3) 0.0004(3) -.0015(3) 0.0001(3)
Ba1 Ba2+ 0.0102(1) 0.0104(1) 0.0113(1) 0.0022(1) -.0012(1) 0.0001(1)
Ca1 Ca2+ 0.0105(6) 0.0069(6) 0.0112(6) 0 -.0014(5) 0
Ca2 Ca2+ 0.0090(6) 0.0074(5) 0.0115(6) 0 -.0013(5) 0
F1 F1- 0.0158(18) 0.0199(19) 0.0167(18) -.0096(16) -.0038(15) -.0009(15)
F2 F1- 0.0146(17) 0.0117(16) 0.0200(18) -.0033(14) 0.0068(15) -.0037(13)
F3 F1- 0.0124(16) 0.0108(15) 0.0173(18) -.0004(13) -.0029(14) 0.0047(13)
F4 F1- 0.0149(17) 0.0127(16) 0.0148(16) 0.0029(14) -.0041(14) -.0029(13)
F5 F1- 0.0136(17) 0.0206(20) 0.0176(17) 0.0041(15) 0.0045(14) 0.0016(14)
F6 F1- 0.0113(17) 0.0121(16) 0.0128(16) -.0021(13) -.0011(13) -.0014(12)
F7 F1- 0.0202(20) 0.0142(17) 0.0203(19) 0.0042(15) -.0013(13) 0.0063(14)
#End of data_47181-ICSD


