data_25712-ICSD
#?2014 by Fachinformationszentrum Karlsruhe, and the U.S. Secretary of 
#Commerce on behalf of the United States.  All rights reserved.
_database_code_ICSD                25712
_audit_creation_date               1980/01/01
_audit_update_record               2007/08/01
_chemical_name_systematic          'Dipotassium Hexatitanate'
_chemical_formula_structural       'K2 (Ti6 O13)'
_chemical_formula_sum              'K2 O13 Ti6'
_chemical_name_mineral             Jeppeite
_publ_section_title
;
The crystal structure of potassium hexatitanate K2 Ti6 O13
;
loop_
_citation_id
_citation_journal_abbrev
_citation_year
_citation_journal_volume
_citation_page_first
_citation_page_last
_citation_journal_id_ASTM
primary
;
Zeitschrift fuer Kristallographie, Kristallgeometrie, Kristallphysik, 
Kristallchemie (-144,1977)
;
 1962 117 411 430 ZEKGAX
_publ_author_name                  'Cid-Dresdner, H.;Buerger, M.J.'
_cell_length_a                     15.582(6)
_cell_length_b                     3.82(1)
_cell_length_c                     9.112(1)
_cell_angle_alpha                  90.
_cell_angle_beta                   99.764(8)
_cell_angle_gamma                  90.
_cell_volume                       534.52
_cell_formula_units_Z              2
_symmetry_space_group_name_H-M     'C 1 2/m 1'
_symmetry_Int_Tables_number        12
_refine_ls_R_factor_all            .124
loop_
_symmetry_equiv_pos_site_id
_symmetry_equiv_pos_as_xyz
  1	'-x, y, -z'
  2	'-x, -y, -z'
  3	'x, -y, z'
  4	'x, y, z'
  5	'-x+.5, y+.5, -z'
  6	'-x+.5, -y+.5, -z'
  7	'x+.5, -y+.5, z'
  8	'x+.5, y+.5, z'
loop_
_atom_type_symbol
_atom_type_oxidation_number
K1+	1
O2-	-2
Ti4+	4
loop_
_atom_site_label
_atom_site_type_symbol
_atom_site_symmetry_multiplicity
_atom_site_Wyckoff_symbol
_atom_site_fract_x
_atom_site_fract_y
_atom_site_fract_z
_atom_site_occupancy
_atom_site_attached_hydrogens
_atom_site_B_iso_or_equiv
Ti1 Ti4+ 4 i 0.1142(1) 0 0.0980(2) 1. 0 0.47(9) 
Ti2 Ti4+ 4 i 0.1716(1) 0 0.4386(2) 1. 0 0.60(9) 
Ti3 Ti4+ 4 i 0.2325(1) 0 -.2238(2) 1. 0 0.50(9) 
K1 K1+ 4 i 0.4540(2) 0 0.2474(3) 1. 0 1.11(9) 
O1 O2- 2 a 0 0 0 1. 0 0.6(2) 
O2 O2- 4 i 0.2370(6) 0 0.237(1) 1. 0 0.6(2) 
O3 O2- 4 i 0.0764(6) 0 0.291(1) 1. 0 0.6(2) 
O4 O2- 4 i 0.2964(6) 0 -.428(1) 1. 0 0.2(2) 
O5 O2- 4 i 0.1330(6) 0 -.384(1) 1. 0 0.4(2) 
O6 O2- 4 i 0.3591(6) 0 -.109(1) 1. 0 0.4(2) 
O7 O2- 4 i 0.1677(6) 0 -.083(1) 1. 0 0.6(2) 

#End of data_25712-ICSD


