data_166313-ICSD
#?2014 by Fachinformationszentrum Karlsruhe, and the U.S. Secretary of 
#Commerce on behalf of the United States.  All rights reserved.
_database_code_ICSD                166313
_audit_creation_date               2010/08/01
_chemical_name_systematic
;
Sodium Titanium(III) Catena-disilicate - Hp
;
_chemical_formula_structural       'Na Ti (Si2 O6)'
_chemical_formula_sum              'Na1 O6 Si2 Ti1'
_chemical_name_mineral             Clinopyroxene
_publ_section_title
;
(Na, Ca) (ti(3+), Mg) Si2 O6 - clinopyroxenes at high pressure: 
influence of cation substitution on elastic behavior and phase 
transition
;
loop_
_citation_id
_citation_journal_abbrev
_citation_year
_citation_journal_volume
_citation_page_first
_citation_page_last
_citation_journal_id_ASTM
primary 'Physics and Chemistry of Minerals' 2010 37 25 43 PCMIDU
_publ_author_name
;
Ullrich, A.;Miletich, R.;Balic Zunic, T.;Olsen, L.;Nestola, 
F.;Wildner, M.;Ohashi, H.
;
_cell_length_a                     5.211(3)
_cell_length_b                     6.458(4)
_cell_length_c                     6.498(5)
_cell_angle_alpha                  84.41(5)
_cell_angle_beta                   78.22(5)
_cell_angle_gamma                  78.19(6)
_cell_volume                       209.18
_cell_formula_units_Z              2
_symmetry_space_group_name_H-M     'P -1'
_symmetry_Int_Tables_number        2
_refine_ls_R_factor_all            .0886
loop_
_symmetry_equiv_pos_site_id
_symmetry_equiv_pos_as_xyz
  1	'-x, -y, -z'
  2	'x, y, z'
loop_
_atom_type_symbol
_atom_type_oxidation_number
Na1+	1
O2-	-2
Si4+	4
Ti3+	3
loop_
_atom_site_label
_atom_site_type_symbol
_atom_site_symmetry_multiplicity
_atom_site_Wyckoff_symbol
_atom_site_fract_x
_atom_site_fract_y
_atom_site_fract_z
_atom_site_occupancy
_atom_site_attached_hydrogens
Na1 Na1+ 2 i 0.7541(17) 0.807(2) 0.693(3) 1. 0 
Ti1 Ti3+ 2 i 0.2544(7) 0.5935(10) 0.9046(12) 1. 0 
Si1 Si4+ 2 i 0.7410(16) 0.299(3) 0.613(2) 1. 0 
Si2 Si4+ 2 i 0.2404(14) 0.116(2) 0.797(2) 1. 0 
O1 O2- 2 i 0.809(3) 0.403(4) 0.384(5) 1. 0 
O2 O2- 2 i 0.650(3) 0.463(5) 0.789(6) 1. 0 
O3 O2- 2 i 0.507(3) 0.164(4) 0.636(5) 1. 0 
O4 O2- 2 i 0.011(3) 0.135(4) 0.667(5) 1. 0 
O5 O2- 2 i 0.150(3) 0.296(5) 0.958(5) 1. 0 
O6 O2- 2 i 0.306(3) 0.889(4) 0.900(5) 1. 0 

#End of data_166313-ICSD


