data_36201-ICSD
#?2014 by Fachinformationszentrum Karlsruhe, and the U.S. Secretary of 
#Commerce on behalf of the United States.  All rights reserved.
_database_code_ICSD                36201
_audit_creation_date               1980/01/01
_audit_update_record               2007/04/01
_chemical_name_systematic          'Barium Calcium Carbonate'
_chemical_formula_structural       'Ba Ca (C O3)2'
_chemical_formula_sum              'C2 Ba1 Ca1 O6'
_chemical_name_mineral             Barytocalcite
_publ_section_title
;
The crystal structure of barytocalcite Ba Ca (C O3)2
;
loop_
_citation_id
_citation_journal_abbrev
_citation_year
_citation_journal_volume
_citation_page_first
_citation_page_last
_citation_journal_id_ASTM
primary 'Arkiv foer Mineralogi och Geologi' 1958 2 399 410 AMNGAX
_publ_author_name                  'Alm, K.F.'
_cell_length_a                     8.15
_cell_length_b                     5.22
_cell_length_c                     6.58
_cell_angle_alpha                  90.
_cell_angle_beta                   106.13
_cell_angle_gamma                  90.
_cell_volume                       268.91
_cell_formula_units_Z              2
_symmetry_space_group_name_H-M     'P 1 21 1'
_symmetry_Int_Tables_number        4
loop_
_symmetry_equiv_pos_site_id
_symmetry_equiv_pos_as_xyz
  1	'-x, y+.5, -z'
  2	'x, y, z'
loop_
_atom_type_symbol
_atom_type_oxidation_number
Ba2+	2
C4+	4
Ca2+	2
O2-	-2
loop_
_atom_site_label
_atom_site_type_symbol
_atom_site_symmetry_multiplicity
_atom_site_Wyckoff_symbol
_atom_site_fract_x
_atom_site_fract_y
_atom_site_fract_z
_atom_site_occupancy
_atom_site_attached_hydrogens
Ba1 Ba2+ 2 a 0.142 0.25 0.283 1. 0 
Ca1 Ca2+ 2 a 0.383 0.734 0.8 1. 0 
C1 C4+ 2 a 0.083 0.205 0.77 1. 0 
C2 C4+ 2 a 0.385 0.74 0.299 1. 0 
O1 O2- 2 a 0.012 0.15 0.893 1. 0 
O2 O2- 2 a 0.105 0.444 0.697 1. 0 
O3 O2- 2 a 0.133 0.02 0.639 1. 0 
O4 O2- 2 a 0.287 0.68 0.422 1. 0 
O5 O2- 2 a 0.379 0.974 0.226 1. 0 
O6 O2- 2 a 0.407 0.55 0.168 1. 0 

#End of data_36201-ICSD


