data_183232-ICSD
#?2014 by Fachinformationszentrum Karlsruhe, and the U.S. Secretary of 
#Commerce on behalf of the United States.  All rights reserved.
_database_code_ICSD                183232
_audit_creation_date               2012/08/01
_chemical_name_systematic
;
Potassium Sodium Hexafluorosilicate
;
_chemical_formula_structural       'K Na (Si F6)'
_chemical_formula_sum              'F6 K1 Na1 Si1'
_chemical_name_mineral             Heklaite
_publ_section_title
;
Heklaite, K Na Si F6, a new fumarolic mineral from Hekla volcano, 
Iceland
;
loop_
_citation_id
_citation_journal_abbrev
_citation_year
_citation_journal_volume
_citation_journal_issue
_citation_page_first
_citation_page_last
_citation_journal_id_ASTM
primary 'Mineralogical Magazine (1969-)' 2010 74 1 147 157 MNLMBB
_publ_author_name
;
Garavelli, A.;Balic-Zunic, T.;Mitolo, D.;Acquafredda, P.;Leonardsen, 
E.;Jakobsson, S.P.
;
_cell_length_a                     9.3387(7)
_cell_length_b                     5.5032(4)
_cell_length_c                     9.7957(8)
_cell_angle_alpha                  90.
_cell_angle_beta                   90.
_cell_angle_gamma                  90.
_cell_volume                       503.43
_cell_formula_units_Z              4
_symmetry_space_group_name_H-M     'P n m a'
_symmetry_Int_Tables_number        62
_refine_ls_R_factor_all            .0617
loop_
_symmetry_equiv_pos_site_id
_symmetry_equiv_pos_as_xyz
  1	'x+.5, y, -z+.5'
  2	'x, -y+.5, z'
  3	'-x+.5, y+.5, z+.5'
  4	'-x, -y, -z'
  5	'-x+.5, -y, z+.5'
  6	'-x, y+.5, -z'
  7	'x+.5, -y+.5, -z+.5'
  8	'x, y, z'
loop_
_atom_type_symbol
_atom_type_oxidation_number
F1-	-1
K1+	1
Na1+	1
Si4+	4
loop_
_atom_site_label
_atom_site_type_symbol
_atom_site_symmetry_multiplicity
_atom_site_Wyckoff_symbol
_atom_site_fract_x
_atom_site_fract_y
_atom_site_fract_z
_atom_site_occupancy
_atom_site_attached_hydrogens
_atom_site_B_iso_or_equiv
K1 K1+ 4 c 0.514(1) 0.250 0.1785(7) 1. 0 2.0(3) 
Na1 Na1+ 4 c 0.373(1) 0.250 0.563(2) 1. 0 2.2(3) 
Si1 Si4+ 4 c 0.227(1) 0.250 0.924(2) 1. 0 1.4(5) 
F1 F1- 8 d 0.325(1) 0.472(3) 0.991(2) 1. 0 3.(1) 
F2 F1- 8 d 0.133(1) 0.036(3) 0.858(1) 1. 0 5.(1) 
F3 F1- 4 c 0.116(2) 0.250 0.054(2) 1. 0 5.(1) 
F4 F1- 4 c 0.341(2) 0.250 0.788(2) 1. 0 5.(1) 

#End of data_183232-ICSD


