data_201935-ICSD
#?2014 by Fachinformationszentrum Karlsruhe, and the U.S. Secretary of 
#Commerce on behalf of the United States.  All rights reserved.
_database_code_ICSD                201935
_audit_creation_date               1988/12/19
_chemical_name_systematic
;
Lithium Dizirconium Triphosphate - 303k
;
_chemical_formula_structural       'Li Zr2 (P O4)3'
_chemical_formula_sum              'Li1 O12 P3 Zr2'
_publ_section_title
;
Fast ion transport in Li Zr2 (P O4)3 : Structure and conductivity
;
loop_
_citation_id
_citation_journal_abbrev
_citation_year
_citation_journal_volume
_citation_page_first
_citation_page_last
_citation_journal_id_ASTM
primary 'Materials Research Bulletin' 1986 21 365 371 MRBUAC
_publ_author_name
;
Petit, D.;Colomban, P.;Collin, G.;Boilot, J.P.
;
_cell_length_a                     8.847(1)
_cell_length_b                     8.847(1)
_cell_length_c                     22.24(3)
_cell_angle_alpha                  90.
_cell_angle_beta                   90.
_cell_angle_gamma                  120.
_cell_volume                       1507.5
_cell_formula_units_Z              6
_symmetry_space_group_name_H-M     'R -3 c H'
_symmetry_Int_Tables_number        167
_refine_ls_R_factor_all            .0324
loop_
_symmetry_equiv_pos_site_id
_symmetry_equiv_pos_as_xyz
  1	'x-y, -y, -z+.5'
  2	'-x, -x+y, -z+.5'
  3	'y, x, -z+.5'
  4	'x-y, x, -z'
  5	'y, -x+y, -z'
  6	'-x, -y, -z'
  7	'-x+y, y, z+.5'
  8	'x, x-y, z+.5'
  9	'-y, -x, z+.5'
 10	'-x+y, -x, z'
 11	'-y, x-y, z'
 12	'x, y, z'
 13	'x-y+.6666, -y+.3333, -z+.8333'
 14	'x-y+.3333, -y+.6666, -z+.1666'
 15	'-x+.6666, -x+y+.3333, -z+.8333'
 16	'-x+.3333, -x+y+.6666, -z+.1666'
 17	'y+.6666, x+.3333, -z+.8333'
 18	'y+.3333, x+.6666, -z+.1666'
 19	'x-y+.6666, x+.3333, -z+.3333'
 20	'x-y+.3333, x+.6666, -z+.6666'
 21	'y+.6666, -x+y+.3333, -z+.3333'
 22	'y+.3333, -x+y+.6666, -z+.6666'
 23	'-x+.6666, -y+.3333, -z+.3333'
 24	'-x+.3333, -y+.6666, -z+.6666'
 25	'-x+y+.6666, y+.3333, z+.8333'
 26	'-x+y+.3333, y+.6666, z+.1666'
 27	'x+.6666, x-y+.3333, z+.8333'
 28	'x+.3333, x-y+.6666, z+.1666'
 29	'-y+.6666, -x+.3333, z+.8333'
 30	'-y+.3333, -x+.6666, z+.1666'
 31	'-x+y+.6666, -x+.3333, z+.3333'
 32	'-x+y+.3333, -x+.6666, z+.6666'
 33	'-y+.6666, x-y+.3333, z+.3333'
 34	'-y+.3333, x-y+.6666, z+.6666'
 35	'x+.6666, y+.3333, z+.3333'
 36	'x+.3333, y+.6666, z+.6666'
loop_
_atom_type_symbol
_atom_type_oxidation_number
Li1+	1
O2-	-2
P5+	5
Zr4+	4
loop_
_atom_site_label
_atom_site_type_symbol
_atom_site_symmetry_multiplicity
_atom_site_Wyckoff_symbol
_atom_site_fract_x
_atom_site_fract_y
_atom_site_fract_z
_atom_site_occupancy
_atom_site_attached_hydrogens
Zr1 Zr4+ 12 c 0 0 0.14280(2) 1. 0 
P1 P5+ 18 e 0.2890(1) 0 0.25 1. 0 
O1 O2- 36 f 0.1869(3) -.0082(3) 0.1940(1) 1. 0 
O2 O2- 36 f 0.1962(3) 0.1716(3) 0.0850(1) 1. 0 
Li1 Li1+ 6 b 0 0 0 1. 0 

loop_
_atom_site_aniso_label
_atom_site_aniso_type_symbol
_atom_site_aniso_U_11
_atom_site_aniso_U_22
_atom_site_aniso_U_33
_atom_site_aniso_U_12
_atom_site_aniso_U_13
_atom_site_aniso_U_23
Zr1 Zr4+ 0.0125(2) 0.0125 0.0149(2) 0.0063 0 0
P1 P5+ 0.0060(3) 0.0096(4) 0.0104(5) 0.0048 0.0021 0.0042(4)
O1 O2- 0.0191(10) 0.0324(12) 0.0214(7) 0.0154(8) -.0088(6) 0.0041(10)
O2 O2- 0.0092(7) 0.0154(8) 0.0207(8) 0.0012(6) 0.0048(6) 0.0084(7)
Li1 Li1+ 0.0954(40) 0.0954 0.025(3) 0.0477 0 0
#End of data_201935-ICSD


