data_72281-ICSD
#?2014 by Fachinformationszentrum Karlsruhe, and the U.S. Secretary of 
#Commerce on behalf of the United States.  All rights reserved.
_database_code_ICSD                72281
_audit_creation_date               1994/01/19
_audit_update_record               2010/08/01
_chemical_name_systematic
;
Lanthanum Trialuminium Dodecabromide
;
_chemical_formula_structural       'La Al3 Br12'
_chemical_formula_sum              'Al3 Br12 La1'
_publ_section_title
;
Darstellung und Kristallstruktur von Ln Al3 Br12 (Ln= La, Ce, Pr, Nd, 
Sm, Gd) und thermischer Abbau zu Ln Br3
;
loop_
_citation_id
_citation_journal_abbrev
_citation_year
_citation_journal_volume
_citation_page_first
_citation_page_last
_citation_journal_id_ASTM
primary 'Zeitschrift fuer Anorganische und Allgemeine Chemie (1950) (DE)'
 1992 613 45 48 ZAACAB
_publ_author_name                  'Hake, D.;Urland, W.'
_cell_length_a                     10.436(1)
_cell_length_b                     10.436(1)
_cell_length_c                     18.642(6)
_cell_angle_alpha                  90.
_cell_angle_beta                   90.
_cell_angle_gamma                  120.
_cell_volume                       1758.29
_cell_formula_units_Z              3
_symmetry_space_group_name_H-M     'P 31 2 1'
_symmetry_Int_Tables_number        152
_refine_ls_R_factor_all            .062
loop_
_symmetry_equiv_pos_site_id
_symmetry_equiv_pos_as_xyz
  1	'x-y, -y, -z+.6667'
  2	'-x, -x+y, -z+.3333'
  3	'y, x, -z'
  4	'-x+y, -x, z+.6667'
  5	'-y, x-y, z+.3333'
  6	'x, y, z'
loop_
_atom_type_symbol
_atom_type_oxidation_number
Al3+	3
Br1-	-1
La3+	3
loop_
_atom_site_label
_atom_site_type_symbol
_atom_site_symmetry_multiplicity
_atom_site_Wyckoff_symbol
_atom_site_fract_x
_atom_site_fract_y
_atom_site_fract_z
_atom_site_occupancy
_atom_site_attached_hydrogens
_atom_site_U_iso_or_equiv
La1 La3+ 3 a 0.2712(2) 0.2712(2) 0 1. 0 0.0357(9) 
Al1 Al3+ 3 b 0.8984(10) 0.8984(10) 0.5 1. 0 0.0548(53) 
Al2 Al3+ 6 c 0.6933(11) 0.3220(9) 0.6123(4) 1. 0 0.0979(60) 
Br1 Br1- 6 c 0.7036(3) 0.4677(3) 0.7105(1) 1. 0 0.0568(12) 
Br2 Br1- 6 c 0.9130(3) 0.4967(3) 0.5540(1) 1. 0 0.0773(17) 
Br3 Br1- 6 c 0.1265(3) 0.9277(3) 0.5296(1) 1. 0 0.0606(15) 
Br4 Br1- 6 c 0.2382(3) 0.0332(3) 0.7324(1) 1. 0 0.0708(16) 
Br5 Br1- 6 c 0.1343(4) 0.7153(7) 0.3500(2) 1. 0 0.2268(44) 
Br6 Br1- 6 c 0.5016(4) 0.2736(5) 0.5441(2) 1. 0 0.1995(35) 

#End of data_72281-ICSD


