data_90795-ICSD
#?2014 by Fachinformationszentrum Karlsruhe, and the U.S. Secretary of 
#Commerce on behalf of the United States.  All rights reserved.
_database_code_ICSD                90795
_audit_creation_date               2002/04/01
_audit_update_record               2013/02/01
_chemical_name_systematic          'Rubidium Trisilver Selenide'
_chemical_formula_structural       'Rb Ag3 Se2'
_chemical_formula_sum              'Ag3 Rb1 Se2'
_publ_section_title                'Ternaere Selenide des Silbers'
loop_
_citation_id
_citation_journal_abbrev
_citation_year
_citation_journal_volume
_citation_page_first
_citation_page_last
_citation_journal_id_ASTM
primary 'Journal of the Less-Common Metals' 1978 60 P5 P13 JCOMAH
2
;
Zeitschrift fuer Kristallographie, Kristallgeometrie, Kristallphysik, 
Kristallchemie (145,1977-148,1979)
;
 1979 149 138 138 ZKKKAJ
_publ_author_name                  'Bronger, W.;Eyck, J.;Schils, H.'
_cell_length_a                     16.654(14)
_cell_length_b                     4.407(6)
_cell_length_c                     8.854(10)
_cell_angle_alpha                  90.
_cell_angle_beta                   113.92(8)
_cell_angle_gamma                  90.
_cell_volume                       594.02
_cell_formula_units_Z              4
_symmetry_space_group_name_H-M     'C 1 2/m 1'
_symmetry_Int_Tables_number        12
_refine_ls_R_factor_all            .066
loop_
_symmetry_equiv_pos_site_id
_symmetry_equiv_pos_as_xyz
  1	'-x, y, -z'
  2	'-x, -y, -z'
  3	'x, -y, z'
  4	'x, y, z'
  5	'-x+.5, y+.5, -z'
  6	'-x+.5, -y+.5, -z'
  7	'x+.5, -y+.5, z'
  8	'x+.5, y+.5, z'
loop_
_atom_type_symbol
_atom_type_oxidation_number
Ag1+	1
Rb1+	1
Se2-	-2
loop_
_atom_site_label
_atom_site_type_symbol
_atom_site_symmetry_multiplicity
_atom_site_Wyckoff_symbol
_atom_site_fract_x
_atom_site_fract_y
_atom_site_fract_z
_atom_site_occupancy
_atom_site_attached_hydrogens
Rb1 Rb1+ 4 i 0.1358(9) 0 0.0469(18) 1. 0 
Ag1 Ag1+ 4 i 0.5922(7) 0 0.6441(14) 1. 0 
Ag2 Ag1+ 4 i 0.6891(7) 0 0.4413(16) 1. 0 
Ag3 Ag1+ 4 i 0.0568(8) 0 0.3990(14) 1. 0 
Se1 Se2- 4 i 0.1993(8) 0 0.6971(16) 1. 0 
Se2 Se2- 4 i 0.5192(8) 0 0.2199(16) 1. 0 

loop_
_atom_site_aniso_label
_atom_site_aniso_type_symbol
_atom_site_aniso_U_11
_atom_site_aniso_U_22
_atom_site_aniso_U_33
_atom_site_aniso_U_12
_atom_site_aniso_U_13
_atom_site_aniso_U_23
Rb1 Rb1+ 0.0264(56) 0.0239(61) 0.0380(66) 0 0.0139(50) 0
Ag1 Ag1+ 0.0333(51) 0.0282(60) 0.0492(66) 0 0.0283(50) 0
Ag2 Ag1+ 0.0295(55) 0.0555(86) 0.0566(76) 0 0.0286(55) 0
Ag3 Ag1+ 0.0485(63) 0.0196(48) 0.0399(59) 0 0.0227(53) 0
Se1 Se2- 0.0198(54) 0.0210(59) 0.0344(65) 0 0.0153(51) 0
Se2 Se2- 0.0229(56) 0.0187(59) 0.0341(65) 0 0.0162(54) 0
#End of data_90795-ICSD


