data_183983-ICSD
#?2014 by Fachinformationszentrum Karlsruhe, and the U.S. Secretary of 
#Commerce on behalf of the United States.  All rights reserved.
_database_code_ICSD                183983
_audit_creation_date               2012/08/01
_chemical_name_systematic          'Dibarium Magnesium Disilicate'
_chemical_formula_structural       'Ba2 Mg (Si2 O7)'
_chemical_formula_sum              'Ba2 Mg1 O7 Si2'
_chemical_name_mineral             Unnamed_Melilite
_publ_section_title
;
Melilite-type and melilite-related compounds: structural variations 
along the join Sr2-x Bax Mg Si2 O7  (0<=x<=2) and high-pressure 
behavior of the two end-members
;
loop_
_citation_id
_citation_journal_abbrev
_citation_year
_citation_journal_volume
_citation_page_first
_citation_page_last
_citation_journal_id_ASTM
primary 'Physics and Chemistry of Minerals' 2012 39 199 211 PCMIDU
_publ_author_name
;
Ardit, M.;Dondi, M.;Merlini, M.;Cruciani, G.
;
_cell_length_a                     8.4171(3)
_cell_length_b                     10.7194(4)
_cell_length_c                     8.4501(3)
_cell_angle_alpha                  90.
_cell_angle_beta                   110.77(1)
_cell_angle_gamma                  90.
_cell_volume                       712.87
_cell_formula_units_Z              4
_symmetry_space_group_name_H-M     'C 1 2/c 1'
_symmetry_Int_Tables_number        15
_refine_ls_R_factor_all            .0267
loop_
_symmetry_equiv_pos_site_id
_symmetry_equiv_pos_as_xyz
  1	'x, -y, z+.5'
  2	'-x, -y, -z'
  3	'-x, y, -z+.5'
  4	'x, y, z'
  5	'x+.5, -y+.5, z+.5'
  6	'-x+.5, -y+.5, -z'
  7	'-x+.5, y+.5, -z+.5'
  8	'x+.5, y+.5, z'
loop_
_atom_type_symbol
_atom_type_oxidation_number
Ba2+	2
Mg2+	2
O2-	-2
Si4+	4
loop_
_atom_site_label
_atom_site_type_symbol
_atom_site_symmetry_multiplicity
_atom_site_Wyckoff_symbol
_atom_site_fract_x
_atom_site_fract_y
_atom_site_fract_z
_atom_site_occupancy
_atom_site_attached_hydrogens
_atom_site_U_iso_or_equiv
Ba1 Ba2+ 8 f 0.2719(2) 0.4567(1) 0.0227(2) 1. 0 0.0083 
Mg1 Mg2+ 4 e 0 0.2598(10) 0.25 1. 0 0.0060 
Si1 Si4+ 8 f 0.8860(11) 0.2834(5) 0.8632(11) 1. 0 0.0101 
O1 O2- 4 e 0 0.3307(13) 0.75 1. 0 0.0220 
O2 O2- 8 f 0.6968(10) 0.3455(9) 0.7640(16) 1. 0 0.0125 
O3 O2- 8 f 0.9875(17) 0.3502(9) 0.0419(8) 1. 0 0.0204 
O4 O2- 8 f 0.8906(19) 0.1348(5) 0.8757(18) 1. 0 0.0241 

#End of data_183983-ICSD


