data_8013-ICSD
#?2014 by Fachinformationszentrum Karlsruhe, and the U.S. Secretary of 
#Commerce on behalf of the United States.  All rights reserved.
_database_code_ICSD                8013
_audit_creation_date               1980/01/01
_audit_update_record               2010/08/01
_chemical_name_systematic          'Disilver Chloride Nitrate(V)'
_chemical_formula_structural       'Ag2 Cl (N O3)'
_chemical_formula_sum              'Ag2 Cl1 N1 O3'
_publ_section_title
;
Structure of disilver chloride nitrate
;
loop_
_citation_id
_citation_journal_abbrev
_citation_year
_citation_journal_volume
_citation_page_first
_citation_page_last
_citation_journal_id_ASTM
primary 'Acta Crystallographica B (24,1968-38,1982)' 1979 35 1432 1435 ACBCAR
_publ_author_name                  'Persson, K.'
_cell_length_a                     6.6566(4)
_cell_length_b                     5.1113(2)
_cell_length_c                     12.4887(14)
_cell_angle_alpha                  90.
_cell_angle_beta                   90.
_cell_angle_gamma                  90.
_cell_volume                       424.91
_cell_formula_units_Z              4
_symmetry_space_group_name_H-M     'P n m a'
_symmetry_Int_Tables_number        62
_refine_ls_R_factor_all            .028
loop_
_symmetry_equiv_pos_site_id
_symmetry_equiv_pos_as_xyz
  1	'x+.5, y, -z+.5'
  2	'x, -y+.5, z'
  3	'-x+.5, y+.5, z+.5'
  4	'-x, -y, -z'
  5	'-x+.5, -y, z+.5'
  6	'-x, y+.5, -z'
  7	'x+.5, -y+.5, -z+.5'
  8	'x, y, z'
loop_
_atom_type_symbol
_atom_type_oxidation_number
Ag1+	1
Cl1-	-1
N5+	5
O2-	-2
loop_
_atom_site_label
_atom_site_type_symbol
_atom_site_symmetry_multiplicity
_atom_site_Wyckoff_symbol
_atom_site_fract_x
_atom_site_fract_y
_atom_site_fract_z
_atom_site_occupancy
_atom_site_attached_hydrogens
Ag1 Ag1+ 4 c 0.26723(7) 0.25 0.03658(5) 1. 0 
Ag2 Ag1+ 4 c 0.14538(7) 0.75 0.25441(4) 1. 0 
Cl1 Cl1- 4 c 0.38923(20) 0.75 0.08872(11) 1. 0 
N1 N5+ 4 c 0.35484(68) 0.25 0.35224(33) 1. 0 
O1 O2- 4 c 0.20774(70) 0.25 0.29115(45) 1. 0 
O2 O2- 8 d 0.42868(45) 0.46010(78) 0.38194(25) 1. 0 

#End of data_8013-ICSD


