data_261185-ICSD
#?2014 by Fachinformationszentrum Karlsruhe, and the U.S. Secretary of 
#Commerce on behalf of the United States.  All rights reserved.
_database_code_ICSD                261185
_audit_creation_date               2011/02/01
_chemical_name_systematic          'Calcium Dihydride'
_chemical_formula_structural       'Ca H2'
_chemical_formula_sum              'H2 Ca1'
_publ_section_title
;
Ca2 Li C3 H: A new complex carbide hydride phase grown in metal flux
;
loop_
_citation_id
_citation_journal_abbrev
_citation_year
_citation_journal_volume
_citation_journal_issue
_citation_page_first
_citation_page_last
_citation_journal_id_ASTM
primary 'Journal of the American Chemical Society' 2010 132 49 17523 17530 JACSAT
_publ_author_name
;
Lang, D.A.;Zaikina, J.V.;Lovingood, D.D.;Gedris, T.E.;Latturner, S.E.
;
_cell_length_a                     5.9696(12)
_cell_length_b                     3.6022(8)
_cell_length_c                     6.8336(14)
_cell_angle_alpha                  90.00
_cell_angle_beta                   90.00
_cell_angle_gamma                  90.00
_cell_volume                       146.95
_cell_formula_units_Z              4
_symmetry_space_group_name_H-M     'P n m a'
_symmetry_Int_Tables_number        62
_refine_ls_R_factor_all            .0211
loop_
_symmetry_equiv_pos_site_id
_symmetry_equiv_pos_as_xyz
  1	'x+.5, y, -z+.5'
  2	'x, -y+.5, z'
  3	'-x+.5, y+.5, z+.5'
  4	'-x, -y, -z'
  5	'-x+.5, -y, z+.5'
  6	'-x, y+.5, -z'
  7	'x+.5, -y+.5, -z+.5'
  8	'x, y, z'
loop_
_atom_type_symbol
_atom_type_oxidation_number
Ca2+	2
H1-	-1
loop_
_atom_site_label
_atom_site_type_symbol
_atom_site_symmetry_multiplicity
_atom_site_Wyckoff_symbol
_atom_site_fract_x
_atom_site_fract_y
_atom_site_fract_z
_atom_site_occupancy
_atom_site_attached_hydrogens
_atom_site_U_iso_or_equiv
Ca1 Ca2+ 4 c 0.26043(5) 0.2500 0.39014(5) 1 0 0.0058(2) 
H1 H1- 4 c 0.138(4) 0.2500 0.072(3) 1 0 0.021(5) 
H2 H1- 4 c 0.029(3) 0.2500 0.672(3) 1 0 0.028(5) 

loop_
_atom_site_aniso_label
_atom_site_aniso_type_symbol
_atom_site_aniso_U_11
_atom_site_aniso_U_22
_atom_site_aniso_U_33
_atom_site_aniso_U_12
_atom_site_aniso_U_13
_atom_site_aniso_U_23
Ca1 Ca2+ 0.0053(3) 0.0058(3) 0.0063(3) 0.000 -0.00025(7) 0.000
#End of data_261185-ICSD


