data_12117-ICSD
#?2014 by Fachinformationszentrum Karlsruhe, and the U.S. Secretary of 
#Commerce on behalf of the United States.  All rights reserved.
_database_code_ICSD                12117
_audit_creation_date               1980/01/01
_chemical_name_systematic          'Cadmium Potassium Diphosphate'
_chemical_formula_structural       'Cd K2 P2 O7'
_chemical_formula_sum              'Cd1 K2 O7 P2'
_publ_section_title
;
Crystal structure of Ca K2 As2 O7 And Cd K2 P2 O7
;
loop_
_citation_id
_citation_journal_abbrev
_citation_year
_citation_journal_volume
_citation_page_first
_citation_page_last
_citation_journal_id_ASTM
primary 'Canadian Journal of Chemistry' 1976 54 3319 3324 CJCHAG
_publ_author_name                  'Faggiani, R.;Calvo, C.'
_cell_length_a                     9.737(2)
_cell_length_b                     5.548(1)
_cell_length_c                     12.766(2)
_cell_angle_alpha                  90.
_cell_angle_beta                   106.50(2)
_cell_angle_gamma                  90.
_cell_volume                       661.23
_cell_formula_units_Z              4
_symmetry_space_group_name_H-M     'C 1 2/c 1'
_symmetry_Int_Tables_number        15
_refine_ls_R_factor_all            .067
loop_
_symmetry_equiv_pos_site_id
_symmetry_equiv_pos_as_xyz
  1	'x, -y, z+.5'
  2	'-x, -y, -z'
  3	'-x, y, -z+.5'
  4	'x, y, z'
  5	'x+.5, -y+.5, z+.5'
  6	'-x+.5, -y+.5, -z'
  7	'-x+.5, y+.5, -z+.5'
  8	'x+.5, y+.5, z'
loop_
_atom_type_symbol
_atom_type_oxidation_number
Cd2+	2
K1+	1
O2-	-2
P5+	5
loop_
_atom_site_label
_atom_site_type_symbol
_atom_site_symmetry_multiplicity
_atom_site_Wyckoff_symbol
_atom_site_fract_x
_atom_site_fract_y
_atom_site_fract_z
_atom_site_occupancy
_atom_site_attached_hydrogens
Cd1 Cd2+ 4 c 0.25 0.25 0 1. 0 
K1 K1+ 8 f 0.3505(2) 0.2919(3) 0.3309(2) 1. 0 
P1 P5+ 8 f -.0281(2) 0.2833(3) 0.1298(1) 1. 0 
O1 O2- 4 e 0 0.1558(14) 0.25 1. 0 
O2 O2- 8 f 0.8776(6) 0.3209(11) 0.3793(5) 1. 0 
O3 O2- 8 f -.1060(6) 0.5182(10) 0.1341(4) 1. 0 
O4 O2- 8 f -.1140(6) 0.0951(11) 0.0553(5) 1. 0 

loop_
_atom_site_aniso_label
_atom_site_aniso_type_symbol
_atom_site_aniso_U_11
_atom_site_aniso_U_22
_atom_site_aniso_U_33
_atom_site_aniso_U_12
_atom_site_aniso_U_13
_atom_site_aniso_U_23
Cd1 Cd2+ 0.0071(3) 0.0074(3) 0.0072(3) 0 0.0018(2) 0
K1 K1+ 0.0123(7) 0.0090(6) 0.0230(8) 0.0010(5) 0.0055(6) 0.0000(5)
P1 P5+ 0.0053(6) 0.0060(7) 0.0074(7) 0.0000(5) 0.0016(5) 0.0000(5)
O1 O2- 0.026(4) 0.010(3) 0.005(3) 0 0.005(3) 0
O2 O2- 0.008(2) 0.014(2) 0.017(2) 0.001(2) 0.006(2) 0.001(2)
O3 O2- 0.013(2) 0.008(2) 0.012(2) 0.004(2) 0.001(2) 0.001(2)
O4 O2- 0.013(2) 0.013(2) 0.014(2) -.006(2) -.001(2) -.005(2)
#End of data_12117-ICSD


