data_420089-ICSD
#?2014 by Fachinformationszentrum Karlsruhe, and the U.S. Secretary of 
#Commerce on behalf of the United States.  All rights reserved.
_database_code_ICSD                420089
_audit_creation_date               2009/08/01
_chemical_name_systematic          'Dipotassium Dicadmium Tritelluride'
_chemical_formula_structural       'K2 Cd2 Te3'
_chemical_formula_sum              'Cd2 K2 Te3'
_publ_section_title
;
Syntheses, crystal and electronic structures of three new potassium 
cadmium(II)/zinc(II) tellurides: K2 Cd2 Te3, K6 Cd Te4 and K2 Zn Te2
;
loop_
_citation_id
_citation_journal_abbrev
_citation_year
_citation_journal_volume
_citation_journal_issue
_citation_page_first
_citation_page_last
_citation_journal_id_ASTM
primary 'Journal of Solid State Chemistry' 2009 182 5 1245 1251 JSSCBI
_publ_author_name
;
Li Minjie;Hu Chunli;Lei Xiaowu;Zhou Yong;Mao Jiang Gao
;
_cell_length_a                     13.259(3)
_cell_length_b                     15.785(3)
_cell_length_c                     14.266(3)
_cell_angle_alpha                  90.00
_cell_angle_beta                   94.033(4)
_cell_angle_gamma                  90.00
_cell_volume                       2978.38
_cell_formula_units_Z              12
_symmetry_space_group_name_H-M     'P 1 21/c 1'
_symmetry_Int_Tables_number        14
_refine_ls_R_factor_all            .0329
loop_
_symmetry_equiv_pos_site_id
_symmetry_equiv_pos_as_xyz
  1	'x, -y+.5, z+.5'
  2	'-x, -y, -z'
  3	'-x, y+.5, -z+.5'
  4	'x, y, z'
loop_
_atom_type_symbol
_atom_type_oxidation_number
Cd2+	2
K1+	1
Te2-	-2
loop_
_atom_site_label
_atom_site_type_symbol
_atom_site_symmetry_multiplicity
_atom_site_Wyckoff_symbol
_atom_site_fract_x
_atom_site_fract_y
_atom_site_fract_z
_atom_site_occupancy
_atom_site_attached_hydrogens
_atom_site_U_iso_or_equiv
K1 K1+ 4 e 0.14242(13) 0.03784(11) 0.43982(13) 1 0 0.0438(4) 
K2 K1+ 4 e 0.35725(11) 0.02473(10) 0.04584(12) 1 0 0.0355(4) 
K3 K1+ 4 e 0.24863(12) 0.02951(12) 0.73278(13) 1 0 0.0437(4) 
K4 K1+ 4 e 0.47481(13) 0.02614(13) 0.35412(13) 1 0 0.0463(4) 
K5 K1+ 4 e 0.73506(14) 0.27062(13) 0.23236(13) 1 0 0.0464(5) 
K6 K1+ 4 e 0.01891(14) 0.05362(13) 0.12250(12) 1 0 0.0478(5) 
Cd1 Cd2+ 4 e 0.44298(4) 0.23066(3) 0.18083(3) 1 0 0.02711(11) 
Cd2 Cd2+ 4 e 0.63029(4) 0.29073(3) 0.48124(4) 1 0 0.02993(12) 
Cd3 Cd2+ 4 e 0.86215(4) 0.19177(3) 0.49046(4) 1 0 0.02819(12) 
Cd4 Cd2+ 4 e 0.17764(4) 0.24975(3) 0.09545(3) 1 0 0.02694(11) 
Cd5 Cd2+ 4 e 0.31889(4) 0.25358(3) 0.38629(3) 1 0 0.02672(11) 
Cd6 Cd2+ 4 e 0.99350(4) 0.28985(4) 0.32365(4) 1 0 0.03345(13) 
Te1 Te2- 4 e 0.58456(3) 0.11146(3) 0.13875(3) 1 0 0.02423(10) 
Te2 Te2- 4 e 0.26047(3) 0.13844(3) 0.23869(3) 1 0 0.02308(10) 
Te3 Te2- 4 e 0.15627(3) 0.13974(3) 0.93281(3) 1 0 0.02351(10) 
Te4 Te2- 4 e 0.49063(3) 0.34526(3) 0.33287(3) 1 0 0.02390(10) 
Te5 Te2- 4 e 0.01258(3) 0.35038(3) 0.13739(3) 1 0 0.02662(10) 
Te6 Te2- 4 e 0.83456(3) 0.36683(3) 0.44054(3) 1 0 0.02627(10) 
Te7 Te2- 4 e 0.93300(4) 0.12236(3) 0.32549(3) 1 0 0.03108(11) 
Te8 Te2- 4 e 0.67018(3) 0.37972(3) 0.01579(4) 1 0 0.03272(12) 
Te9 Te2- 4 e 0.35263(3) 0.34808(3) 0.04994(3) 1 0 0.02310(10) 

loop_
_atom_site_aniso_label
_atom_site_aniso_type_symbol
_atom_site_aniso_U_11
_atom_site_aniso_U_22
_atom_site_aniso_U_33
_atom_site_aniso_U_12
_atom_site_aniso_U_13
_atom_site_aniso_U_23
K1 K1+ 0.0327(8) 0.0401(10) 0.0570(11) 0.0004(7) -0.0079(8) -0.0020(8)
K2 K1+ 0.0280(7) 0.0335(8) 0.0444(9) 0.0022(6) -0.0014(7) -0.0117(7)
K3 K1+ 0.0358(9) 0.0469(11) 0.0482(10) -0.0014(7) 0.0015(8) 0.0126(8)
K4 K1+ 0.0362(9) 0.0584(12) 0.0447(10) 0.0059(8) 0.0048(8) 0.0137(9)
K5 K1+ 0.0416(9) 0.0541(12) 0.0417(10) -0.0040(8) -0.0109(8) -0.0072(8)
K6 K1+ 0.0438(10) 0.0632(13) 0.0373(9) -0.0096(9) 0.0108(8) -0.0116(9)
Cd1 Cd2+ 0.0254(2) 0.0285(3) 0.0272(3) 0.0043(2) 0.0001(2) -0.0026(2)
Cd2 Cd2+ 0.0335(3) 0.0288(3) 0.0272(3) 0.0070(2) 0.0003(2) -0.0005(2)
Cd3 Cd2+ 0.0236(2) 0.0301(3) 0.0311(3) 0.0001(2) 0.0035(2) 0.0018(2)
Cd4 Cd2+ 0.0231(2) 0.0277(3) 0.0297(3) 0.00060(19) 0.0000(2) 0.0007(2)
Cd5 Cd2+ 0.0255(2) 0.0294(3) 0.0254(2) 0.00162(19) 0.0025(2) -0.0014(2)
Cd6 Cd2+ 0.0298(3) 0.0378(3) 0.0321(3) -0.0074(2) -0.0024(2) -0.0008(2)
Te1 Te2- 0.0243(2) 0.0241(2) 0.0244(2) 0.00369(16) 0.00309(17) 0.00174(17)
Te2 Te2- 0.0214(2) 0.0263(2) 0.0213(2) -0.00106(16) -0.00019(17) 
-0.00015(17)
Te3 Te2- 0.01918(19) 0.0273(2) 0.0237(2) -0.00096(16) -0.00082(17) 
0.00130(17)
Te4 Te2- 0.0217(2) 0.0249(2) 0.0246(2) -0.00129(16) -0.00227(17) 
-0.00174(17)
Te5 Te2- 0.0223(2) 0.0316(2) 0.0256(2) 0.00355(17) -0.00138(18) 0.00030(18)
Te6 Te2- 0.01878(19) 0.0232(2) 0.0373(3) -0.00033(16) 0.00499(18) 
-0.00358(18)
Te7 Te2- 0.0321(2) 0.0285(2) 0.0328(3) 0.00083(19) 0.0032(2) -0.00889(19)
Te8 Te2- 0.0208(2) 0.0247(2) 0.0527(3) 0.00192(17) 0.0022(2) -0.0055(2)
Te9 Te2- 0.02115(19) 0.0235(2) 0.0243(2) -0.00120(16) -0.00074(17) 
0.00087(17)
#End of data_420089-ICSD


