data_6311-ICSD
#?2014 by Fachinformationszentrum Karlsruhe, and the U.S. Secretary of 
#Commerce on behalf of the United States.  All rights reserved.
_database_code_ICSD                6311
_audit_creation_date               1980/01/01
_audit_update_record               2011/02/01
_chemical_name_systematic          'Dimagnesium Silicate - Beta, Lt'
_chemical_formula_structural       'Mg2 (Si O4)'
_chemical_formula_sum              'Mg2 O4 Si1'
_publ_section_title
;
Crystal structure of beta- Mg2 Si O4 : crystal-chemical and 
geophysical implications
;
loop_
_citation_id
_citation_journal_abbrev
_citation_year
_citation_journal_volume
_citation_page_first
_citation_page_last
_citation_journal_id_ASTM
primary 'Physics of the Earth and Planetary Interiors' 1970 3 166 177 PEPIAM
_publ_author_name                  'Moore, P.B.;Smith, J.V.'
_cell_length_a                     8.248(1)
_cell_length_b                     11.444(2)
_cell_length_c                     5.6960(5)
_cell_angle_alpha                  90.
_cell_angle_beta                   90.
_cell_angle_gamma                  90.
_cell_volume                       537.65
_cell_formula_units_Z              8
_symmetry_space_group_name_H-M     'I b m m'
_symmetry_Int_Tables_number        74
_refine_ls_R_factor_all            .19
loop_
_symmetry_equiv_pos_site_id
_symmetry_equiv_pos_as_xyz
  1	'-x, -y, z+.5'
  2	'x, -y, -z+.5'
  3	'x, -y, z'
  4	'-x, -y, -z'
  5	'x, y, -z+.5'
  6	'-x, y, z+.5'
  7	'-x, y, -z'
  8	'x, y, z'
  9	'-x+.5, -y+.5, z'
 10	'x+.5, -y+.5, -z'
 11	'x+.5, -y+.5, z+.5'
 12	'-x+.5, -y+.5, -z+.5'
 13	'x+.5, y+.5, -z'
 14	'-x+.5, y+.5, z'
 15	'-x+.5, y+.5, -z+.5'
 16	'x+.5, y+.5, z+.5'
loop_
_atom_type_symbol
_atom_type_oxidation_number
Mg2+	2
O2-	-2
Si4+	4
loop_
_atom_site_label
_atom_site_type_symbol
_atom_site_symmetry_multiplicity
_atom_site_Wyckoff_symbol
_atom_site_fract_x
_atom_site_fract_y
_atom_site_fract_z
_atom_site_occupancy
_atom_site_attached_hydrogens
_atom_site_B_iso_or_equiv
Si1 Si4+ 8 i 0.1316(12) 0.1268(8) 0.25 1. 0 0.31 
Mg1 Mg2+ 4 e 0.2271(13) 0 0.75 1. 0 0.31 
Mg2 Mg2+ 4 d 0.25 0.25 0.75 1. 0 0.31 
Mg3 Mg2+ 8 f 0 0.3675(7) 0 1. 0 0.31 
O1 O2- 4 e 0.0496(38) 0 0.25 1. 0 0.56 
O2 O2- 4 e 0.5289(37) 0 0.25 1. 0 0.56 
O3 O2- 8 i 0.9779(25) 0.2353(18) 0.25 1. 0 0.56 
O4 O2- 16 j 0.2550(19) 0.3757(12) 0.0245(26) 1. 0 0.56 

#End of data_6311-ICSD


