data_15259-ICSD
#?2014 by Fachinformationszentrum Karlsruhe, and the U.S. Secretary of 
#Commerce on behalf of the United States.  All rights reserved.
_database_code_ICSD                15259
_audit_creation_date               1981/12/31
_chemical_name_systematic
;
Potassium Antimony Trifluoride Nitrate
;
_chemical_formula_structural       'K Sb F3 N O3'
_chemical_formula_sum              'F3 K1 N1 O3 Sb1'
_publ_section_title
;
Structure cristalline et moleculaire de K Sb F3 N O3
;
loop_
_citation_id
_citation_journal_abbrev
_citation_year
_citation_journal_volume
_citation_page_first
_citation_page_last
_citation_journal_id_ASTM
primary 'Journal of Fluorine Chemistry' 1981 17 215 224 JFLCAR
_publ_author_name
;
Bourgault, M.;Ducourant, M.B.;Mascherpa-Corral, D.;Fourcade, R.
;
_cell_length_a                     7.911(2)
_cell_length_b                     7.861(1)
_cell_length_c                     18.092(3)
_cell_angle_alpha                  90.
_cell_angle_beta                   90.
_cell_angle_gamma                  90.
_cell_volume                       1125.11
_cell_formula_units_Z              8
_symmetry_space_group_name_H-M     'P b c a'
_symmetry_Int_Tables_number        61
_refine_ls_R_factor_all            .044
loop_
_symmetry_equiv_pos_site_id
_symmetry_equiv_pos_as_xyz
  1	'x+.5, y, -z+.5'
  2	'x, -y+.5, z+.5'
  3	'-x+.5, y+.5, z'
  4	'-x, -y, -z'
  5	'-x+.5, -y, z+.5'
  6	'-x, y+.5, -z+.5'
  7	'x+.5, -y+.5, -z'
  8	'x, y, z'
loop_
_atom_type_symbol
_atom_type_oxidation_number
F1-	-1
K1+	1
N5+	5
O2-	-2
Sb3+	3
loop_
_atom_site_label
_atom_site_type_symbol
_atom_site_symmetry_multiplicity
_atom_site_Wyckoff_symbol
_atom_site_fract_x
_atom_site_fract_y
_atom_site_fract_z
_atom_site_occupancy
_atom_site_attached_hydrogens
Sb1 Sb3+ 8 c 0.55298(7) 0.07074(7) 0.39221(3) 1. 0 
K1 K1+ 8 c 0.4261(3) 0.5707(3) 0.3160(1) 1. 0 
F1 F1- 8 c 0.464(1) -.0883(8) 0.3175(4) 1. 0 
F2 F1- 8 c 0.4124(8) 0.2311(9) 0.3400(3) 1. 0 
F3 F1- 8 c 0.7283(9) 0.1150(8) 0.3202(4) 1. 0 
O1 O2- 8 c 0.733(1) 0.473(1) 0.5390(4) 1. 0 
O2 O2- 8 c 0.531(1) 0.289(1) 0.5321(4) 1. 0 
O3 O2- 8 c 0.678(1) 0.348(1) 0.4359(4) 1. 0 
N1 N5+ 8 c 0.649(1) 0.369(1) 0.5033(5) 1. 0 

loop_
_atom_site_aniso_label
_atom_site_aniso_type_symbol
_atom_site_aniso_U_11
_atom_site_aniso_U_22
_atom_site_aniso_U_33
_atom_site_aniso_U_12
_atom_site_aniso_U_13
_atom_site_aniso_U_23
Sb1 Sb3+ 0.0271 0.0213 0.0242 0.0003 0.001 -.0038
K1 K1+ 0.04 0.025 0.031 0.0005 0.0072 0.0058
F1 F1- 0.075 0.03 0.036 -.026 0.004 0.006
F2 F1- 0.041 0.03 0.06 -.003 0.038 -.024
F3 F1- 0.042 0.045 0.041 -.008 -.023 -.009
O1 O2- 0.038 0.041 0.043 -.012 0.009 0.017
O2 O2- 0.053 0.034 0.045 -.019 -.035 -.003
O3 O2- 0.047 0.044 0.028 -.032 -.016 0.013
N1 N5+ 0.025 0.023 0.033 -.006 0.0004 -.003
#End of data_15259-ICSD


