data_97016-ICSD
#?2014 by Fachinformationszentrum Karlsruhe, and the U.S. Secretary of 
#Commerce on behalf of the United States.  All rights reserved.
_database_code_ICSD                97016
_audit_creation_date               2004/10/01
_chemical_name_systematic
;
Dilanthanum Magnesium Germanium Oxide
;
_chemical_formula_structural       'La2 Mg Ge O6'
_chemical_formula_sum              'Ge1 La2 Mg1 O6'
_publ_section_title
;
La2 Mg Ge O6 : a novel Ge based perovskite synthesised under ambient 
pressure
;
loop_
_citation_id
_citation_journal_abbrev
_citation_year
_citation_journal_volume
_citation_page_first
_citation_page_last
_citation_journal_id_ASTM
primary 'ChemComm - Chemical Communications' 2002 2002 1776 1777 CHCOFS
_publ_author_name
;
Swaffer, M.;Slater, P.R.;Gover, R.K.B.;Matsumura, T.;Kanno, 
R.;Kamiyama, T.
;
_cell_length_a                     5.5125(1)
_cell_length_b                     5.5125(1)
_cell_length_c                     13.3295(2)
_cell_angle_alpha                  90
_cell_angle_beta                   90
_cell_angle_gamma                  120
_cell_volume                       350.79
_cell_formula_units_Z              3
_symmetry_space_group_name_H-M     'R 3 H'
_symmetry_Int_Tables_number        146
_refine_ls_R_factor_all            .0217
loop_
_symmetry_equiv_pos_site_id
_symmetry_equiv_pos_as_xyz
  1	'-x+y, -x, z'
  2	'-y, x-y, z'
  3	'x, y, z'
  4	'-x+y+.6666, -x+.3333, z+.3333'
  5	'-x+y+.3333, -x+.6666, z+.6666'
  6	'-y+.6666, x-y+.3333, z+.3333'
  7	'-y+.3333, x-y+.6666, z+.6666'
  8	'x+.6666, y+.3333, z+.3333'
  9	'x+.3333, y+.6666, z+.6666'
loop_
_atom_type_symbol
_atom_type_oxidation_number
Ge4+	4
La3+	3
Mg2+	2
O2-	-2
loop_
_atom_site_label
_atom_site_type_symbol
_atom_site_symmetry_multiplicity
_atom_site_Wyckoff_symbol
_atom_site_fract_x
_atom_site_fract_y
_atom_site_fract_z
_atom_site_occupancy
_atom_site_attached_hydrogens
_atom_site_B_iso_or_equiv
La1 La3+ 3 a 0 0 0.248(3) 1. 0 0.31(6) 
La2 La3+ 3 a 0 0 0.752(2) 1. 0 0.19(6) 
Mg1 Mg2+ 3 a 0 0 0 1. 0 0.1(1) 
Ge1 Ge4+ 3 a 0 0 0.503(3) 1. 0 0.2(1) 
O1 O2- 9 b 0.119(2) 0.354(2) 0.089(2) 1. 0 0.5(2) 
O2 O2- 9 b 0.112(2) 0.789(2) 0.578(2) 1. 0 0.3(2) 

#End of data_97016-ICSD


