data_280250-ICSD
#?2014 by Fachinformationszentrum Karlsruhe, and the U.S. Secretary of 
#Commerce on behalf of the United States.  All rights reserved.
_database_code_ICSD                280250
_audit_creation_date               2002/04/01
_chemical_name_systematic
;
Cesium Zinc Hydrogenphosphate(V) Hydrate (1/2.5/3/2)
;
_chemical_formula_structural       'Cs Zn2.5 (H P O4)3 (H2 O)2'
_chemical_formula_sum              'H7 Cs1 O14 P3 Zn2.5'
_publ_section_title
;
New layered cesium zinc hydrogen phosphate, Cs Zn2.5 (H P O4)3 . 2(H2 
O); synthesis, crystal structure and thermal transformation
;
loop_
_citation_id
_citation_journal_abbrev
_citation_year
_citation_journal_volume
_citation_page_first
_citation_page_last
_citation_journal_id_ASTM
primary
;
Journal of the Chemical Society. Dalton Transactions, Inorganic 
Chemistry (1972-)
;
 2000 2000 2831 2835 JCDTBI
_publ_author_name                  'Jensen, T.R.;Hazell, R.G.'
_cell_length_a                     8.3918(6)
_cell_length_b                     9.8254(8)
_cell_length_c                     9.9090(7)
_cell_angle_alpha                  111.172(1)
_cell_angle_beta                   111.751(1)
_cell_angle_gamma                  97.560(1)
_cell_volume                       673.59
_cell_formula_units_Z              2
_symmetry_space_group_name_H-M     'P -1'
_symmetry_Int_Tables_number        2
_refine_ls_R_factor_all            .032
loop_
_symmetry_equiv_pos_site_id
_symmetry_equiv_pos_as_xyz
  1	'-x, -y, -z'
  2	'x, y, z'
loop_
_atom_type_symbol
_atom_type_oxidation_number
Cs1+	1
H1+	1
O2-	-2
P5+	5
Zn2+	2
loop_
_atom_site_label
_atom_site_type_symbol
_atom_site_symmetry_multiplicity
_atom_site_Wyckoff_symbol
_atom_site_fract_x
_atom_site_fract_y
_atom_site_fract_z
_atom_site_occupancy
_atom_site_attached_hydrogens
_atom_site_U_iso_or_equiv
Cs1 Cs1+ 2 i -.02262(5) -.50150(4) 0.26230(5) 1. 0 0 
Zn1 Zn2+ 2 i 0.44669(8) -.16530(7) 0.27435(7) 1. 0 0 
Zn2 Zn2+ 2 i -.07054(8) -.16935(7) 0.07159(7) 1. 0 0 
Zn3 Zn2+ 1 h 0.5 -.5 0.5 1. 0 0 
P1 P5+ 2 i 0.2700(2) -.0521(2) 0.0318(2) 1. 0 0 
P2 P5+ 2 i 0.3716(2) -.5157(1) 0.1356(2) 1. 0 0 
P3 P5+ 2 i 0.1866(2) -.0611(1) 0.4289(2) 1. 0 0 
O1 O2- 2 i 0.2319(5) 0.1017(4) 0.0695(5) 1. 0 0 
O2 O2- 2 i 0.1217(5) -.1777(4) 0.0082(5) 1. 0 0 
O3 O2- 2 i 0.4517(5) -.0307(4) 0.1678(4) 1. 0 0 
O4 O2- 2 i 0.2800(6) -.1141(5) -.1331(5) 1. 0 0 
O5 O2- 2 i 0.4197(5) -.3686(4) 0.1183(4) 1. 0 0 
O6 O2- 2 i 0.3762(5) -.4827(5) 0.2952(5) 1. 0 0 
O7 O2- 2 i 0.1912(5) -.6194(4) -.0075(5) 1. 0 0 
O8 O2- 2 i 0.5226(5) -.5952(5) 0.1275(5) 1. 0 0 
O9 O2- 2 i 0.3178(5) 0.0968(4) 0.5397(4) 1. 0 0 
O10 O2- 2 i 0.0201(5) -.0485(4) 0.3048(4) 1. 0 0 
O11 O2- 2 i 0.2653(5) -.1766(4) 0.3498(5) 1. 0 0 
O12 O2- 2 i 0.1270(5) -.1311(4) 0.5304(5) 1. 0 0 
O13 O2- 2 i 0.2758(6) -.6998(5) 0.3985(5) 1. 0 0 
O14 O2- 2 i 0.6484(6) -.6435(6) 0.4022(5) 1. 0 0 
H1 H1+ 2 i 0.288(7) -.777(7) 0.422(7) 1. 0 0.01(1) 
H2 H1+ 2 i 0.250(17) 0.192(14) 0.282(15) 1. 0 0.12(5) 
H3 H1+ 2 i 0.590(12) -.623(10) 0.308(11) 1. 0 0.06(3) 
H4 H1+ 2 i 0.629(12) -.707(10) 0.430(11) 1. 0 0.05(3) 
H5 H1+ 2 i 0.348(10) -.083(9) -.138(10) 1. 0 0.03(3) 
H6 H1+ 2 i 0.550(9) -.607(7) 0.036(8) 1. 0 0.02(2) 
H7 H1+ 2 i 0.050(11) -.062(9) 0.582(9) 1. 0 0.05(2) 

loop_
_atom_site_aniso_label
_atom_site_aniso_type_symbol
_atom_site_aniso_U_11
_atom_site_aniso_U_22
_atom_site_aniso_U_33
_atom_site_aniso_U_12
_atom_site_aniso_U_13
_atom_site_aniso_U_23
Cs1 Cs1+ 0.0271(3) 0.0257(3) 0.0293(3) 0.0066(2) 0.0076(2) 0.0107(2)
Zn1 Zn2+ 0.0154(4) 0.0098(4) 0.0128(4) 0.0036(3) 0.0055(3) 0.0051(3)
Zn2 Zn2+ 0.0142(4) 0.0111(4) 0.0128(4) 0.0028(3) 0.0042(3) 0.0055(3)
Zn3 Zn2+ 0.0204(5) 0.0186(6) 0.0140(5) 0.0061(4) 0.0068(4) 0.0092(4)
P1 P5+ 0.0128(7) 0.0117(7) 0.0166(7) 0.0034(5) 0.0060(5) 0.0088(6)
P2 P5+ 0.0143(7) 0.0108(7) 0.0124(7) 0.0029(5) 0.0049(5) 0.0063(6)
P3 P5+ 0.0132(7) 0.0107(7) 0.0125(7) 0.0039(5) 0.0059(5) 0.0048(5)
O1 O2- 0.024(2) 0.015(2) 0.022(2) 0.006(2) 0.003(2) 0.009(2)
O2 O2- 0.022(2) 0.013(2) 0.027(2) 0.001(2) 0.014(2) 0.005(2)
O3 O2- 0.016(2) 0.017(2) 0.023(2) 0.006(2) 0.004(2) 0.013(2)
O4 O2- 0.024(2) 0.029(3) 0.022(2) 0.001(2) 0.014(2) 0.008(2)
O5 O2- 0.025(2) 0.008(2) 0.018(2) 0.004(2) 0.014(2) 0.005(2)
O6 O2- 0.030(2) 0.026(2) 0.021(2) 0.016(2) 0.016(2) 0.014(2)
O7 O2- 0.026(2) 0.015(2) 0.019(2) 0.001(2) 0.003(2) 0.010(2)
O8 O2- 0.029(2) 0.024(2) 0.023(2) 0.012(2) 0.017(2) 0.013(2)
O9 O2- 0.017(2) 0.010(2) 0.018(2) 0.003(2) -.003(2) 0.004(2)
O10 O2- 0.018(2) 0.015(2) 0.015(2) 0.003(2) 0.005(2) 0.005(2)
O11 O2- 0.027(2) 0.014(2) 0.032(2) 0.013(2) 0.021(2) 0.010(2)
O12 O2- 0.030(2) 0.022(2) 0.026(2) 0.009(2) 0.019(2) 0.016(2)
O13 O2- 0.040(3) 0.022(2) 0.026(2) -.002(2) 0.002(2) 0.016(2)
O14 O2- 0.042(3) 0.033(3) 0.023(2) 0.023(2) 0.012(2) 0.013(2)
#End of data_280250-ICSD


