data_28121-ICSD
#?2014 by Fachinformationszentrum Karlsruhe, and the U.S. Secretary of 
#Commerce on behalf of the United States.  All rights reserved.
_database_code_ICSD                28121
_audit_creation_date               1980/01/01
_audit_update_record               1988/01/22
_chemical_name_systematic          'Sodium Calcium Vanadate'
_chemical_formula_structural       'Na Ca V O4'
_chemical_formula_sum              'Ca1 Na1 O4 V1'
_publ_section_title
;
Sur quelques solutions solides de structure Sr3 (P O4)2 caracterisees 
par des substitutions lacunaires ou couplees
;
loop_
_citation_id
_citation_journal_abbrev
_citation_year
_citation_journal_volume
_citation_page_first
_citation_page_last
_citation_journal_id_ASTM
primary 'Bulletin de la Societe Chimique de France (Vol=Year)'
 1968 1968 2769 2780 BSCFAS
_publ_author_name                  'le Flem, G.;Olazcuaga, R.'
_cell_length_a                     5.860(7)
_cell_length_b                     9.255(13)
_cell_length_c                     7.124(15)
_cell_angle_alpha                  90.
_cell_angle_beta                   90.
_cell_angle_gamma                  90.
_cell_volume                       386.37
_cell_formula_units_Z              4
_symmetry_space_group_name_H-M     'C m c m'
_symmetry_Int_Tables_number        63
_refine_ls_R_factor_all            .15
loop_
_symmetry_equiv_pos_site_id
_symmetry_equiv_pos_as_xyz
  1	'-x, y, -z+.5'
  2	'-x, -y, z+.5'
  3	'-x, y, z'
  4	'-x, -y, -z'
  5	'x, -y, z+.5'
  6	'x, y, -z+.5'
  7	'x, -y, -z'
  8	'x, y, z'
  9	'-x+.5, y+.5, -z+.5'
 10	'-x+.5, -y+.5, z+.5'
 11	'-x+.5, y+.5, z'
 12	'-x+.5, -y+.5, -z'
 13	'x+.5, -y+.5, z+.5'
 14	'x+.5, y+.5, -z+.5'
 15	'x+.5, -y+.5, -z'
 16	'x+.5, y+.5, z'
loop_
_atom_type_symbol
_atom_type_oxidation_number
Ca2+	2
Na1+	1
O2-	-2
V5+	5
loop_
_atom_site_label
_atom_site_type_symbol
_atom_site_symmetry_multiplicity
_atom_site_Wyckoff_symbol
_atom_site_fract_x
_atom_site_fract_y
_atom_site_fract_z
_atom_site_occupancy
_atom_site_attached_hydrogens
Na1 Na1+ 4 b 0 0.5 0 1. 0 
Ca1 Ca2+ 4 c 0 0.17 0.25 1. 0 
V1 V5+ 4 c 0 0.848 0.25 1. 0 
O1 O2- 8 g 0.265 0.445 0.25 1. 0 
O2 O2- 8 f 0 0.25 0.56 1. 0 

#End of data_28121-ICSD


