data_50478-ICSD
#?2014 by Fachinformationszentrum Karlsruhe, and the U.S. Secretary of 
#Commerce on behalf of the United States.  All rights reserved.
_database_code_ICSD                50478
_audit_creation_date               1999/11/30
_chemical_name_systematic          'Disodium Ferrate(VI)'
_chemical_formula_structural       'Na2 (Fe O4)'
_chemical_formula_sum              'Fe1 Na2 O4'
_publ_section_title
;
Kombination von Ionenaustausch und Gefriertrocknung als Syntheseweg 
zu neuen Oxoferraten(VI) M2 Fe O4 mit M = Li, Na, N (CH3)4, N (C H3)3 
Bzl, N (C H3)3 Ph
;
loop_
_citation_id
_citation_journal_abbrev
_citation_year
_citation_journal_volume
_citation_page_first
_citation_page_last
_citation_journal_id_ASTM
primary 'Zeitschrift fuer Anorganische und Allgemeine Chemie (1950) (DE)'
 1998 624 1846 1854 ZAACAB
_publ_author_name                  'Malchus, M.;Jansen, M.'
_cell_length_a                     5.675(3)
_cell_length_b                     9.349(4)
_cell_length_c                     7.160(2)
_cell_angle_alpha                  90.
_cell_angle_beta                   90.
_cell_angle_gamma                  90.
_cell_volume                       379.88
_cell_formula_units_Z              4
_symmetry_space_group_name_H-M     'C m c m'
_symmetry_Int_Tables_number        63
_refine_ls_R_factor_all            .138
loop_
_symmetry_equiv_pos_site_id
_symmetry_equiv_pos_as_xyz
  1	'-x, y, -z+.5'
  2	'-x, -y, z+.5'
  3	'-x, y, z'
  4	'-x, -y, -z'
  5	'x, -y, z+.5'
  6	'x, y, -z+.5'
  7	'x, -y, -z'
  8	'x, y, z'
  9	'-x+.5, y+.5, -z+.5'
 10	'-x+.5, -y+.5, z+.5'
 11	'-x+.5, y+.5, z'
 12	'-x+.5, -y+.5, -z'
 13	'x+.5, -y+.5, z+.5'
 14	'x+.5, y+.5, -z+.5'
 15	'x+.5, -y+.5, -z'
 16	'x+.5, y+.5, z'
loop_
_atom_type_symbol
_atom_type_oxidation_number
Fe6+	6
Na1+	1
O2-	-2
loop_
_atom_site_label
_atom_site_type_symbol
_atom_site_symmetry_multiplicity
_atom_site_Wyckoff_symbol
_atom_site_fract_x
_atom_site_fract_y
_atom_site_fract_z
_atom_site_occupancy
_atom_site_attached_hydrogens
Na1 Na1+ 4 b 0 0.5 0 1. 0 
Na2 Na1+ 4 c 0 0.1688 0.25 1. 0 
Fe1 Fe6+ 4 c 0 0.8457 0.25 1. 0 
O1 O2- 8 g -.2348 0.9486 0.25 1. 0 
O2 O2- 8 f 0 0.7496 0.4408 1. 0 

#End of data_50478-ICSD


