data_109602-ICSD
#?2014 by Fachinformationszentrum Karlsruhe, and the U.S. Secretary of 
#Commerce on behalf of the United States.  All rights reserved.
_database_code_ICSD                109602
_audit_creation_date               2008/02/01
_chemical_name_systematic          'Disilver Oxalate'
_chemical_formula_structural       'Ag2 (C2 O4)'
_chemical_formula_sum              'C2 Ag2 O4'
_publ_section_title
;
Crystal structure of silver oxalate
;
loop_
_citation_id
_citation_journal_abbrev
_citation_year
_citation_journal_volume
_citation_page_first
_citation_page_last
_citation_journal_id_ASTM
primary 'Bulletin of the University of Kharkov, Chemistry'
 1975 127 38 41 BUKHCM
_publ_author_name                  'Kolesnikov, V.N.;Baumer, V.N.'
_cell_length_a                     3.48(2)
_cell_length_b                     9.58(4)
_cell_length_c                     6.22(3)
_cell_angle_alpha                  90
_cell_angle_beta                   90.
_cell_angle_gamma                  76.63(3)
_cell_volume                       201.74
_cell_formula_units_Z              2
_symmetry_space_group_name_H-M     'P 1 1 21/b'
_symmetry_Int_Tables_number        14
_refine_ls_R_factor_all            .133
loop_
_symmetry_equiv_pos_site_id
_symmetry_equiv_pos_as_xyz
  1	'x, y+.5, -z+.5'
  2	'-x, -y, -z'
  3	'-x, -y+.5, z+.5'
  4	'x, y, z'
loop_
_atom_type_symbol
_atom_type_oxidation_number
Ag1+	1
C3+	3
O2-	-2
loop_
_atom_site_label
_atom_site_type_symbol
_atom_site_symmetry_multiplicity
_atom_site_Wyckoff_symbol
_atom_site_fract_x
_atom_site_fract_y
_atom_site_fract_z
_atom_site_occupancy
_atom_site_attached_hydrogens
Ag1 Ag1+ 4 e 0.3603(9) 0.1575(9) 0.5048(9) 1. 0 
C1 C3+ 4 e 0.097(12) 0.001(12) 0.115(12) 1. 0 
O1 O2- 4 e 0.674(8) 0.108(8) 0.822(8) 1. 0 
O2 O2- 4 e -.009(8) 0.117(8) 0.218(8) 1. 0 

#End of data_109602-ICSD


