data_63393-ICSD
#?2014 by Fachinformationszentrum Karlsruhe, and the U.S. Secretary of 
#Commerce on behalf of the United States.  All rights reserved.
_database_code_ICSD                63393
_audit_creation_date               1990/12/27
_audit_update_record               2003/10/01
_chemical_name_systematic          'Dirubidium Tetrachlorozincate - Lt'
_chemical_formula_structural       'Rb2 (Zn Cl4)'
_chemical_formula_sum              'Cl4 Rb2 Zn1'
_publ_section_title
;
Crystal Structure of Rb2 Zn Cl4 in the Modulated Phases
;
loop_
_citation_id
_citation_journal_abbrev
_citation_year
_citation_journal_volume
_citation_page_first
_citation_page_last
_citation_journal_id_ASTM
primary 'Journal of the Physical Society of Japan' 1989 58 2070 2074 JUPSAU
2 'Phase Transition' 1992 38 127 220 PHTRDP
_publ_author_name
;
Itoh, K.;Hinasada, A.;Daiki, M.;Nakamura, E.
;
_cell_length_a                     7.236(1)
_cell_length_b                     12.617(2)
_cell_length_c                     27.593(3)
_cell_angle_alpha                  90.
_cell_angle_beta                   90.
_cell_angle_gamma                  90.
_cell_volume                       2519.15
_cell_formula_units_Z              12
_symmetry_space_group_name_H-M     'P 21 c n'
_symmetry_Int_Tables_number        33
_refine_ls_R_factor_all            .03
loop_
_symmetry_equiv_pos_site_id
_symmetry_equiv_pos_as_xyz
  1	'x, -y+.5, z+.5'
  2	'x+.5, y+.5, -z+.5'
  3	'x+.5, -y, -z'
  4	'x, y, z'
loop_
_atom_type_symbol
_atom_type_oxidation_number
Cl1-	-1
Rb1+	1
Zn2+	2
loop_
_atom_site_label
_atom_site_type_symbol
_atom_site_symmetry_multiplicity
_atom_site_Wyckoff_symbol
_atom_site_fract_x
_atom_site_fract_y
_atom_site_fract_z
_atom_site_occupancy
_atom_site_attached_hydrogens
Rb1 Rb1+ 4 a 0.2730(1) 0.68062(7) 0.17097(3) 1. 0 
Rb2 Rb1+ 4 a 0.2449(1) 0.68110(6) 0.50434(3) 1. 0 
Rb3 Rb1+ 4 a 0.2770(1) 0.68106(7) 0.83716(3) 1. 0 
Rb4 Rb1+ 4 a 0.2788(1) 0.40432(9) 0.29067(3) 1. 0 
Rb5 Rb1+ 4 a 0.2609(1) 0.40348(9) 0.62302(3) 1. 0 
Rb6 Rb1+ 4 a 0.2444(1) 0.40937(8) 0.95724(3) 1. 0 
Zn1 Zn2+ 4 a 0.25 0.42132(9) 0.09265(4) 1. 0 
Zn2 Zn2+ 4 a 0.2703(1) 0.42202(9) 0.42581(4) 1. 0 
Zn3 Zn2+ 4 a 0.2653(1) 0.42149(9) 0.75852(4) 1. 0 
Cl1 Cl1- 4 a 0.2329(4) 0.4187(2) 0.17348(7) 1. 0 
Cl2 Cl1- 4 a 0.3125(4) 0.4235(2) 0.50635(8) 1. 0 
Cl3 Cl1- 4 a 0.2437(4) 0.4199(2) 0.83940(8) 1. 0 
Cl4 Cl1- 4 a 0.2230(4) 0.5842(2) 0.05946(7) 1. 0 
Cl5 Cl1- 4 a 0.2244(4) 0.5834(2) 0.39204(7) 1. 0 
Cl6 Cl1- 4 a 0.3189(4) 0.5832(2) 0.72532(8) 1. 0 
Cl7 Cl1- 4 a 0.0231(4) 0.3210(2) 0.06127(2) 1. 0 
Cl8 Cl1- 4 a 0.0379(3) 0.3155(2) 0.40387(8) 1. 0 
Cl9 Cl1- 4 a -.0012(3) 0.3644(2) 0.72531(8) 1. 0 
Cl10 Cl1- 4 a 0.5197(3) 0.3549(2) 0.06421(9) 1. 0 
Cl11 Cl1- 4 a 0.5344(3) 0.3609(2) 0.39009(7) 1. 0 
Cl12 Cl1- 4 a 0.4921(3) 0.3114(2) 0.73401(9) 1. 0 

loop_
_atom_site_aniso_label
_atom_site_aniso_type_symbol
_atom_site_aniso_U_11
_atom_site_aniso_U_22
_atom_site_aniso_U_33
_atom_site_aniso_U_12
_atom_site_aniso_U_13
_atom_site_aniso_U_23
Rb1 Rb1+ 0.0286(5) 0.0171(4) 0.0131(4) 0.0004(4) -0.0010(3) -0.0012(3)
Rb2 Rb1+ 0.0264(5) 0.0165(4) 0.0133(3) -0.0040(4) 0.0023(3) -0.0002(3)
Rb3 Rb1+ 0.0284(5) 0.0168(4) 0.0138(4) 0.0018(4) -0.0018(4) -0.0007(3)
Rb4 Rb1+ 0.0327(5) 0.0474(6) 0.0141(4) -0.0015(5) -0.0030(4) 0.0003(4)
Rb5 Rb1+ 0.0364(6) 0.0567(7) 0.0135(4) 0.0086(5) 0.0036(4) 0.0023(4)
Rb6 Rb1+ 0.0362(6) 0.0451(6) 0.0123(4) 0.0016(5) 0.0003(4) 0.0007(4)
Zn1 Zn2+ 0.0220(6) 0.0193(5) 0.0165(5) 0.0019(5) -0.0032(5) 0.0000(4)
Zn2 Zn2+ 0.0208(6) 0.0202(5) 0.0163(5) 0.0037(5) -0.0015(4) -0.0002(4)
Zn3 Zn2+ 0.0209(6) 0.0220(5) 0.0150(5) 0.0026(5) -0.0021(4) 0.0012(4)
Cl1 Cl1- 0.051(2) 0.027(1) 0.005(1) -0.008(1) -0.006(1) 0.003(1)
Cl2 Cl1- 0.037(1) 0.026(1) 0.008(1) 0.015(1) -0.001(1) 0.002(1)
Cl3 Cl1- 0.055(2) 0.024(1) 0.006(1) -0.010(1) -0.001(1) 0.003(1)
Cl4 Cl1- 0.051(2) 0.014(1) 0.012(1) 0.004(1) -0.003(1) 0.005(1)
Cl5 Cl1- 0.038(1) 0.013(1) 0.009(1) 0.005(1) 0.000(1) 0.005(1)
Cl6 Cl1- 0.043(1) 0.013(1) 0.013(1) -0.006(1) 0.000(1) 0.005(1)
Cl7 Cl1- 0.026(1) 0.053(2) 0.020(1) -0.025(1) 0.004(1) -0.017(1)
Cl8 Cl1- 0.022(1) 0.033(1) 0.028(1) -0.011(1) 0.003(1) -0.012(1)
Cl9 Cl1- 0.018(1) 0.037(1) 0.017(1) -0.007(1) -0.003(1) -0.005(1)
Cl10 Cl1- 0.015(1) 0.040(1) 0.029(1) 0.015(1) -0.005(1) -0.017(1)
Cl11 Cl1- 0.010(1) 0.034(1) 0.011(1) 0.011(1) -0.001(1) -0.004(1)
Cl12 Cl1- 0.018(1) 0.039(1) 0.028(1) 0.016(1) -0.002(1) -0.001(1)
#End of data_63393-ICSD


