data_9171-ICSD
#?2014 by Fachinformationszentrum Karlsruhe, and the U.S. Secretary of 
#Commerce on behalf of the United States.  All rights reserved.
_database_code_ICSD                9171
_audit_creation_date               1986/08/06
_audit_update_record               2012/02/01
_chemical_name_systematic          'Sodium Silicate Hexahydrate *'
_chemical_formula_structural       'Na2 Si O3 (H2 O)6'
_chemical_formula_sum              'H12 Na2 O9 Si1'
_publ_section_title
;
Sodium Silicate Hydrates. IV. Location of Hydrogen Atoms in (Na2 O) 
(Si O2) (H2 O)6 by Neutron Diffraction
;
loop_
_citation_id
_citation_journal_abbrev
_citation_year
_citation_journal_volume
_citation_page_first
_citation_page_last
_citation_journal_id_ASTM
primary 'Acta Crystallographica B (24,1968-38,1982)' 1971 27 2269 2275 ACBCAR
_publ_author_name                  'Williams, P.P.;Dent Glasser, L.S.'
_cell_length_a                     11.43
_cell_length_b                     5.96
_cell_length_c                     6.34
_cell_angle_alpha                  90.
_cell_angle_beta                   102.1
_cell_angle_gamma                  90.
_cell_volume                       422.3
_cell_formula_units_Z              2
_symmetry_space_group_name_H-M     'P 1 21 1'
_symmetry_Int_Tables_number        4
_refine_ls_R_factor_all            .056
loop_
_symmetry_equiv_pos_site_id
_symmetry_equiv_pos_as_xyz
  1	'-x, y+.5, -z'
  2	'x, y, z'
loop_
_atom_type_symbol
_atom_type_oxidation_number
H1+	1
Na1+	1
O2-	-2
Si4+	4
loop_
_atom_site_label
_atom_site_type_symbol
_atom_site_symmetry_multiplicity
_atom_site_Wyckoff_symbol
_atom_site_fract_x
_atom_site_fract_y
_atom_site_fract_z
_atom_site_occupancy
_atom_site_attached_hydrogens
_atom_site_B_iso_or_equiv
Si1 Si4+ 2 a 0.1271(6) 0.0156 0.208(1) 1. 0 1.1 
Na1 Na1+ 2 a 0.3836(8) 0.462(2) 0.926(2) 1. 0 1.7 
Na2 Na1+ 2 a 0.1274(8) 0.503(2) 0.570(2) 1. 0 1.9 
O1 O2- 2 a 0.2634(5) 0.991(1) 0.3328(9) 1. 0 1.3 
O2 O2- 2 a 0.1010(5) 0.987(1) -.0468(9) 1. 0 1.6 
O3 O2- 2 a 0.0453(5) 0.818(1) 0.3062(9) 1. 0 1.6 
O4 O2- 2 a 0.0787(5) 0.266(1) 0.274(1) 1. 0 1.9 
O5 O2- 2 a 0.2711(6) 0.143(1) 0.744(1) 1. 0 1.8 
O6 O2- 2 a 0.4143(5) 0.320(1) 0.296(1) 1. 0 1.8 
O7 O2- 2 a 0.3394(5) 0.630(1) 0.559(1) 1. 0 1.8 
O8 O2- 2 a 0.4179(5) 0.851(1) 0.0585(9) 1. 0 1.8 
O9 O2- 2 a 0.1852(5) 0.557(1) 0.948(1) 1. 0 1.8 
H1 H1+ 2 a -.0048(9) 0.721(2) 0.207(2) 1. 0 2.6 
H2 H1+ 2 a 0.0125(8) 0.337(2) 0.189(2) 1. 0 2.3 
H3 H1+ 2 a 0.209(1) 0.087(2) 0.809(2) 1. 0 3.1 
H4 H1+ 2 a 0.268(1) 0.087(2) 0.607(2) 1. 0 2.9 
H5 H1+ 2 a 0.361(1) 0.190(2) 0.314(2) 1. 0 2.9 
H6 H1+ 2 a 0.493(1) 0.258(2) 0.344(2) 1. 0 2.9 
H7 H1+ 2 a 0.366(1) 0.525(2) 0.467(2) 1. 0 3.1 
H8 H1+ 2 a 0.3120(8) 0.758(2) 0.477(2) 1. 0 1.9 
H9 H1+ 2 a 0.378(1) 0.946(2) 0.933(2) 1. 0 3.2 
H10 H1+ 2 a 0.370(1) 0.880(2) 0.156(2) 1. 0 3.1 
H11 H1+ 2 a 0.156(1) 0.481(2) 0.047(2) 1. 0 4.1 
H12 H1+ 2 a 0.1617(9) 0.712(2) 0.962(2) 1. 0 2.7 

#End of data_9171-ICSD


