data_165215-ICSD
#?2014 by Fachinformationszentrum Karlsruhe, and the U.S. Secretary of 
#Commerce on behalf of the United States.  All rights reserved.
_database_code_ICSD                165215
_audit_creation_date               2010/02/01
_chemical_name_systematic          'Potassium Hexafluororhodate(V)'
_chemical_formula_structural       'K (Rh F6)'
_chemical_formula_sum              'F6 K1 Rh1'
_publ_section_title
;
M-F interatomic distances and effective volumes of second and third 
transition series (M F6)- and (M F6)2- anions
;
loop_
_citation_id
_citation_journal_abbrev
_citation_year
_citation_journal_volume
_citation_journal_issue
_citation_page_first
_citation_page_last
_citation_journal_id_ASTM
primary 'Inorganic Chemistry' 2000 39 13 2794 2800 INOCAJ
_publ_author_name
;
Graudejus, O.;Wilkinson, A.P.;Chacon, L.C.;Bartlett, N.
;
_cell_length_a                     7.4060(2)
_cell_length_b                     7.4060(2)
_cell_length_c                     7.2714(2)
_cell_angle_alpha                  90.
_cell_angle_beta                   90.
_cell_angle_gamma                  120.
_cell_volume                       345.4
_cell_formula_units_Z              3
_symmetry_space_group_name_H-M     'R -3 H'
_symmetry_Int_Tables_number        148
_refine_ls_R_factor_all            .026
loop_
_symmetry_equiv_pos_site_id
_symmetry_equiv_pos_as_xyz
  1	'x-y, x, -z'
  2	'y, -x+y, -z'
  3	'-x, -y, -z'
  4	'-x+y, -x, z'
  5	'-y, x-y, z'
  6	'x, y, z'
  7	'x-y+.6666, x+.3333, -z+.3333'
  8	'x-y+.3333, x+.6666, -z+.6666'
  9	'y+.6666, -x+y+.3333, -z+.3333'
 10	'y+.3333, -x+y+.6666, -z+.6666'
 11	'-x+.6666, -y+.3333, -z+.3333'
 12	'-x+.3333, -y+.6666, -z+.6666'
 13	'-x+y+.6666, -x+.3333, z+.3333'
 14	'-x+y+.3333, -x+.6666, z+.6666'
 15	'-y+.6666, x-y+.3333, z+.3333'
 16	'-y+.3333, x-y+.6666, z+.6666'
 17	'x+.6666, y+.3333, z+.3333'
 18	'x+.3333, y+.6666, z+.6666'
loop_
_atom_type_symbol
_atom_type_oxidation_number
F1-	-1
K1+	1
Rh5+	5
loop_
_atom_site_label
_atom_site_type_symbol
_atom_site_symmetry_multiplicity
_atom_site_Wyckoff_symbol
_atom_site_fract_x
_atom_site_fract_y
_atom_site_fract_z
_atom_site_occupancy
_atom_site_attached_hydrogens
_atom_site_B_iso_or_equiv
K1 K1+ 3 b 0 0 0.5 1. 0 1.299(8) 
Rh1 Rh5+ 3 a 0 0 0 1. 0 0.702(3) 
F1 F1- 18 f 0.0672(2) 0.8408(2) 0.1511(2) 1. 0 1.38(2) 

loop_
_atom_site_aniso_label
_atom_site_aniso_type_symbol
_atom_site_aniso_U_11
_atom_site_aniso_U_22
_atom_site_aniso_U_33
_atom_site_aniso_U_12
_atom_site_aniso_U_13
_atom_site_aniso_U_23
K1 K1+ 0.0093(11) 0.00927 0.0096(1) 0.00463 0. 0.
Rh1 Rh5+ 0.0180(3) 0.01804 0.0141(4) 0.00902 0. 0.
F1 F1- 0.0199(6) 0.0177(5) 0.0194(6) 0.0115(5) -0.0016(4) 0.0044(4)
#End of data_165215-ICSD


