data_24116-ICSD
#?2014 by Fachinformationszentrum Karlsruhe, and the U.S. Secretary of 
#Commerce on behalf of the United States.  All rights reserved.
_database_code_ICSD                24116
_audit_creation_date               1980/01/01
_audit_update_record               1989/03/07
_chemical_name_systematic
;
Potassium Pentacyanonitrosochromate(II)
;
_chemical_formula_structural       'K3 Cr (C N)5 N O'
_chemical_formula_sum              'C5 Cr1 K3 N6 O1'
_publ_section_title
;
The Crystal Structure of K3 Cr (C N)5 N O
;
loop_
_citation_id
_citation_journal_abbrev
_citation_year
_citation_journal_volume
_citation_page_first
_citation_page_last
_citation_journal_id_ASTM
primary 'Acta Chemica Scandinavica (1-27,1973-42,1988)' 1966 20 1571 1576 ACSAA4
_publ_author_name                  'Vannerberg, N.G.'
_cell_length_a                     13.38(2)
_cell_length_b                     10.37(1)
_cell_length_c                     8.38(1)
_cell_angle_alpha                  90.
_cell_angle_beta                   90.
_cell_angle_gamma                  90.
_cell_volume                       1162.73
_cell_formula_units_Z              4
_symmetry_space_group_name_H-M     'P n c 2'
_symmetry_Int_Tables_number        30
_refine_ls_R_factor_all            .158
loop_
_symmetry_equiv_pos_site_id
_symmetry_equiv_pos_as_xyz
  1	'x, -y+.5, z+.5'
  2	'-x, y+.5, z+.5'
  3	'-x, -y, z'
  4	'x, y, z'
loop_
_atom_type_symbol
_atom_type_oxidation_number
C2+	2
Cr2+	2
K1+	1
N3-	-3
N2+	2
O2-	-2
loop_
_atom_site_label
_atom_site_type_symbol
_atom_site_symmetry_multiplicity
_atom_site_Wyckoff_symbol
_atom_site_fract_x
_atom_site_fract_y
_atom_site_fract_z
_atom_site_occupancy
_atom_site_attached_hydrogens
K1 K1+ 2 a 0 0 0.5 1. 0 
K2 K1+ 2 b 0.5 0 0.75 1. 0 
K3 K1+ 4 c 0.2508 0.2297 0.5 1. 0 
K4 K1+ 4 c 0.7508 0.2269 0.75 1. 0 
Cr1 Cr2+ 2 a 0 0 0 1. 0 
Cr2 Cr2+ 2 b 0.5 0 0.25 1. 0 
C1 C2+ 4 c 0.0995 0.0553 0.1628 1. 0 
C2 C2+ 4 c 0.5995 0.0553 0.4128 1. 0 
C3 C2+ 4 c 0.0995 0.0553 0.8372 1. 0 
C4 C2+ 4 c 0.5995 0.0553 0.0872 1. 0 
C5 C2+ 4 c 0.4334 0.1709 0.25 1. 0 
N1 N3- 4 c 0.1497 0.0904 0.2493 1. 0 
N2 N3- 4 c 0.6497 0.0904 0.4993 1. 0 
N3 N3- 4 c 0.1497 0.0904 0.7507 1. 0 
N4 N3- 4 c 0.6497 0.0904 0.0007 1. 0 
N5 N3- 4 c 0.4003 0.2621 0.25 1. 0 
N6 N2+ 4 c 0.9334 0.1709 0 1. 0 
O1 O2- 4 c 0.9003 0.2621 0 1. 0 

#End of data_24116-ICSD


