data_174117-ICSD
#?2014 by Fachinformationszentrum Karlsruhe, and the U.S. Secretary of 
#Commerce on behalf of the United States.  All rights reserved.
_database_code_ICSD                174117
_audit_creation_date               2010/02/01
_chemical_name_systematic
;
Potassium Tetrafluorocuprate - High Pressure Phase
;
_chemical_formula_structural       'K2 Cu F4'
_chemical_formula_sum              'Cu1 F4 K2'
_publ_section_title
;
Structural changes and Jahn-Teller-effect of K2 Cu F4 under pressure
;
loop_
_citation_id
_citation_journal_abbrev
_citation_year
_citation_journal_volume
_citation_journal_issue
_citation_page_first
_citation_page_last
_citation_journal_id_ASTM
primary 'Journal of the Physical Society of Japan' 2005 74 12 3221 3226 JUPSAU
_publ_author_name                  'Liang Chingtarng;Schotte, K.D.'
_cell_length_a                     3.672
_cell_length_b                     4.189
_cell_length_c                     11.165
_cell_angle_alpha                  90.
_cell_angle_beta                   90.
_cell_angle_gamma                  90.
_cell_volume                       171.74
_cell_formula_units_Z              2
_symmetry_space_group_name_H-M     'A m m m'
_symmetry_Int_Tables_number        65
loop_
_symmetry_equiv_pos_site_id
_symmetry_equiv_pos_as_xyz
  1	'x, -y, z'
  2	'x, y, -z'
  3	'-x, y, z'
  4	'-x, -y, -z'
  5	'-x, y, -z'
  6	'-x, -y, z'
  7	'x, -y, -z'
  8	'x, y, z'
  9	'x, -y+.5, z+.5'
 10	'x, y+.5, -z+.5'
 11	'-x, y+.5, z+.5'
 12	'-x, -y+.5, -z+.5'
 13	'-x, y+.5, -z+.5'
 14	'-x, -y+.5, z+.5'
 15	'x, -y+.5, -z+.5'
 16	'x, y+.5, z+.5'
loop_
_atom_type_symbol
_atom_type_oxidation_number
Cu2+	2
F1-	-1
K1+	1
loop_
_atom_site_label
_atom_site_type_symbol
_atom_site_symmetry_multiplicity
_atom_site_Wyckoff_symbol
_atom_site_fract_x
_atom_site_fract_y
_atom_site_fract_z
_atom_site_occupancy
_atom_site_attached_hydrogens
Cu1 Cu2+ 2 a 0 0 0 1. 0 
K1 K1+ 4 j 0.5 0 0.3445 1. 0 
F1 F1- 2 b 0 0.5 0 1. 0 
F2 F1- 2 d 0.5 0 0 1. 0 
F3 F1- 4 i 0 0 0.1721 1. 0 

#End of data_174117-ICSD


