data_628205-ICSD
#?2014 by Fachinformationszentrum Karlsruhe, and the U.S. Secretary of 
#Commerce on behalf of the United States.  All rights reserved.
_database_code_ICSD                628205
_audit_creation_date               2012/02/01
_chemical_name_systematic          'Potassium Copper Selenide (1/4/3)'
_chemical_formula_structural       'K Cu4 Se3'
_chemical_formula_sum              'Cu4 K1 Se3'
_publ_section_title
;
The valence of copper in sulphides and selenides: An X-ray 
photoelectron spectroscopy study
;
loop_
_citation_id
_citation_journal_abbrev
_citation_year
_citation_journal_volume
_citation_page_first
_citation_page_last
_citation_journal_id_ASTM
primary 'Journal of the Less-Common Metals' 1980 76 153 162 JCOMAH
2 'Monatshefte fuer Chemie' 1980 111 727 733 MOCMB7
_publ_author_name                  'Folmer, J.C.W.;Jellinek, F.'
_cell_length_a                     4.0202(6)
_cell_length_b                     4.0202(6)
_cell_length_c                     9.723(2)
_cell_angle_alpha                  90.0
_cell_angle_beta                   90.0
_cell_angle_gamma                  90.0
_cell_volume                       157.14
_cell_formula_units_Z              1
_symmetry_space_group_name_H-M     'P 4/m m m'
_symmetry_Int_Tables_number        123
loop_
_symmetry_equiv_pos_site_id
_symmetry_equiv_pos_as_xyz
  1	'y, x, -z'
  2	'-y, -x, -z'
  3	'-y, x, -z'
  4	'y, -x, -z'
  5	'-x, y, -z'
  6	'x, -y, -z'
  7	'x, y, -z'
  8	'-x, -y, -z'
  9	'-y, -x, z'
 10	'y, x, z'
 11	'y, -x, z'
 12	'-y, x, z'
 13	'x, -y, z'
 14	'-x, y, z'
 15	'-x, -y, z'
 16	'x, y, z'
loop_
_atom_type_symbol
_atom_type_oxidation_number
Cu1.25+	1.25
K1+	1
Se2-	-2
loop_
_atom_site_label
_atom_site_type_symbol
_atom_site_symmetry_multiplicity
_atom_site_Wyckoff_symbol
_atom_site_fract_x
_atom_site_fract_y
_atom_site_fract_z
_atom_site_occupancy
_atom_site_attached_hydrogens
K1 K1+ 1 b 0 0 0.5 1. 0 
Cu1 Cu1.25+ 4 i 0.5 0 0.160 1. 0 
Se1 Se2- 1 a 0 0 0 1. 0 
Se2 Se2- 2 h 0.5 0.5 0.294 1. 0 

#End of data_628205-ICSD


