data_404199-ICSD
#?2014 by Fachinformationszentrum Karlsruhe, and the U.S. Secretary of 
#Commerce on behalf of the United States.  All rights reserved.
_database_code_ICSD                404199
_audit_creation_date               1996/10/14
_audit_update_record               2000/07/15
_chemical_name_systematic          'Trizink Bis(arsenate(V)) - Alpha'
_chemical_formula_structural       'Zn3 (As O4)2'
_chemical_formula_sum              'As2 O8 Zn3'
_publ_section_title
;
Zur Kenntnis zweier Formen des Zinkorthoarsenates: alpha Zn3 (As O4)2 
und beta - Zn3 (As O4)2
;
loop_
_citation_id
_citation_journal_abbrev
_citation_year
_citation_journal_volume
_citation_page_first
_citation_page_last
_citation_journal_id_ASTM
primary 'Zeitschrift fuer Naturforschung, B: Chemical Sciences'
 1996 51 333 337 ZNBSEN
_publ_author_name                  'Mueller Buschbaum, H.;Frerichs, D.'
_cell_length_a                     6.3061(14)
_cell_length_b                     8.652(2)
_cell_length_c                     11.321(4)
_cell_angle_alpha                  90.
_cell_angle_beta                   92.25(5)
_cell_angle_gamma                  90.
_cell_volume                       617.2
_cell_formula_units_Z              4
_symmetry_space_group_name_H-M     'P 1 21/c 1'
_symmetry_Int_Tables_number        14
_refine_ls_R_factor_all            .1824
loop_
_symmetry_equiv_pos_site_id
_symmetry_equiv_pos_as_xyz
  1	'x, -y+.5, z+.5'
  2	'-x, -y, -z'
  3	'-x, y+.5, -z+.5'
  4	'x, y, z'
loop_
_atom_type_symbol
_atom_type_oxidation_number
As5+	5
O2-	-2
Zn2+	2
loop_
_atom_site_label
_atom_site_type_symbol
_atom_site_symmetry_multiplicity
_atom_site_Wyckoff_symbol
_atom_site_fract_x
_atom_site_fract_y
_atom_site_fract_z
_atom_site_occupancy
_atom_site_attached_hydrogens
Zn1 Zn2+ 4 e 0.2424(2) 0.16439(12) 0.6323(1) 1. 0 
Zn2 Zn2+ 4 e 0.6175(2) 0.03129(12) 0.87775(11) 1. 0 
Zn3 Zn2+ 4 e 0.9077(2) 0.18983(12) 0.4318(1) 1. 0 
As1 As5+ 4 e 0.41401(13) 0.11356(10) 0.36801(8) 1. 0 
As2 As5+ 4 e 0.89619(13) 0.06049(9) 0.15107(8) 1. 0 
O1 O2- 4 e 0.6044(9) 0.2398(6) 0.4176(6) 1. 0 
O2 O2- 4 e -.0408(9) 0.2411(6) 0.1054(5) 1. 0 
O3 O2- 4 e 0.2029(10) 0.1299(7) 0.4563(6) 1. 0 
O4 O2- 4 e 0.0847(9) -.0704(7) 0.1195(6) 1. 0 
O5 O2- 4 e 0.3395(9) 0.1547(6) 0.2252(5) 1. 0 
O6 O2- 4 e 0.6691(9) -.0032(8) 0.0828(5) 1. 0 
O7 O2- 4 e 0.4836(10) -.0714(7) 0.3645(7) 1. 0 
O8 O2- 4 e -.1289(10) 0.0504(7) 0.2982(5) 1. 0 

loop_
_atom_site_aniso_label
_atom_site_aniso_type_symbol
_atom_site_aniso_U_11
_atom_site_aniso_U_22
_atom_site_aniso_U_33
_atom_site_aniso_U_12
_atom_site_aniso_U_13
_atom_site_aniso_U_23
Zn1 Zn2+ 0.0116(4) 0.0134(5) 0.0159(5) 0.0028(4) -.0018(4) -.0026(4)
Zn2 Zn2+ 0.0088(4) 0.0135(5) 0.0196(6) -.0008(4) 0.0018(4) -.0045(4)
Zn3 Zn2+ 0.0090(4) 0.0127(5) 0.0134(5) 0.0005(4) -.0016(4) -.0022(4)
As1 As5+ 0.0055(3) 0.0086(4) 0.0073(4) 0.0005(3) -.0001(3) 0.0000(3)
As2 As5+ 0.0062(3) 0.0068(3) 0.0071(4) -.0006(3) 0.0003(3) -.0004(3)
O1 O2- 0.007(3) 0.003(2) 0.017(3) 0.000(2) -.003(2) 0.002(2)
O2 O2- 0.007(2) 0.009(3) 0.008(3) 0.002(2) -.004(2) 0.002(2)
O3 O2- 0.011(3) 0.017(3) 0.013(3) -.001(2) -.001(2) 0.000(2)
O4 O2- 0.007(2) 0.013(3) 0.012(3) -.002(2) -.004(2) -.002(2)
O5 O2- 0.012(3) 0.007(2) 0.009(3) 0.004(2) 0.001(2) 0.003(2)
O6 O2- 0.007(2) 0.024(3) 0.004(3) -.003(2) -.002(2) -.002(2)
O7 O2- 0.007(2) 0.007(3) 0.033(4) 0.002(2) -.002(3) -.002(3)
O8 O2- 0.024(3) 0.007(3) 0.006(3) 0.002(2) 0.008(2) 0.002(2)
#End of data_404199-ICSD


