data_163263-ICSD
#?2014 by Fachinformationszentrum Karlsruhe, and the U.S. Secretary of 
#Commerce on behalf of the United States.  All rights reserved.
_database_code_ICSD                163263
_audit_creation_date               2009/08/01
_audit_update_record               2013/02/01
_chemical_name_systematic
;
Calcium Tetrahydridoborate - Alpha'
;
_chemical_formula_structural       'Ca (B H4)2'
_chemical_formula_sum              'H8 B2 Ca1'
_publ_section_title
;
Crystal structures and phase transformations in Ca (B H4)2
;
loop_
_citation_id
_citation_journal_abbrev
_citation_year
_citation_journal_volume
_citation_page_first
_citation_page_last
_citation_journal_id_ASTM
primary 'Acta Materialia' 2009 57 732 738 ACMAFD
_publ_author_name
;
Filinchuk, Ya.;Roennebro, E.;Chandra, D.
;
_cell_length_a                     5.8446(3)
_cell_length_b                     5.8446(3)
_cell_length_c                     13.2279(11)
_cell_angle_alpha                  90.
_cell_angle_beta                   90.
_cell_angle_gamma                  90.
_cell_volume                       451.86
_cell_formula_units_Z              4
_symmetry_space_group_name_H-M     'I -4 2 d'
_symmetry_Int_Tables_number        122
_refine_ls_R_factor_all            .021
loop_
_symmetry_equiv_pos_site_id
_symmetry_equiv_pos_as_xyz
  1	'-y, -x+.5, z+.25'
  2	'y, -x, -z'
  3	'y, x+.5, z+.25'
  4	'-y, x, -z'
  5	'x, -y+.5, -z+.25'
  6	'-x, -y, z'
  7	'-x, y+.5, -z+.25'
  8	'x, y, z'
  9	'-y+.5, -x, z+.75'
 10	'y+.5, -x+.5, -z+.5'
 11	'y+.5, x, z+.75'
 12	'-y+.5, x+.5, -z+.5'
 13	'x+.5, -y, -z+.75'
 14	'-x+.5, -y+.5, z+.5'
 15	'-x+.5, y, -z+.75'
 16	'x+.5, y+.5, z+.5'
loop_
_atom_type_symbol
_atom_type_oxidation_number
B3+	3
Ca2+	2
H1-	-1
loop_
_atom_site_label
_atom_site_type_symbol
_atom_site_symmetry_multiplicity
_atom_site_Wyckoff_symbol
_atom_site_fract_x
_atom_site_fract_y
_atom_site_fract_z
_atom_site_occupancy
_atom_site_attached_hydrogens
_atom_site_B_iso_or_equiv
Ca1 Ca2+ 4 a 0 0 0 1. 0 5.67(16) 
B1 B3+ 8 c 0 0 0.2250(6) 1. 0 4.3(3) 
H1 H1- 16 e -0.1608(16) -0.035(3) 0.1762(10) 1. 0 0.1(1) 
H2 H1- 16 e 0.032(3) -0.1613(16) 0.2752(10) 1. 0 0.1(1) 

#End of data_163263-ICSD


