data_87825-ICSD
#?2014 by Fachinformationszentrum Karlsruhe, and the U.S. Secretary of 
#Commerce on behalf of the United States.  All rights reserved.
_database_code_ICSD                87825
_audit_creation_date               2001/07/16
_chemical_name_systematic          'Calcium Plumbate'
_chemical_formula_structural       'Ca (Pb O3)'
_chemical_formula_sum              'Ca1 O3 Pb1'
_publ_section_title
;
Crystal structure and its role in electrical properties of the 
perovskite Ca Pb O3 synthesized at high pressure
;
loop_
_citation_id
_citation_journal_abbrev
_citation_year
_citation_journal_volume
_citation_page_first
_citation_page_last
_citation_journal_id_ASTM
primary 'Chemistry of Materials' 1999 11 747 753 CMATEX
_publ_author_name
;
Yamamoto, A.;Khasanova, N.R.;Izumi, F.;Wu, X.-J.;Kamiyama, T.;Torii, 
S.;Tajima, S.
;
_cell_length_a                     5.67102(4)
_cell_length_b                     5.88752(4)
_cell_length_c                     8.14954(6)
_cell_angle_alpha                  90.
_cell_angle_beta                   90.
_cell_angle_gamma                  90.
_cell_volume                       272.1
_cell_formula_units_Z              4
_symmetry_space_group_name_H-M     'P b n m'
_symmetry_Int_Tables_number        62
_refine_ls_R_factor_all            .011
loop_
_symmetry_equiv_pos_site_id
_symmetry_equiv_pos_as_xyz
  1	'-x+.5, y+.5, z'
  2	'x, y, -z+.5'
  3	'x+.5, -y+.5, z+.5'
  4	'-x, -y, -z'
  5	'x+.5, -y+.5, -z'
  6	'-x, -y, z+.5'
  7	'-x+.5, y+.5, -z+.5'
  8	'x, y, z'
loop_
_atom_type_symbol
_atom_type_oxidation_number
Ca2+	2
O2-	-2
Pb4+	4
loop_
_atom_site_label
_atom_site_type_symbol
_atom_site_symmetry_multiplicity
_atom_site_Wyckoff_symbol
_atom_site_fract_x
_atom_site_fract_y
_atom_site_fract_z
_atom_site_occupancy
_atom_site_attached_hydrogens
_atom_site_B_iso_or_equiv
Ca1 Ca2+ 4 c 0.9860(3) 0.0563(2) 0.25 1. 0 0.84(3) 
Pb1 Pb4+ 4 b 0.5 0 0 1. 0 0.38(2) 
O1 O2- 4 c 0.1200(3) 0.4452(2) 0.25 1. 0 0.67(3) 
O2 O2- 8 d 0.6907(2) 0.3051(2) 0.0613(2) 1. 0 0.96(2) 

#End of data_87825-ICSD


