data_164654-ICSD
#?2014 by Fachinformationszentrum Karlsruhe, and the U.S. Secretary of 
#Commerce on behalf of the United States.  All rights reserved.
_database_code_ICSD                164654
_audit_creation_date               2010/02/01
_chemical_name_systematic
;
Heptasilver Triiron(III) Tetrakis(diphosphate(V)) - Lt
;
_chemical_formula_structural       'Ag7 Fe3 (P2 O7)4'
_chemical_formula_sum              'Ag7 Fe3 O28 P8'
_publ_section_title
;
Crystal structures of new silver ion conductors Ag7 Fe3 (X2 O7)4 (X= 
P, As)
;
loop_
_citation_id
_citation_journal_abbrev
_citation_year
_citation_journal_volume
_citation_page_first
_citation_page_last
_citation_journal_id_ASTM
primary 'New Journal of Chemistry' 2009 33 998 1005 NJCHE5
_publ_author_name
;
Quarez, E.;Mentre, O.;Oumellal, Y.;Masquelier, C.
;
_cell_length_a                     9.532(3)
_cell_length_b                     8.421(2)
_cell_length_c                     28.021(8)
_cell_angle_alpha                  90
_cell_angle_beta                   93.225(5)
_cell_angle_gamma                  90
_cell_volume                       2245.65
_cell_formula_units_Z              4
_symmetry_space_group_name_H-M     'P 1 21/c 1'
_symmetry_Int_Tables_number        14
_refine_ls_R_factor_all            .0383
loop_
_symmetry_equiv_pos_site_id
_symmetry_equiv_pos_as_xyz
  1	'x, -y+.5, z+.5'
  2	'-x, -y, -z'
  3	'-x, y+.5, -z+.5'
  4	'x, y, z'
loop_
_atom_type_symbol
_atom_type_oxidation_number
Ag1+	1
Fe3+	3
O2-	-2
P5+	5
loop_
_atom_site_label
_atom_site_type_symbol
_atom_site_symmetry_multiplicity
_atom_site_Wyckoff_symbol
_atom_site_fract_x
_atom_site_fract_y
_atom_site_fract_z
_atom_site_occupancy
_atom_site_attached_hydrogens
_atom_site_U_iso_or_equiv
Ag1 Ag1+ 4 e 0.49290(9) 0.13642(10) 0.05432(3) 1 0 0.0096(2) 
Ag2 Ag1+ 4 e 0.99959(9) -0.64609(10) -0.06121(3) 1 0 0.0112(2) 
Ag3 Ag1+ 4 e 0.22920(9) 0.07032(10) 0.14246(3) 1 0 0.0102(2) 
Ag4 Ag1+ 4 e 0.24036(9) 0.09570(10) 0.35397(3) 1 0 0.0102(2) 
Ag5 Ag1+ 4 e -0.21506(9) 0.18770(11) 0.31134(4) 1 0 0.0163(2) 
Ag6 Ag1+ 4 e 0.74857(10) 0.15440(12) 0.17181(4) 1 0 0.0195(3) 
Ag7 Ag1+ 4 e 0.45882(10) 0.35804(12) 0.14723(3) 1 0 0.0172(3) 
Fe1 Fe3+ 4 e 0.24836(16) 0.32621(17) 0.25142(5) 1 0 0.0061(4) 
Fe2 Fe3+ 4 e 0.43276(15) -0.27836(18) 0.06431(5) 1 0 0.0053(4) 
Fe3 Fe3+ 4 e 0.93295(15) 0.22152(18) 0.06349(5) 1 0 0.0053(4) 
P1 P5+ 4 e 0.5464(3) 0.5094(3) 0.24430(10) 1 0 0.0056(7) 
P2 P5+ 4 e -0.0493(3) 0.5049(3) 0.25452(10) 1 0 0.0070(7) 
P3 P5+ 4 e 0.4791(3) 0.3878(3) 0.33519(9) 1 0 0.0062(7) 
P4 P5+ 4 e 0.0290(3) 0.3823(3) 0.16526(9) 1 0 0.0058(7) 
P5 P5+ 4 e 0.7428(3) -0.0919(3) 0.05804(10) 1 0 0.0057(7) 
P6 P5+ 4 e 0.7603(3) -0.4111(3) -0.05548(9) 1 0 0.0052(7) 
P7 P5+ 4 e 0.1683(3) -0.0386(3) 0.03320(10) 1 0 0.0061(7) 
P8 P5+ 4 e 0.6669(3) -0.5404(3) 0.03479(9) 1 0 0.0050(7) 
O1 O2- 4 e 0.6213(8) 0.4406(9) 0.2027(3) 1 0 0.008(2) 
O2 O2- 4 e -0.1259(8) 0.4386(10) 0.2954(3) 1 0 0.011(2) 
O3 O2- 4 e 0.6056(7) 0.6660(9) 0.2622(3) 1 0 0.0054(14) 
O4 O2- 4 e 0.1106(8) 0.5097(9) 0.2636(3) 1 0 0.007(2) 
O5 O2- 4 e 0.3862(8) 0.5115(9) 0.2362(3) 1 0 0.010(2) 
O6 O2- 4 e -0.1077(8) 0.6615(9) 0.2348(3) 1 0 0.008(2) 
O7 O2- 4 e 0.5729(8) 0.3882(9) 0.2889(3) 1 0 0.008(2) 
O8 O2- 4 e -0.0700(7) 0.3798(9) 0.2107(3) 1 0 0.008(2) 
O9 O2- 4 e 0.3283(7) 0.3453(10) 0.3178(3) 1 0 0.010(2) 
O10 O2- 4 e 0.1779(7) 0.3304(10) 0.1838(3) 1 0 0.010(2) 
O11 O2- 4 e 0.4859(8) 0.5538(9) 0.3568(3) 1 0 0.010(2) 
O12 O2- 4 e 0.0265(8) 0.5478(9) 0.1450(3) 1 0 0.008(2) 
O13 O2- 4 e 0.5467(7) 0.2568(9) 0.3656(3) 1 0 0.008(2) 
O14 O2- 4 e -0.0393(8) 0.2531(9) 0.1338(3) 1 0 0.009(2) 
O15 O2- 4 e 0.7707(8) 0.0775(9) 0.0763(3) 1 0 0.008(2) 
O16 O2- 4 e 0.7291(8) -0.5773(9) -0.0746(3) 1 0 0.007(2) 
O17 O2- 4 e 0.5846(8) -0.1235(9) 0.0503(3) 1 0 0.009(2) 
O18 O2- 4 e 0.9174(7) -0.3802(9) -0.0487(3) 1 0 0.0058(14) 
O19 O2- 4 e 0.8177(8) -0.2191(9) 0.0867(3) 1 0 0.009(2) 
O20 O2- 4 e 0.6854(8) -0.2832(9) -0.0849(2) 1 0 0.0053(19) 
O21 O2- 4 e 0.2000(7) 0.0942(9) -0.0048(3) 1 0 0.0055(19) 
O22 O2- 4 e 0.7039(8) -0.4056(10) -0.0027(3) 1 0 0.009(2) 
O23 O2- 4 e 0.0981(7) -0.1777(9) 0.0059(3) 1 0 0.0073(14) 
O24 O2- 4 e 0.5967(7) -0.6770(9) 0.0060(3) 1 0 0.007(2) 
O25 O2- 4 e 0.3054(7) -0.0876(9) 0.0590(3) 1 0 0.009(2) 
O26 O2- 4 e 0.8019(8) -0.5919(10) 0.0607(3) 1 0 0.011(2) 
O27 O2- 4 e 0.0721(8) 0.0400(9) 0.0673(3) 1 0 0.009(2) 
O28 O2- 4 e 0.5698(7) -0.4616(9) 0.0693(3) 1 0 0.0057(19) 

loop_
_atom_site_aniso_label
_atom_site_aniso_type_symbol
_atom_site_aniso_U_11
_atom_site_aniso_U_22
_atom_site_aniso_U_33
_atom_site_aniso_U_12
_atom_site_aniso_U_13
_atom_site_aniso_U_23
Ag1 Ag1+ 0.0089(3) 0.0065(4) 0.0135(4) 0.0017(3) 0.0031(3) 0.0025(3)
Ag2 Ag1+ 0.0098(4) 0.0089(4) 0.0152(4) 0.0022(3) 0.0043(3) 0.0037(3)
Ag3 Ag1+ 0.0124(4) 0.0104(4) 0.0078(4) 0.0022(3) 0.0013(3) 0.0015(3)
Ag4 Ag1+ 0.0115(4) 0.0097(4) 0.0096(4) -0.0030(3) 0.0016(3) -0.0019(3)
Ag5 Ag1+ 0.0119(4) 0.0083(4) 0.0280(5) 0.0020(3) -0.0045(3) 0.0001(4)
Ag6 Ag1+ 0.0143(4) 0.0198(5) 0.0235(5) -0.0086(4) -0.0069(3) 0.0100(4)
Ag7 Ag1+ 0.0177(4) 0.0209(5) 0.0123(4) -0.0018(4) -0.0050(3) -0.0045(4)
Fe1 Fe3+ 0.0056(6) 0.0068(6) 0.0058(7) 0.0008(6) -0.0002(5) 0.0004(6)
Fe2 Fe3+ 0.0057(7) 0.0055(7) 0.0046(7) 0.0000(6) -0.0007(5) 0.0002(6)
Fe3 Fe3+ 0.0055(7) 0.0048(7) 0.0058(7) -0.0001(6) 0.0005(5) 0.0001(6)
P1 P5+ 0.0042(11) 0.0053(12) 0.0072(12) -0.0006(10) -0.0003(9) 0.0006(10)
P2 P5+ 0.0069(12) 0.0069(12) 0.0072(12) -0.0002(10) 0.0001(10) -0.0011(10)
P3 P5+ 0.0072(12) 0.0076(12) 0.0037(11) 0.0010(10) -0.0005(9) 0.0018(10)
P4 P5+ 0.0085(12) 0.0045(12) 0.0041(11) -0.0019(10) -0.0017(9) 0.0007(10)
P5 P5+ 0.0060(11) 0.0065(12) 0.0048(12) 0.0002(10) 0.0014(9) 0.0011(10)
P6 P5+ 0.0047(11) 0.0058(12) 0.0052(12) -0.0015(10) 0.0017(9) -0.0002(10)
P7 P5+ 0.0047(11) 0.0051(12) 0.0082(12) 0.0010(10) -0.0024(10) -0.0019(10)
P8 P5+ 0.0066(11) 0.0043(12) 0.0044(12) 0.0009(10) 0.0015(9) 0.0003(9)
O1 O2- 0.010(3) 0.010(4) 0.005(3) -0.001(3) -0.001(3) 0.001(3)
O2 O2- 0.010(4) 0.012(4) 0.009(4) 0.002(3) 0.000(3) -0.001(3)
O4 O2- 0.005(3) 0.007(4) 0.009(4) -0.002(3) 0.001(3) -0.006(3)
O5 O2- 0.009(4) 0.007(4) 0.013(4) -0.001(3) -0.002(3) -0.003(3)
O6 O2- 0.008(3) 0.006(4) 0.011(4) 0.004(3) 0.002(3) 0.005(3)
O7 O2- 0.009(3) 0.005(3) 0.008(3) -0.002(3) 0.001(3) 0.004(3)
O8 O2- 0.003(3) 0.009(4) 0.012(4) -0.002(3) -0.001(3) 0.002(3)
O9 O2- 0.006(3) 0.017(4) 0.007(4) 0.000(3) 0.000(3) -0.001(3)
O10 O2- 0.004(3) 0.011(4) 0.013(4) 0.003(3) -0.004(3) -0.003(3)
O11 O2- 0.006(3) 0.009(4) 0.015(4) 0.006(3) 0.000(3) -0.005(3)
O12 O2- 0.010(3) 0.008(4) 0.005(3) -0.002(3) -0.005(3) -0.002(3)
O13 O2- 0.004(3) 0.007(3) 0.012(4) -0.002(3) -0.001(3) 0.001(3)
O14 O2- 0.008(3) 0.011(4) 0.008(4) -0.004(3) 0.003(3) -0.001(3)
O15 O2- 0.008(3) 0.010(4) 0.007(3) 0.003(3) -0.001(3) -0.001(3)
O16 O2- 0.007(3) 0.007(4) 0.008(3) -0.004(3) -0.001(3) -0.004(3)
O17 O2- 0.004(3) 0.009(4) 0.014(4) -0.004(3) 0.003(3) 0.001(3)
O19 O2- 0.012(4) 0.008(4) 0.007(4) -0.001(3) 0.001(3) 0.003(3)
O20 O2- 0.008(3) 0.004(3) 0.003(3) 0.001(3) -0.004(3) 0.001(3)
O21 O2- 0.007(3) 0.006(3) 0.003(3) 0.002(3) -0.003(3) -0.002(3)
O22 O2- 0.008(3) 0.013(4) 0.006(3) 0.003(3) 0.003(3) -0.001(3)
O24 O2- 0.006(3) 0.006(4) 0.009(4) -0.003(3) -0.002(3) 0.003(3)
O25 O2- 0.003(3) 0.008(4) 0.014(4) 0.000(3) -0.005(3) -0.001(3)
O26 O2- 0.006(3) 0.016(4) 0.012(4) 0.004(3) 0.003(3) -0.004(3)
O27 O2- 0.012(4) 0.008(4) 0.007(4) 0.004(3) 0.001(3) -0.001(3)
O28 O2- 0.006(3) 0.008(4) 0.002(3) 0.005(3) 0.001(3) 0.001(3)
#End of data_164654-ICSD


