data_94861-ICSD
#?2014 by Fachinformationszentrum Karlsruhe, and the U.S. Secretary of 
#Commerce on behalf of the United States.  All rights reserved.
_database_code_ICSD                94861
_audit_creation_date               2003/10/01
_audit_update_record               2014/08/01
_chemical_name_systematic
;
Dicesium Hexaaquazinc Bis(hexafluorozirconate)
;
_chemical_formula_structural       'Cs2 (Zn (H2 O)6) (Zr F6)2'
_chemical_formula_sum              'H12 Cs2 F12 O6 Zn1 Zr2'
_publ_section_title
;
Dynamic behavior of the Jahn-Teller distorted (Cu (H2 O)6)(2+) ion in 
Cu(2+)-doped Cs2 (Zn (H2 O)6) (Zr F6)2 and the crystal structure of 
the host lattice
;
loop_
_citation_id
_citation_journal_abbrev
_citation_year
_citation_journal_volume
_citation_page_first
_citation_page_last
_citation_journal_id_ASTM
primary 'Inorganic Chemistry' 2002 41 229 238 INOCAJ
_publ_author_name
;
Hitchman, M.A.;Yablokov, Yu.V.;Petrashen, V.E.;Augustyniak-Jublokov, 
M.A.;Stratemeier, H.;Riley, M.J.;Lukaszewicz, K.;Tomaszewski, 
P.E.;Pietraszko, A.
;
_cell_length_a                     6.970(1)
_cell_length_b                     10.515(2)
_cell_length_c                     11.803(2)
_cell_angle_alpha                  90
_cell_angle_beta                   93.56(3)
_cell_angle_gamma                  90
_cell_volume                       863.37
_cell_formula_units_Z              2
_symmetry_space_group_name_H-M     'P 1 21/n 1'
_symmetry_Int_Tables_number        14
_refine_ls_R_factor_all            .0405
loop_
_symmetry_equiv_pos_site_id
_symmetry_equiv_pos_as_xyz
  1	'-x+.5, y+.5, -z+.5'
  2	'-x, -y, -z'
  3	'x+.5, -y+.5, z+.5'
  4	'x, y, z'
loop_
_atom_type_symbol
_atom_type_oxidation_number
Cs1+	1
F1-	-1
H1+	1
O2-	-2
Zn2+	2
Zr4+	4
loop_
_atom_site_label
_atom_site_type_symbol
_atom_site_symmetry_multiplicity
_atom_site_Wyckoff_symbol
_atom_site_fract_x
_atom_site_fract_y
_atom_site_fract_z
_atom_site_occupancy
_atom_site_attached_hydrogens
_atom_site_U_iso_or_equiv
Cs1 Cs1+ 4 e 0.5007(1) 0.7050(1) 0.0668(1) 1. 0 0 
Zr1 Zr4+ 4 e 0.5178(1) 0.9804(1) 0.3473(1) 1. 0 0 
Zn1 Zn2+ 2 a 0 0 0 1. 0 0 
O1 O2- 4 e 0.2086(8) 0.8918(5) -0.0774(4) 1.000 0 0 
O2 O2- 4 e 0.7784(7) 0.8839(5) -0.0718(4) 1.000 0 0 
O3 O2- 4 e -0.0349(10) 0.1165(6) 0.8561(5) 1.000 0 0 
F1 F1- 4 e 0.5197(8) 0.1099(4) 0.4916(3) 1. 0 0 
F2 F1- 4 e 0.4818(7) 0.7884(4) 0.3140(3) 1. 0 0 
F3 F1- 4 e 0.7942(7) 0.9492(5) 0.3755(4) 1. 0 0 
F4 F1- 4 e 0.5130(6) 0.9695(4) 0.1723(3) 1. 0 0 
F5 F1- 4 e 0.5929(9) 0.1566(4) 0.2936(4) 1. 0 0 
F6 F1- 4 e 0.2357(7) 0.0024(5) 0.3313(4) 1. 0 0 
H1 H1+ 4 e 0.163(17) 0.855(11) 0.892(10) 1. 0 0.050(30) 
H2 H1+ 4 e 0.003(17) 0.191(12) 0.839(11) 1. 0 0.070(40) 
H3 H1+ 4 e 0.830(20) 0.836(14) 0.886(12) 1. 0 0.090(40) 
H4 H1+ 4 e 0.285(14) 0.950(10) 0.8870(80) 1. 0 0.040(20) 
H5 H1+ 4 e 0.704(16) 0.927(11) 0.882(10) 1. 0 0.060(30) 
H6 H1+ 4 e -0.072(15) 0.106(10) 0.782(10) 1. 0 0.050(30) 

loop_
_atom_site_aniso_label
_atom_site_aniso_type_symbol
_atom_site_aniso_U_11
_atom_site_aniso_U_22
_atom_site_aniso_U_33
_atom_site_aniso_U_12
_atom_site_aniso_U_13
_atom_site_aniso_U_23
Cs1 Cs1+ 0.043(1) 0.032(1) 0.033(1) -0.003(1) -0.001(1) 0.000(1)
Zr1 Zr4+ 0.030(1) 0.022(1) 0.019(1) 0.001(1) 0.000(1) 0.000(1)
Zn1 Zn2+ 0.032(1) 0.027(1) 0.024(1) -0.001(1) 0.001(1) -0.001(1)
O1 O2- 0.033(2) 0.037(3) 0.029(2) -0.004(2) 0.006(2) -0.003(2)
O2 O2- 0.033(2) 0.030(2) 0.031(2) -0.001(2) -0.001(2) -0.001(2)
O3 O2- 0.075(4) 0.041(3) 0.025(2) -0.016(3) -0.007(3) 0.006(2)
F1 F1- 0.081(3) 0.026(2) 0.023(2) -0.006(2) 0.008(2) 0.000(2)
F2 F1- 0.059(3) 0.024(2) 0.025(2) -0.004(2) 0.004(2) -0.001(2)
F3 F1- 0.033(2) 0.055(3) 0.056(3) -0.003(2) 0.005(2) -0.009(2)
F4 F1- 0.047(2) 0.035(2) 0.021(2) -0.001(2) 0.004(2) -0.002(2)
F5 F1- 0.093(4) 0.027(2) 0.034(2) -0.008(2) 0.011(2) 0.000(2)
F6 F1- 0.041(2) 0.067(3) 0.042(2) 0.002(2) 0.004(2) -0.020(2)
#End of data_94861-ICSD


