data_187382-ICSD
#?2014 by Fachinformationszentrum Karlsruhe, and the U.S. Secretary of 
#Commerce on behalf of the United States.  All rights reserved.
_database_code_ICSD                187382
_audit_creation_date               2013/08/01
_chemical_name_systematic
;
Lithium Tetrakis(trifluoromethanesulfonato)aurate(III)
;
_chemical_formula_structural       'Li (Au (C F3 S O3)4)'
_chemical_formula_sum              'C4 Au1 F12 Li1 O12 S4'
_publ_section_title
;
The Tetrakis-(trifluoromethanesulfonato)-aurate Anion: Syntheses and 
Properties of M (Au (C F3 S O3)4) (M = Li - Rb, Ag)
;
loop_
_citation_id
_citation_journal_abbrev
_citation_year
_citation_journal_volume
_citation_journal_issue
_citation_page_first
_citation_page_last
_citation_journal_id_ASTM
primary 'Zeitschrift fuer Anorganische und Allgemeine Chemie (1950) (DE)'
 2013 639 3-4 485 492 ZAACAB
_publ_author_name
;
Logemann, Christian;Kluener, Thorsten;Wickleder, Mathias S.
;
_cell_length_a                     5.0992(2)
_cell_length_b                     8.5408(3)
_cell_length_c                     10.4467(4)
_cell_angle_alpha                  94.006(2)
_cell_angle_beta                   92.935(2)
_cell_angle_gamma                  93.841(2)
_cell_volume                       452.12
_cell_formula_units_Z              1
_symmetry_space_group_name_H-M     'P -1'
_symmetry_Int_Tables_number        2
_refine_ls_R_factor_all            .0243
loop_
_symmetry_equiv_pos_site_id
_symmetry_equiv_pos_as_xyz
  1	'-x, -y, -z'
  2	'x, y, z'
loop_
_atom_type_symbol
_atom_type_oxidation_number
Au3+	3
C4+	4
F1-	-1
Li1+	1
O2-	-2
S4+	4
loop_
_atom_site_label
_atom_site_type_symbol
_atom_site_symmetry_multiplicity
_atom_site_Wyckoff_symbol
_atom_site_fract_x
_atom_site_fract_y
_atom_site_fract_z
_atom_site_occupancy
_atom_site_attached_hydrogens
_atom_site_U_iso_or_equiv
Au1 Au3+ 1 d 0.5000 0.0000 0.0000 1 0 0.00984(8) 
S1 S4+ 2 i 0.5230(2) 0.33778(11) 0.14508(10) 1 0 0.01262(19) 
S2 S4+ 2 i 0.08844(19) -0.16010(11) 0.17052(9) 1 0 0.01202(19) 
O1 O2- 2 i -0.0413(6) -0.3097(4) 0.1291(3) 1 0 0.0183(6) 
O2 O2- 2 i 0.3699(6) -0.1454(4) 0.1283(3) 1 0 0.0141(6) 
O3 O2- 2 i 0.7869(6) 0.3482(4) 0.1063(3) 1 0 0.0161(6) 
O4 O2- 2 i 0.3554(6) 0.4607(4) 0.1213(3) 1 0 0.0187(6) 
O5 O2- 2 i 0.3772(6) 0.1802(4) 0.1051(3) 1 0 0.0187(6) 
O6 O2- 2 i -0.0485(6) -0.0226(4) 0.1542(3) 1 0 0.0189(6) 
C1 C4+ 2 i 0.1605(10) -0.1689(6) 0.3440(4) 1 0 0.0214(9) 
C2 C4+ 2 i 0.5520(11) 0.3293(6) 0.3200(4) 1 0 0.0245(10) 
F1 F1- 2 i -0.0645(7) -0.1834(5) 0.3997(3) 1 0 0.0411(9) 
F2 F1- 2 i 0.3178(7) 0.3154(4) 0.3670(3) 1 0 0.0383(8) 
F3 F1- 2 i 0.6849(7) 0.2077(4) 0.3493(3) 1 0 0.0354(7) 
F4 F1- 2 i 0.6788(8) 0.4604(4) 0.3713(3) 1 0 0.0376(8) 
F5 F1- 2 i 0.2923(8) -0.0385(4) 0.3920(3) 1 0 0.0392(8) 
F6 F1- 2 i 0.2978(8) -0.2889(4) 0.3659(3) 1 0 0.0403(8) 
Li1 Li1+ 1 c 0.0000 0.5000 0.0000 1 0 0.018(2) 

loop_
_atom_site_aniso_label
_atom_site_aniso_type_symbol
_atom_site_aniso_U_11
_atom_site_aniso_U_22
_atom_site_aniso_U_33
_atom_site_aniso_U_12
_atom_site_aniso_U_13
_atom_site_aniso_U_23
Au1 Au3+ 0.00813(11) 0.00785(10) 0.01369(11) 0.00060(7) 0.00168(7) 
0.00110(7)
S1 S4+ 0.0146(4) 0.0103(4) 0.0132(4) 0.0004(3) 0.0040(4) 0.0007(3)
S2 S4+ 0.0116(4) 0.0120(4) 0.0126(4) 0.0000(3) 0.0030(3) 0.0015(3)
O1 O2- 0.0182(15) 0.0149(14) 0.0211(16) -0.0040(12) 0.0045(12) -0.0020(12)
O2 O2- 0.0106(13) 0.0166(14) 0.0161(14) 0.0009(11) 0.0043(11) 0.0058(11)
O3 O2- 0.0157(14) 0.0151(14) 0.0180(15) 0.0002(11) 0.0046(12) 0.0020(12)
O4 O2- 0.0192(15) 0.0127(14) 0.0247(16) 0.0030(12) 0.0027(13) 0.0013(12)
O5 O2- 0.0177(15) 0.0124(14) 0.0258(17) -0.0014(11) 0.0097(13) -0.0045(12)
O6 O2- 0.0146(14) 0.0157(14) 0.0267(17) 0.0024(12) 0.0002(12) 0.0041(12)
C1 C4+ 0.026(2) 0.027(2) 0.0105(19) 0.0019(19) 0.0019(17) 0.0005(17)
C2 C4+ 0.035(3) 0.025(2) 0.013(2) 0.002(2) 0.0060(19) 0.0002(18)
F1 F1- 0.0376(18) 0.066(2) 0.0206(15) -0.0009(17) 0.0171(14) 0.0045(15)
F2 F1- 0.0414(19) 0.051(2) 0.0247(16) 0.0046(16) 0.0189(14) 0.0041(15)
F3 F1- 0.049(2) 0.0348(17) 0.0247(16) 0.0127(15) 0.0001(14) 0.0109(13)
F4 F1- 0.056(2) 0.0336(17) 0.0200(15) -0.0058(16) -0.0036(14) -0.0079(13)
F5 F1- 0.054(2) 0.0369(18) 0.0226(15) -0.0137(16) -0.0071(15) -0.0053(14)
F6 F1- 0.060(2) 0.0426(19) 0.0213(15) 0.0220(17) -0.0019(15) 0.0113(14)
Li1 Li1+ 0.022(5) 0.012(5) 0.018(5) -0.001(4) 0.007(4) 0.000(4)
#End of data_187382-ICSD


