data_420671-ICSD
#?2014 by Fachinformationszentrum Karlsruhe, and the U.S. Secretary of 
#Commerce on behalf of the United States.  All rights reserved.
_database_code_ICSD                420671
_audit_creation_date               2010/02/01
_chemical_name_systematic          'Silver Iodine Arsenate(V) (13/4/3)'
_chemical_formula_structural       'Ag13 I4 (As O4)3'
_chemical_formula_sum              'Ag13 As3 I4 O12'
_publ_section_title
;
Ag13 I4 (As O4)3: Synthesis, crystal structure and ionic conductivity
;
loop_
_citation_id
_citation_journal_abbrev
_citation_year
_citation_journal_volume
_citation_journal_issue
_citation_page_first
_citation_page_last
_citation_journal_id_ASTM
primary 'Zeitschrift fuer Naturforschung, B: Chemical Sciences'
 2009 64 8 891 895 ZNBSEN
_publ_author_name                  'Pitzschke, D.;Curda, J.;Jansen, M.'
_cell_length_a                     9.2465(12)
_cell_length_b                     7.1516(9)
_cell_length_c                     17.674(2)
_cell_angle_alpha                  90.00
_cell_angle_beta                   91.492(2)
_cell_angle_gamma                  90.00
_cell_volume                       1168.34
_cell_formula_units_Z              2
_symmetry_space_group_name_H-M     'P 1 21/m 1'
_symmetry_Int_Tables_number        11
_refine_ls_R_factor_all            .0319
loop_
_symmetry_equiv_pos_site_id
_symmetry_equiv_pos_as_xyz
  1	'x, -y+.5, z'
  2	'-x, -y, -z'
  3	'-x, y+.5, -z'
  4	'x, y, z'
loop_
_atom_type_symbol
_atom_type_oxidation_number
Ag1+	1
As5+	5
I1-	-1
O2-	-2
loop_
_atom_site_label
_atom_site_type_symbol
_atom_site_symmetry_multiplicity
_atom_site_Wyckoff_symbol
_atom_site_fract_x
_atom_site_fract_y
_atom_site_fract_z
_atom_site_occupancy
_atom_site_attached_hydrogens
_atom_site_U_iso_or_equiv
Ag1 Ag1+ 2 e 1.29566(11) 0.2500 0.32940(6) 1 0 0.0315(2) 
Ag2 Ag1+ 2 e 0.94907(11) 0.7500 0.38488(6) 1 0 0.0294(2) 
Ag3 Ag1+ 4 f 1.02220(8) 0.52524(11) 0.24205(4) 1 0 0.03313(19) 
Ag4 Ag1+ 4 f 1.60809(8) 0.46861(12) 0.33434(5) 1 0 0.0414(2) 
Ag5 Ag1+ 4 f 1.22859(9) 0.49139(11) 0.47702(4) 1 0 0.0369(2) 
Ag6 Ag1+ 4 f 1.37025(10) 0.48894(18) 0.15464(5) 1 0 0.0606(3) 
Ag7 Ag1+ 2 e 1.08866(17) 0.7500 0.08829(7) 1 0 0.0531(4) 
Ag8 Ag1+ 4 f 0.73557(13) 0.50189(14) 0.06694(8) 1 0 0.0758(4) 
I1 I1- 2 e 0.78937(9) 0.7500 0.21965(5) 1 0 0.0279(2) 
I2 I1- 2 e 1.47243(9) 0.2500 0.45754(5) 1 0 0.0286(2) 
I3 I1- 2 e 1.60006(11) 0.2500 0.19488(5) 1 0 0.0355(2) 
I4 I1- 2 e 1.45971(10) 0.7500 0.04628(5) 1 0 0.0379(2) 
As1 As5+ 2 e 1.31285(12) 0.7500 0.32164(6) 1 0 0.0163(2) 
As2 As5+ 2 e 1.07150(13) 0.2500 0.07365(6) 1 0 0.0215(3) 
As3 As5+ 2 e 0.93783(12) 0.2500 0.39397(6) 1 0 0.0163(2) 
O1 O2- 4 f 1.2709(6) 0.5549(8) 0.2711(3) 1 0 0.0246(12) 
O2 O2- 2 e 1.2071(9) 0.7500 0.3992(4) 1 0 0.0243(18) 
O3 O2- 2 e 1.4895(8) 0.7500 0.3439(5) 1 0 0.0244(18) 
O4 O2- 4 f 1.1268(7) 0.4423(9) 0.1212(3) 1 0 0.0325(14) 
O5 O2- 2 e 1.1419(12) 0.2500 -0.0130(5) 1 0 0.041(2) 
O6 O2- 4 f 0.8342(6) 0.4465(8) 0.3958(3) 1 0 0.0226(12) 
O7 O2- 2 e 1.0468(9) 0.2500 0.4709(5) 1 0 0.0263(18) 
O8 O2- 2 e 1.0362(9) 0.2500 0.3140(4) 1 0 0.0240(18) 
O9 O2- 2 e 0.8887(12) 0.2500 0.0634(7) 1 0 0.051(3) 

loop_
_atom_site_aniso_label
_atom_site_aniso_type_symbol
_atom_site_aniso_U_11
_atom_site_aniso_U_22
_atom_site_aniso_U_33
_atom_site_aniso_U_12
_atom_site_aniso_U_13
_atom_site_aniso_U_23
Ag1 Ag1+ 0.0308(5) 0.0271(5) 0.0362(5) 0.000 -0.0079(4) 0.000
Ag2 Ag1+ 0.0300(5) 0.0255(5) 0.0329(5) 0.000 0.0049(4) 0.000
Ag3 Ag1+ 0.0316(4) 0.0362(4) 0.0316(4) 0.0081(3) 0.0010(3) 0.0051(3)
Ag4 Ag1+ 0.0347(4) 0.0362(4) 0.0528(5) 0.0102(3) -0.0068(3) 0.0018(4)
Ag5 Ag1+ 0.0485(5) 0.0312(4) 0.0315(4) -0.0010(3) 0.0135(3) -0.0005(3)
Ag6 Ag1+ 0.0458(5) 0.0989(9) 0.0375(5) 0.0024(5) 0.0078(4) -0.0031(5)
Ag7 Ag1+ 0.0871(10) 0.0265(6) 0.0441(7) 0.000 -0.0296(7) 0.000
Ag8 Ag1+ 0.0698(7) 0.0411(5) 0.1181(10) 0.0087(5) 0.0353(7) 0.0230(6)
I1 I1- 0.0227(4) 0.0282(4) 0.0329(4) 0.000 0.0000(3) 0.000
I2 I1- 0.0274(4) 0.0284(4) 0.0298(4) 0.000 -0.0044(3) 0.000
I3 I1- 0.0461(5) 0.0293(5) 0.0313(5) 0.000 0.0068(4) 0.000
I4 I1- 0.0402(5) 0.0350(5) 0.0385(5) 0.000 -0.0014(4) 0.000
As1 As5+ 0.0169(6) 0.0167(6) 0.0155(5) 0.000 0.0023(4) 0.000
As2 As5+ 0.0264(6) 0.0212(6) 0.0169(6) 0.000 0.0005(5) 0.000
As3 As5+ 0.0164(5) 0.0161(5) 0.0166(5) 0.000 0.0026(4) 0.000
O1 O2- 0.030(3) 0.023(3) 0.021(3) -0.002(3) 0.003(2) -0.002(2)
O2 O2- 0.020(4) 0.032(5) 0.021(4) 0.000 0.010(3) 0.000
O3 O2- 0.015(4) 0.025(4) 0.033(5) 0.000 -0.002(3) 0.000
O4 O2- 0.046(4) 0.025(3) 0.026(3) -0.003(3) -0.004(3) -0.002(3)
O5 O2- 0.062(7) 0.040(6) 0.020(4) 0.000 0.008(4) 0.000
O6 O2- 0.025(3) 0.018(3) 0.025(3) 0.002(2) 0.001(2) 0.000(2)
O7 O2- 0.026(4) 0.030(5) 0.023(4) 0.000 -0.005(3) 0.000
O8 O2- 0.023(4) 0.029(5) 0.021(4) 0.000 0.007(3) 0.000
O9 O2- 0.037(6) 0.041(6) 0.075(8) 0.000 -0.006(5) 0.000
#End of data_420671-ICSD


