data_261154-ICSD
#?2014 by Fachinformationszentrum Karlsruhe, and the U.S. Secretary of 
#Commerce on behalf of the United States.  All rights reserved.
_database_code_ICSD                261154
_audit_creation_date               2011/02/01
_chemical_name_systematic
;
Dipotassium Hexaaquanickel Bis(hexafluoridozirconate(IV))
;
_chemical_formula_structural       'K2 (Ni (H2 O)6) (Zr F6)2'
_chemical_formula_sum              'H12 F12 K2 Ni1 O6 Zr2'
_publ_section_title
;
Dipotassium hexaaquanickel(II) bis[hexafluoridozirconate(IV)]
;
loop_
_citation_id
_citation_journal_abbrev
_citation_year
_citation_journal_volume
_citation_journal_issue
_citation_page_first
_citation_page_last
_citation_journal_id_ASTM
primary 'Acta Crystallographica, Section E. Structure Reports Online'
 2011 67 1 i6 i7 ACSEBH
_publ_author_name
;
Oudahmane, A.;Mnaouer, N.;El-Ghozzi, M.;Avignant, D.
;
_cell_length_a                     6.60900(10)
_cell_length_b                     10.03980(10)
_cell_length_c                     11.78430(10)
_cell_angle_alpha                  90.00
_cell_angle_beta                   95.8970(10)
_cell_angle_gamma                  90.00
_cell_volume                       777.79
_cell_formula_units_Z              2
_symmetry_space_group_name_H-M     'P 1 21/n 1'
_symmetry_Int_Tables_number        14
_refine_ls_R_factor_all            .0231
loop_
_symmetry_equiv_pos_site_id
_symmetry_equiv_pos_as_xyz
  1	'-x+.5, y+.5, -z+.5'
  2	'-x, -y, -z'
  3	'x+.5, -y+.5, z+.5'
  4	'x, y, z'
loop_
_atom_type_symbol
_atom_type_oxidation_number
F1-	-1
H1+	1
K1+	1
Ni2+	2
O2-	-2
Zr4+	4
loop_
_atom_site_label
_atom_site_type_symbol
_atom_site_symmetry_multiplicity
_atom_site_Wyckoff_symbol
_atom_site_fract_x
_atom_site_fract_y
_atom_site_fract_z
_atom_site_occupancy
_atom_site_attached_hydrogens
_atom_site_U_iso_or_equiv
Zr1 Zr4+ 4 e -0.462200(17 0.984514(11) 0.350424(9) 1 0 0.01376(3) 
Ni1 Ni2+ 2 a 0.0000 0.0000 0.0000 1 0 0.01508(4) 
K1 K1+ 4 e 0.47534(5) 0.71630(3) 0.08423(3) 1 0 0.02839(7) 
O1 O2- 4 e 0.21314(15) -0.11683(10) -0.06747(9) 1 0 0.02154(17) 
O2 O2- 4 e -0.23852(15) -0.12500(10) -0.05901(9) 1 0 0.02039(17) 
O3 O2- 4 e -0.04437(19) -0.88871(12) -0.14701(9) 1 0 0.0293(2) 
F1 F1- 4 e 0.53736(16) 0.11314(9) 0.49592(7) 1 0 0.0300(2) 
F2 F1- 4 e -0.53154(14) 0.78950(8) 0.31006(7) 1 0 0.02440(16) 
F3 F1- 4 e -0.17901(13) 0.93040(11) 0.39692(9) 1 0 0.0346(2) 
F4 F1- 4 e -0.46635(13) 0.97177(8) 0.17481(7) 1 0 0.02228(15) 
F5 F1- 4 e -0.35001(14) 0.16232(8) 0.30407(8) 1 0 0.02609(17) 
F6 F1- 4 e -0.75507(12) 0.03609(11) 0.31945(8) 1 0 0.02759(18) 
H1 H1+ 4 e 0.159(4) -0.169(3) -0.111(2) 1 0 0.044(6) 
H2 H1+ 4 e 0.289(4) -0.072(3) -0.103(2) 1 0 0.044(6) 
H3 H1+ 4 e -0.196(3) -0.178(2) -0.099(2) 1 0 0.041(6) 
H4 H1+ 4 e -0.327(3) -0.084(2) -0.0981(19) 1 0 0.038(6) 
H5 H1+ 4 e 0.028(4) -0.829(3) -0.163(2) 1 0 0.046(7) 
H6 H1+ 4 e -0.086(4) -0.925(3) -0.205(2) 1 0 0.048(7) 

loop_
_atom_site_aniso_label
_atom_site_aniso_type_symbol
_atom_site_aniso_U_11
_atom_site_aniso_U_22
_atom_site_aniso_U_33
_atom_site_aniso_U_12
_atom_site_aniso_U_13
_atom_site_aniso_U_23
Zr1 Zr4+ 0.01662(5) 0.01302(5) 0.01144(5) -0.00068(3) 0.00044(3) 0.00045(3)
Ni1 Ni2+ 0.01666(9) 0.01442(9) 0.01395(9) -0.00119(6) 0.00064(7) 
-0.00028(6)
K1 K1+ 0.03371(15) 0.02741(14) 0.02299(14) -0.00580(11) -0.00224(11) 
0.00113(10)
O1 O2- 0.0229(4) 0.0194(4) 0.0230(5) -0.0021(3) 0.0058(4) -0.0031(3)
O2 O2- 0.0207(4) 0.0186(4) 0.0213(4) -0.0003(3) -0.0007(3) -0.0024(3)
O3 O2- 0.0407(6) 0.0279(5) 0.0175(5) -0.0127(4) -0.0053(4) 0.0056(4)
F1 F1- 0.0579(6) 0.0175(4) 0.0158(4) -0.0105(4) 0.0091(4) -0.0021(3)
F2 F1- 0.0394(5) 0.0162(3) 0.0173(4) -0.0029(3) 0.0014(3) -0.0013(3)
F3 F1- 0.0216(4) 0.0442(6) 0.0365(5) 0.0060(4) -0.0048(3) 0.0052(4)
F4 F1- 0.0280(4) 0.0239(4) 0.0152(3) -0.0041(3) 0.0037(3) -0.0007(3)
F5 F1- 0.0367(4) 0.0181(4) 0.0247(4) -0.0067(3) 0.0091(3) 0.0002(3)
F6 F1- 0.0193(4) 0.0350(5) 0.0280(5) 0.0055(3) 0.0004(3) -0.0062(3)
#End of data_261154-ICSD


