data_400437-ICSD
#?2014 by Fachinformationszentrum Karlsruhe, and the U.S. Secretary of 
#Commerce on behalf of the United States.  All rights reserved.
_database_code_ICSD                400437
_audit_creation_date               1995/01/10
_audit_update_record               2000/07/15
_chemical_name_systematic          'Barium Dierbium Zincate'
_chemical_formula_structural       'Ba Er2 (Zn O5)'
_chemical_formula_sum              'Ba1 Er2 O5 Zn1'
_publ_section_title
;
Zur Kristallstruktur von Erdalkalimetall-Lanthanoid-Oxozinkaten: 
(I)Ba2 Tm2 Zn8 O13,(II)Ba2 Y2 Zn8 O13,(III)Ba Er2 Zn O5 und (IV)Ba5 
Er8 Zn4 O21
;
loop_
_citation_id
_citation_journal_abbrev
_citation_year
_citation_journal_volume
_citation_page_first
_citation_page_last
_citation_journal_id_ASTM
primary 'Journal of Alloys and Compounds' 1994 206 163 167 JALCEU
_publ_author_name                  'Rabbow, C.;Mueller Buschbaum, H.'
_cell_length_a                     7.032(2)
_cell_length_b                     12.262(1)
_cell_length_c                     5.681(1)
_cell_angle_alpha                  90.
_cell_angle_beta                   90.
_cell_angle_gamma                  90.
_cell_volume                       489.85
_cell_formula_units_Z              4
_symmetry_space_group_name_H-M     'P b n m'
_symmetry_Int_Tables_number        62
_refine_ls_R_factor_all            .047
loop_
_symmetry_equiv_pos_site_id
_symmetry_equiv_pos_as_xyz
  1	'-x+.5, y+.5, z'
  2	'x, y, -z+.5'
  3	'x+.5, -y+.5, z+.5'
  4	'-x, -y, -z'
  5	'x+.5, -y+.5, -z'
  6	'-x, -y, z+.5'
  7	'-x+.5, y+.5, -z+.5'
  8	'x, y, z'
loop_
_atom_type_symbol
_atom_type_oxidation_number
Ba2+	2
Er3+	3
O2-	-2
Zn2+	2
loop_
_atom_site_label
_atom_site_type_symbol
_atom_site_symmetry_multiplicity
_atom_site_Wyckoff_symbol
_atom_site_fract_x
_atom_site_fract_y
_atom_site_fract_z
_atom_site_occupancy
_atom_site_attached_hydrogens
_atom_site_U_iso_or_equiv
Er1 Er3+ 4 c 0.1207(1) 0.2922(1) 0.25 1. 0 0.01509(2) 
Er2 Er3+ 4 c 0.3983(1) 0.0743(1) 0.25 1. 0 0.01472(2) 
Ba1 Ba2+ 4 c 0.9233(1) 0.8998(1) 0.25 1. 0 0.01695(3) 
Zn1 Zn2+ 4 c 0.6902(1) 0.6502(1) 0.25 1. 0 0.01433(5) 
O1 O2- 8 d 0.1672(2) 0.4349(1) 0.9955(3) 1. 0 0.0170(2) 
O2 O2- 8 d 0.3589(2) 0.2241(5) 0.5015(3) 1. 0 0.0177(2) 
O3 O2- 4 c 0.0712(3) 0.1026(2) 0.25 1. 0 0.0154(3) 

#End of data_400437-ICSD


