data_24473-ICSD
#?2014 by Fachinformationszentrum Karlsruhe, and the U.S. Secretary of 
#Commerce on behalf of the United States.  All rights reserved.
_database_code_ICSD                24473
_audit_creation_date               1980/01/01
_audit_update_record               1997/11/10
_chemical_name_systematic          'Calcium Sulfate - Gamma'
_chemical_formula_structural       'Ca S O4'
_chemical_formula_sum              'Ca1 O4 S1'
_chemical_name_mineral             'Anhydrite III'
_publ_section_title
;
Kristallographische und roentgenometrische Untersuchungen im System 
Ca S O4 - Ca S O4 (H2 O)2
;
loop_
_citation_id
_citation_journal_abbrev
_citation_year
_citation_journal_volume
_citation_page_first
_citation_page_last
_citation_journal_id_ASTM
primary 'Neues Jahrbuch fuer Mineralogie. Abhandlungen (Band-Nr) (1950-)'
 1952 84 189 240 NJMIAK
_publ_author_name                  'Floerke, O.W.'
_cell_length_a                     6.99
_cell_length_b                     6.99
_cell_length_c                     6.34
_cell_angle_alpha                  90.
_cell_angle_beta                   90.
_cell_angle_gamma                  120.
_cell_volume                       268.27
_cell_formula_units_Z              3
_symmetry_space_group_name_H-M     'P 62 2 2'
_symmetry_Int_Tables_number        180
loop_
_symmetry_equiv_pos_site_id
_symmetry_equiv_pos_as_xyz
  1	'x, x-y, -z+.3333'
  2	'-x+y, y, -z'
  3	'-y, -x, -z+.6667'
  4	'-x, -x+y, -z+.3333'
  5	'x-y, -y, -z'
  6	'y, x, -z+.6667'
  7	'x-y, x, z+.3333'
  8	'y, -x+y, z+.6667'
  9	'-x, -y, z'
 10	'-x+y, -x, z+.3333'
 11	'-y, x-y, z+.6667'
 12	'x, y, z'
loop_
_atom_type_symbol
_atom_type_oxidation_number
Ca2+	2
O2-	-2
S6+	6
loop_
_atom_site_label
_atom_site_type_symbol
_atom_site_symmetry_multiplicity
_atom_site_Wyckoff_symbol
_atom_site_fract_x
_atom_site_fract_y
_atom_site_fract_z
_atom_site_occupancy
_atom_site_attached_hydrogens
Ca1 Ca2+ 3 c 0.5 0 0 1. 0 
S1 S6+ 3 d 0.5 0 0.5 1. 0 
O1 O2- 12 k 0.445 0.145 0.362 1. 0 

#End of data_24473-ICSD


