data_426080-ICSD
#?2014 by Fachinformationszentrum Karlsruhe, and the U.S. Secretary of 
#Commerce on behalf of the United States.  All rights reserved.
_database_code_ICSD                426080
_audit_creation_date               2014/02/01
_chemical_name_systematic          'Potassium Arsenoditungstate'
_chemical_formula_structural       'K (As W2 O9)'
_chemical_formula_sum              'As1 K1 O9 W2'
_publ_section_title
;
K (As W2 O9), the first member of the arsenate-tungsten bronze 
family: Synthesis, structure, spectroscopic and non-linear optical 
properties
;
loop_
_citation_id
_citation_journal_abbrev
_citation_year
_citation_journal_volume
_citation_page_first
_citation_page_last
_citation_journal_id_ASTM
primary 'Journal of Solid State Chemistry' 2013 204 59 63 JSSCBI
_publ_author_name
;
Alekseev, Evgeny V.;Felbinger, Olivier;Wu, Shijun;Malcherek, 
Thomas;Depmeier, Wulf;Modolo, Giuseppe;Gesing, Thorsten 
M.;Krivovichev, Sergey V.;Suleimanov, Evgeny V.;Gavrilova, Tatiana 
A.;Pokrovsky, Lev D.;Pugachev, Alexey M.;Surovtsev, Nikolay 
V.;Atuchin,
;
_cell_length_a                     4.9747(3)
_cell_length_b                     9.1780(8)
_cell_length_c                     16.6817(19)
_cell_angle_alpha                  90.00
_cell_angle_beta                   90.00
_cell_angle_gamma                  90.00
_cell_volume                       761.65
_cell_formula_units_Z              4
_symmetry_space_group_name_H-M     'P 21 21 21'
_symmetry_Int_Tables_number        19
_refine_ls_R_factor_all            .0145
loop_
_symmetry_equiv_pos_site_id
_symmetry_equiv_pos_as_xyz
  1	'-x, y+.5, -z+.5'
  2	'x+.5, -y+.5, -z'
  3	'-x+.5, -y, z+.5'
  4	'x, y, z'
loop_
_atom_type_symbol
_atom_type_oxidation_number
As5+	5
K1+	1
O2-	-2
W6+	6
loop_
_atom_site_label
_atom_site_type_symbol
_atom_site_symmetry_multiplicity
_atom_site_Wyckoff_symbol
_atom_site_fract_x
_atom_site_fract_y
_atom_site_fract_z
_atom_site_occupancy
_atom_site_attached_hydrogens
_atom_site_U_iso_or_equiv
W1 W6+ 4 a 0.65337(3) 0.135352(13) 0.447508(8) 1 0 0.00686(3) 
W2 W6+ 4 a 1.12471(2) 0.931339(13) 0.334960(7) 1 0 0.00661(3) 
As1 As5+ 4 a 0.65190(7) 0.76840(3) 0.223947(19) 1 0 0.00641(5) 
K1 K1+ 4 a 0.72255(19) 0.54820(10) 0.40733(6) 1 0 0.02469(19) 
O1 O2- 4 a 0.8739(5) 0.2855(2) 0.47691(13) 1 0 0.0099(4) 
O2 O2- 4 a 0.3396(5) 0.0127(2) 0.41087(13) 1 0 0.0101(4) 
O3 O2- 4 a 0.8452(5) 0.0724(3) 0.35837(14) 1 0 0.0108(4) 
O4 O2- 4 a 0.9171(5) 0.8831(3) 0.23368(14) 1 0 0.0117(4) 
O5 O2- 4 a 0.4197(5) 0.8129(3) 0.29411(15) 1 0 0.0132(5) 
O6 O2- 4 a 0.7493(5) 0.0027(3) 0.51342(15) 1 0 0.0124(5) 
O7 O2- 4 a 0.5273(5) 0.7914(3) 0.13253(14) 1 0 0.0099(4) 
O8 O2- 4 a 0.7349(5) 0.5956(2) 0.24578(15) 1 0 0.0099(4) 
O9 O2- 4 a 0.9847(5) 0.7943(3) 0.39034(17) 1 0 0.0160(5) 

loop_
_atom_site_aniso_label
_atom_site_aniso_type_symbol
_atom_site_aniso_U_11
_atom_site_aniso_U_22
_atom_site_aniso_U_33
_atom_site_aniso_U_12
_atom_site_aniso_U_13
_atom_site_aniso_U_23
W1 W6+ 0.00555(5) 0.00779(5) 0.00724(5) 0.00065(4) -0.00146(4) -0.00087(4)
W2 W6+ 0.00618(5) 0.00680(5) 0.00685(5) -0.00132(4) -0.00015(4) -0.00090(4)
As1 As5+ 0.00624(13) 0.00671(12) 0.00628(13) 0.00049(11) -0.00124(12) 
-0.00092(10)
K1 K1+ 0.0316(5) 0.0202(4) 0.0223(4) -0.0127(3) -0.0053(4) 0.0082(3)
O1 O2- 0.0078(10) 0.0133(10) 0.0087(9) -0.0019(10) -0.0014(9) -0.0019(8)
O2 O2- 0.0092(10) 0.0105(9) 0.0106(10) -0.0014(9) -0.0020(9) -0.0020(8)
O3 O2- 0.0080(10) 0.0136(9) 0.0107(10) 0.0039(10) 0.0012(8) -0.0038(8)
O4 O2- 0.0097(10) 0.0146(10) 0.0108(11) -0.0058(8) -0.0025(9) -0.0024(9)
O5 O2- 0.0113(11) 0.0160(11) 0.0123(11) 0.0052(9) 0.0030(9) -0.0018(9)
O6 O2- 0.0121(11) 0.0136(11) 0.0116(11) 0.0043(9) -0.0027(9) 0.0007(9)
O7 O2- 0.0120(11) 0.0098(10) 0.0080(11) -0.0017(9) -0.0053(9) 0.0005(9)
O8 O2- 0.0133(11) 0.0070(10) 0.0095(10) 0.0043(8) 0.0007(9) 0.0005(8)
O9 O2- 0.0161(12) 0.0132(11) 0.0186(13) -0.0043(10) 0.0021(10) 0.0003(10)
#End of data_426080-ICSD


