data_73215-ICSD
#?2014 by Fachinformationszentrum Karlsruhe, and the U.S. Secretary of 
#Commerce on behalf of the United States.  All rights reserved.
_database_code_ICSD                73215
_audit_creation_date               1994/06/30
_audit_update_record               2012/02/01
_chemical_name_systematic          'Tripotassium Ferrate(I)'
_chemical_formula_structural       'K3 (Fe O2)'
_chemical_formula_sum              'Fe1 K3 O2'
_publ_section_title
;
Das erste Oxoferrat(I): zur Konstitution von K3 (Fe O2) und K3 (Ni 
O2)
;
loop_
_citation_id
_citation_journal_abbrev
_citation_year
_citation_journal_volume
_citation_page_first
_citation_page_last
_citation_journal_id_ASTM
primary 'Zeitschrift fuer Anorganische und Allgemeine Chemie (1950) (DE)'
 1993 619 969 975 ZAACAB
_publ_author_name                  'Bernhardt, F.;Hoppe, R.'
_cell_length_a                     6.042(2)
_cell_length_b                     6.042(2)
_cell_length_c                     14.027(3)
_cell_angle_alpha                  90.
_cell_angle_beta                   90.
_cell_angle_gamma                  90.
_cell_volume                       512.07
_cell_formula_units_Z              4
_symmetry_space_group_name_H-M     'P 41 21 2'
_symmetry_Int_Tables_number        92
_refine_ls_R_factor_all            .058
loop_
_symmetry_equiv_pos_site_id
_symmetry_equiv_pos_as_xyz
  1	'x+.5, -y+.5, -z+.75'
  2	'-x+.5, y+.5, -z+.25'
  3	'-y, -x, -z+.5'
  4	'y, x, -z'
  5	'y+.5, -x+.5, z+.75'
  6	'-y+.5, x+.5, z+.25'
  7	'-x, -y, z+.5'
  8	'x, y, z'
loop_
_atom_type_symbol
_atom_type_oxidation_number
Fe1+	1
K1+	1
O2-	-2
loop_
_atom_site_label
_atom_site_type_symbol
_atom_site_symmetry_multiplicity
_atom_site_Wyckoff_symbol
_atom_site_fract_x
_atom_site_fract_y
_atom_site_fract_z
_atom_site_occupancy
_atom_site_attached_hydrogens
Fe1 Fe1+ 4 a 0.5054(1) 0.5054 0 1. 0 
K1 K1+ 4 a 0.0531(3) 0.0531 0 1. 0 
K2 K1+ 8 b 0.5200(2) 0.0226(2) 0.1238(1) 1. 0 
O1 O2- 8 b 0.1996(6) 0.2124(5) 0.2385(2) 1. 0 

loop_
_atom_site_aniso_label
_atom_site_aniso_type_symbol
_atom_site_aniso_U_11
_atom_site_aniso_U_22
_atom_site_aniso_U_33
_atom_site_aniso_U_12
_atom_site_aniso_U_13
_atom_site_aniso_U_23
Fe1 Fe1+ .0140(3) .0140(3) .0161(4) .0034(2) .0001(2) -.0001(2)
K1 K1+ .0439(9) .0439(9) .1039(19) .0303(11) .0020(8) -.0020(8)
K2 K1+ .0270(6) .0335(7) .0245(6) -.0028(6) .0011(4) .0054(4)
O1 O2- .0280(18) .0182(16) .0432(19) -.0067(10) -.0006(18) .0027(17)
#End of data_73215-ICSD


