data_67600-ICSD
#?2014 by Fachinformationszentrum Karlsruhe, and the U.S. Secretary of 
#Commerce on behalf of the United States.  All rights reserved.
_database_code_ICSD                67600
_audit_creation_date               1993/08/22
_chemical_name_systematic          'Barium Sodium Fluorodizirconate'
_chemical_formula_structural       'Ba Na (Zr2 F11)'
_chemical_formula_sum              'Ba1 F11 Na1 Zr2'
_publ_section_title
;
Crystal structure of BaNaZr2F11: A Phase Recrystallizing from 
Fluorozirconate Glasses
;
loop_
_citation_id
_citation_journal_abbrev
_citation_year
_citation_journal_volume
_citation_page_first
_citation_page_last
_citation_journal_id_ASTM
primary 'Journal of Solid State Chemistry' 1992 101 18 25 JSSCBI
_publ_author_name                  'Laval, J.P.;Abaouz, A.'
_cell_length_a                     8.223(5)
_cell_length_b                     8.223(5)
_cell_length_c                     23.610(14)
_cell_angle_alpha                  90.
_cell_angle_beta                   90.
_cell_angle_gamma                  90.
_cell_volume                       1596.45
_cell_formula_units_Z              8
_symmetry_space_group_name_H-M     'I 41/a Z'
_symmetry_Int_Tables_number        88
_refine_ls_R_factor_all            .055
loop_
_symmetry_equiv_pos_site_id
_symmetry_equiv_pos_as_xyz
  1	'-y+.75, x+.75, -z+.75'
  2	'y+.25, -x+.75, -z+.75'
  3	'x, y+.5, -z'
  4	'-x, -y, -z'
  5	'y+.25, -x+.25, z+.25'
  6	'-y+.75, x+.25, z+.25'
  7	'-x, -y+.5, z'
  8	'x, y, z'
  9	'-y+.25, x+.25, -z+.25'
 10	'y+.75, -x+.25, -z+.25'
 11	'x+.5, y, -z+.5'
 12	'-x+.5, -y+.5, -z+.5'
 13	'y+.75, -x+.75, z+.75'
 14	'-y+.25, x+.75, z+.75'
 15	'-x+.5, -y, z+.5'
 16	'x+.5, y+.5, z+.5'
loop_
_atom_type_symbol
_atom_type_oxidation_number
Ba2+	2
F1-	-1
Na1+	1
Zr4+	4
loop_
_atom_site_label
_atom_site_type_symbol
_atom_site_symmetry_multiplicity
_atom_site_Wyckoff_symbol
_atom_site_fract_x
_atom_site_fract_y
_atom_site_fract_z
_atom_site_occupancy
_atom_site_attached_hydrogens
_atom_site_B_iso_or_equiv
Zr1 Zr4+ 16 f 0.1391(2) 0.0354(2) 0.8747(1) 1. 0 0 
Ba1 Ba2+ 8 e 0 0.25 0.5359(1) 1. 0 0 
Na1 Na1+ 8 e 0 0.25 0.0093(6) 1. 0 0 
F1 F1- 8 e 0 0.25 0.3771(8) 1. 0 1.4(3) 
F2 F1- 16 f 0.1880(19) 0.1383(20) 0.7962(6) 1. 0 0.9(2) 
F3 F1- 16 f 0.0713(21) 0.0397(21) 0.1773(7) 1. 0 1.2(3) 
F4 F1- 16 f 0.1164(15) 0.4429(15) 0.6251(7) 1. 0 0.8(2) 
F5 F1- 16 f 0.2038(18) 0.3167(19) 0.1732(6) 1. 0 0.7(3) 
F6 F1- 16 f 0.1810(21) 0.6343(21) 0.0489(7) 1. 0 1.3(3) 

loop_
_atom_site_aniso_label
_atom_site_aniso_type_symbol
_atom_site_aniso_U_11
_atom_site_aniso_U_22
_atom_site_aniso_U_33
_atom_site_aniso_U_12
_atom_site_aniso_U_13
_atom_site_aniso_U_23
Zr1 Zr4+ 0.0038(8) 0.0039(8) 0.0120(8) -.0015(10) 0.0016(10) 0.0010(6)
Ba1 Ba2+ 0.0073(12) 0.0077(12) 0.0130(8) 0 0 0.0008(10)
Na1 Na1+ 0.016(9) 0.029(10) 0.018(6) 0 0 0.0017(8)
#End of data_67600-ICSD


