data_423980-ICSD
#?2014 by Fachinformationszentrum Karlsruhe, and the U.S. Secretary of 
#Commerce on behalf of the United States.  All rights reserved.
_database_code_ICSD                423980
_audit_creation_date               2012/08/01
_chemical_name_systematic          'Zinc Bis(nitrate) Monohydrate'
_chemical_formula_structural       'Zn (N O3)2 (H2 O)'
_chemical_formula_sum              'H2 N2 O7 Zn1'
_publ_section_title
;
Investigation of low-hydrated metal(II) nitrates. Syntheses and 
crystal structures of Zn (N O3)2 ¨² H2 O and M(II) (N O3)2 ¨² 2 H2 O (M 
= Mg, Mn, Co, Ni)
;
loop_
_citation_id
_citation_journal_abbrev
_citation_year
_citation_journal_volume
_citation_journal_issue
_citation_page_first
_citation_page_last
_citation_journal_id_ASTM
primary 'Zeitschrift fuer Kristallographie - Crystalline Materials'
 2012 227 3 129 140 ZKCMAJ
_publ_author_name
;
Wildner, M.;Giester, G.;Lengauer, C.L.;Zemann, J.
;
_cell_length_a                     9.7216(10)
_cell_length_b                     5.8646(10)
_cell_length_c                     17.799(2)
_cell_angle_alpha                  90.00
_cell_angle_beta                   90.00
_cell_angle_gamma                  90.00
_cell_volume                       1014.78
_cell_formula_units_Z              8
_symmetry_space_group_name_H-M     'P b c a'
_symmetry_Int_Tables_number        61
_refine_ls_R_factor_all            .0253
loop_
_symmetry_equiv_pos_site_id
_symmetry_equiv_pos_as_xyz
  1	'x+.5, y, -z+.5'
  2	'x, -y+.5, z+.5'
  3	'-x+.5, y+.5, z'
  4	'-x, -y, -z'
  5	'-x+.5, -y, z+.5'
  6	'-x, y+.5, -z+.5'
  7	'x+.5, -y+.5, -z'
  8	'x, y, z'
loop_
_atom_type_symbol
_atom_type_oxidation_number
H1+	1
N5+	5
O2-	-2
Zn2+	2
loop_
_atom_site_label
_atom_site_type_symbol
_atom_site_symmetry_multiplicity
_atom_site_Wyckoff_symbol
_atom_site_fract_x
_atom_site_fract_y
_atom_site_fract_z
_atom_site_occupancy
_atom_site_attached_hydrogens
_atom_site_U_iso_or_equiv
Zn1 Zn2+ 8 c 0.400507(15) 0.46316(3) 0.151950(9) 1 0 0.01057(6) 
N1 N5+ 8 c 0.13213(11) 0.17957(19) 0.29732(6) 1 0 0.0108(2) 
N2 N5+ 8 c 0.34094(11) 0.15064(19) 0.05116(7) 1 0 0.0120(2) 
O1 O2- 8 c 0.18627(9) 0.23737(19) 0.35637(5) 1 0 0.0142(2) 
O2 O2- 8 c 0.01027(9) 0.23904(18) 0.28089(5) 1 0 0.0137(2) 
O3 O2- 8 c 0.19691(10) 0.05783(16) 0.24993(5) 1 0 0.01246(19) 
O4 O2- 8 c 0.31163(11) 0.01344(18) 0.00339(6) 1 0 0.0190(2) 
O5 O2- 8 c 0.43889(10) 0.29142(17) 0.04412(6) 1 0 0.0146(2) 
O6 O2- 8 c 0.27438(10) 0.16820(17) 0.11408(5) 1 0 0.01299(19) 
O7 O2- 8 c 0.52783(11) 0.70799(19) 0.11655(6) 1 0 0.0148(2) 
H1 H1+ 8 c 0.534(2) 0.719(4) 0.0743(13) 1 0 0.033(6) 
H2 H1+ 8 c 0.607(2) 0.712(4) 0.1291(15) 1 0 0.041(7) 

loop_
_atom_site_aniso_label
_atom_site_aniso_type_symbol
_atom_site_aniso_U_11
_atom_site_aniso_U_22
_atom_site_aniso_U_33
_atom_site_aniso_U_12
_atom_site_aniso_U_13
_atom_site_aniso_U_23
Zn1 Zn2+ 0.01086(8) 0.01116(9) 0.00968(8) 0.00046(6) 0.00014(5) -0.00003(6)
N1 N5+ 0.0109(5) 0.0105(5) 0.0109(5) -0.0011(4) 0.0007(4) 0.0012(4)
N2 N5+ 0.0127(5) 0.0108(5) 0.0125(5) 0.0003(4) 0.0008(4) 0.0004(4)
O1 O2- 0.0144(4) 0.0178(5) 0.0104(4) 0.0001(4) -0.0030(3) -0.0027(4)
O2 O2- 0.0096(4) 0.0175(5) 0.0139(5) 0.0031(4) -0.0019(3) -0.0016(4)
O3 O2- 0.0115(4) 0.0148(5) 0.0110(4) 0.0019(4) 0.0014(3) -0.0031(4)
O4 O2- 0.0260(6) 0.0170(5) 0.0138(5) -0.0062(4) 0.0033(4) -0.0055(4)
O5 O2- 0.0108(4) 0.0155(5) 0.0176(5) -0.0036(4) 0.0007(4) 0.0007(4)
O6 O2- 0.0144(4) 0.0145(5) 0.0100(4) -0.0014(4) 0.0033(3) -0.0013(4)
O7 O2- 0.0135(5) 0.0181(5) 0.0129(5) -0.0021(4) 0.0003(4) 0.0017(4)
#End of data_423980-ICSD


