data_20478-ICSD
#?2014 by Fachinformationszentrum Karlsruhe, and the U.S. Secretary of 
#Commerce on behalf of the United States.  All rights reserved.
_database_code_ICSD                20478
_audit_creation_date               1980/01/01
_audit_update_record               2011/02/01
_chemical_name_systematic          'Potassium Yttrium Bis(molybdate)'
_chemical_formula_structural       'K Y (Mo O4)2'
_chemical_formula_sum              'K1 Mo2 O8 Y1'
_publ_section_title
;
The X-ray investigation of dimolybdate K Y (Mo O4)2
;
loop_
_citation_id
_citation_journal_abbrev
_citation_year
_citation_journal_volume
_citation_page_first
_citation_page_last
_citation_journal_id_ASTM
primary 'Doklady Akademii Nauk SSSR' 1967 177 1333 1336 DANKAS
_publ_author_name                  'Klevtsova, R.F.;Borisov, S.V.'
_cell_length_a                     5.07
_cell_length_b                     18.23
_cell_length_c                     7.95
_cell_angle_alpha                  90.
_cell_angle_beta                   90.
_cell_angle_gamma                  90.
_cell_volume                       734.79
_cell_formula_units_Z              4
_symmetry_space_group_name_H-M     'P b c n'
_symmetry_Int_Tables_number        60
_refine_ls_R_factor_all            .114
loop_
_symmetry_equiv_pos_site_id
_symmetry_equiv_pos_as_xyz
  1	'x, -y, z+.5'
  2	'-x+.5, y+.5, z'
  3	'x+.5, y+.5, -z+.5'
  4	'-x, -y, -z'
  5	'-x, y, -z+.5'
  6	'x+.5, -y+.5, -z'
  7	'-x+.5, -y+.5, z+.5'
  8	'x, y, z'
loop_
_atom_type_symbol
_atom_type_oxidation_number
K1+	1
Mo6+	6
O2-	-2
Y3+	3
loop_
_atom_site_label
_atom_site_type_symbol
_atom_site_symmetry_multiplicity
_atom_site_Wyckoff_symbol
_atom_site_fract_x
_atom_site_fract_y
_atom_site_fract_z
_atom_site_occupancy
_atom_site_attached_hydrogens
_atom_site_B_iso_or_equiv
Mo1 Mo6+ 8 d 0.5229(5) 0.1013(1) -.0161(3) 1. 0 0.68 
Y1 Y3+ 4 c 0 0.0061(2) 0.25 1. 0 1.02 
K1 K1+ 4 c 0.5 0.2696(5) 0.25 1. 0 1.49 
O1 O2- 8 d 0.726(5) 0.100(1) 0.159(3) 1. 0 0.87 
O2 O2- 8 d 0.747(5) 0.095(1) -.187(3) 1. 0 0.85 
O3 O2- 8 d 0.252(4) 0.035(1) 0.004(3) 1. 0 0.61 
O4 O2- 8 d 0.398(5) 0.189(1) -.028(4) 1. 0 1.32 

#End of data_20478-ICSD


