data_83873-ICSD
#?2014 by Fachinformationszentrum Karlsruhe, and the U.S. Secretary of 
#Commerce on behalf of the United States.  All rights reserved.
_database_code_ICSD                83873
_audit_creation_date               1999/01/19
_chemical_name_systematic
;
Dicesium Potassium Phyllo-dodecafluorotrimanganate
;
_chemical_formula_structural       'Cs2 K (Mn3 F12)'
_chemical_formula_sum              'Cs2 F12 K1 Mn3'
_publ_section_title
;
Jahn-Teller ordering in Kagome-type layers of compounds A2 A' 
Mn(III)3 F12 (A =Rb,Cs; A'=Li,Na,K)
;
loop_
_citation_id
_citation_journal_abbrev
_citation_year
_citation_journal_volume
_citation_page_first
_citation_page_last
_citation_journal_id_ASTM
primary 'Journal of Alloys and Compounds' 1997 246 155 165 JALCEU
_publ_author_name                  'Englich, U.;Frommen, C.;Massa, W.'
_cell_length_a                     13.112(3)
_cell_length_b                     7.571(2)
_cell_length_c                     12.672(3)
_cell_angle_alpha                  90.
_cell_angle_beta                   108.79(3)
_cell_angle_gamma                  90.
_cell_volume                       1190.92
_cell_formula_units_Z              4
_symmetry_space_group_name_H-M     'C 1 2/c 1'
_symmetry_Int_Tables_number        15
_refine_ls_R_factor_all            .053
loop_
_symmetry_equiv_pos_site_id
_symmetry_equiv_pos_as_xyz
  1	'x, -y, z+.5'
  2	'-x, -y, -z'
  3	'-x, y, -z+.5'
  4	'x, y, z'
  5	'x+.5, -y+.5, z+.5'
  6	'-x+.5, -y+.5, -z'
  7	'-x+.5, y+.5, -z+.5'
  8	'x+.5, y+.5, z'
loop_
_atom_type_symbol
_atom_type_oxidation_number
Cs1+	1
F1-	-1
K1+	1
Mn3+	3
loop_
_atom_site_label
_atom_site_type_symbol
_atom_site_symmetry_multiplicity
_atom_site_Wyckoff_symbol
_atom_site_fract_x
_atom_site_fract_y
_atom_site_fract_z
_atom_site_occupancy
_atom_site_attached_hydrogens
_atom_site_U_iso_or_equiv
Cs1 Cs1+ 8 f 0.30891(7) 0.2175(1) 0.67539(6) 1. 0 0.0274(4) 
K1 K1+ 4 e 0.5 0.7282(5) 0.75 1. 0 0.0351(4) 
Mn1 Mn3+ 4 a 0 0 0.5 1. 0 0.0120(6) 
Mn2 Mn3+ 4 b 0.5 0 0 1. 0 0.0130(6) 
Mn3 Mn3+ 4 c 0.25 0.25 0 1. 0 0.0129(6) 
F1 F1- 8 f 0.4485(6) 0.2346(9) 0.4713(7) 1. 0 0.025(2) 
F2 F1- 8 f 0.2027(6) 0.310(1) 0.8538(6) 1. 0 0.022(2) 
F3 F1- 8 f 0.3738(6) 0.5543(9) 0.5358(6) 1. 0 0.022(2) 
F4 F1- 8 f 0.4818(7) 0.028(1) 0.8546(6) 1. 0 0.032(2) 
F5 F1- 8 f 0.3370(6) 0.075(1) 0.9699(6) 1. 0 0.0204(15) 
F6 F1- 8 f 0.4287(7) 0.465(1) 0.8545(5) 1. 0 0.027(2) 

#End of data_83873-ICSD


