data_409751-ICSD
#?2014 by Fachinformationszentrum Karlsruhe, and the U.S. Secretary of 
#Commerce on behalf of the United States.  All rights reserved.
_database_code_ICSD                409751
_audit_creation_date               2004/10/01
_audit_update_record               2010/08/01
_chemical_name_systematic
;
Potassium Antimony Hexathiodiphosphate(IV)
;
_chemical_formula_structural       'K Sb (P2 S6)'
_chemical_formula_sum              'K1 P2 S6 Sb1'
_publ_section_title
;
Crystal structure of potassium antimony hexathiodiphosphate, K Sb P2 
S6
;
loop_
_citation_id
_citation_journal_abbrev
_citation_year
_citation_journal_volume
_citation_page_first
_citation_page_last
_citation_journal_id_ASTM
primary 'Zeitschrift fuer Kristallographie - New Crystal Structures'
 2003 218 403 404 ZKNSFT
_publ_author_name
;
Manriquez, V.;Galdamez, A.;Ruiz Leon, D.;Garland, M.T.
;
_cell_length_a                     6.6050(13)
_cell_length_b                     7.6511(15)
_cell_length_c                     9.754(2)
_cell_angle_alpha                  90.
_cell_angle_beta                   92.11(3)
_cell_angle_gamma                  90.
_cell_volume                       492.59
_cell_formula_units_Z              2
_symmetry_space_group_name_H-M     'P 1 21 1'
_symmetry_Int_Tables_number        4
_refine_ls_R_factor_all            .018
loop_
_symmetry_equiv_pos_site_id
_symmetry_equiv_pos_as_xyz
  1	'-x, y+.5, -z'
  2	'x, y, z'
loop_
_atom_type_symbol
_atom_type_oxidation_number
K1+	1
P4+	4
S2-	-2
Sb3+	3
loop_
_atom_site_label
_atom_site_type_symbol
_atom_site_symmetry_multiplicity
_atom_site_Wyckoff_symbol
_atom_site_fract_x
_atom_site_fract_y
_atom_site_fract_z
_atom_site_occupancy
_atom_site_attached_hydrogens
_atom_site_U_iso_or_equiv
Sb1 Sb3+ 2 a 0.81740(3) 0.76783(2) 0.98199(2) 1. 0 0.02255(7) 
K1 K1+ 2 a 0.69550(13) 1.05338(14) 0.50699(9) 1. 0 0.0332(2) 
P1 P4+ 2 a 0.69225(13) 0.34919(12) 0.82655(9) 1. 0 0.01728(18) 
P2 P4+ 2 a 0.79569(14) 0.56782(12) 0.69610(9) 1. 0 0.01875(19) 
S1 S2- 2 a 0.67156(14) 0.46418(13) 1.01839(8) 1. 0 0.0230(2) 
S2 S2- 2 a 0.91096(14) 0.15923(13) 0.82753(10) 1. 0 0.02313(19) 
S3 S2- 2 a 0.42846(12) 0.26256(17) 0.74772(8) 1. 0 0.02313(17) 
S4 S2- 2 a 1.05469(14) 0.64376(13) 0.80623(10) 1. 0 0.02364(19) 
S5 S2- 2 a 0.58781(13) 0.75455(15) 0.73068(9) 1. 0 0.02497(19) 
S6 S2- 2 a 0.82713(15) 0.48435(15) 0.50784(10) 1. 0 0.0286(2) 

loop_
_atom_site_aniso_label
_atom_site_aniso_type_symbol
_atom_site_aniso_U_11
_atom_site_aniso_U_22
_atom_site_aniso_U_33
_atom_site_aniso_U_12
_atom_site_aniso_U_13
_atom_site_aniso_U_23
Sb1 Sb3+ 0.02470(12) 0.01932(11) 0.02354(12) -.00140(12) -.00049(9) 
-.00237(12)
K1 K1+ 0.0300(5) 0.0380(5) 0.0314(5) -.0002(4) -.0020(4) -.0003(4)
P1 P4+ 0.0176(5) 0.0174(4) 0.0167(4) -.0019(4) -.0007(3) 0.0009(4)
P2 P4+ 0.0191(4) 0.0199(4) 0.0172(4) -.0019(4) -.0001(3) 0.0016(4)
S1 S2- 0.0297(5) 0.0219(4) 0.0174(5) -.0062(4) 0.0032(4) -.0019(4)
S2 S2- 0.0230(5) 0.0213(4) 0.0247(5) 0.0034(4) -.0038(4) -.0015(4)
S3 S2- 0.0194(4) 0.0263(4) 0.0233(4) -.0057(5) -.0035(3) 0.0011(5)
S4 S2- 0.0180(4) 0.0297(4) 0.0232(5) -.0036(4) 0.0002(4) -.0025(4)
S5 S2- 0.0251(4) 0.0226(4) 0.0268(4) 0.0045(5) -.0041(3) -.0007(5)
S6 S2- 0.0308(6) 0.0367(6) 0.0184(5) -.0037(5) 0.0023(4) -.0030(4)
#End of data_409751-ICSD


