data_23198-ICSD
#?2014 by Fachinformationszentrum Karlsruhe, and the U.S. Secretary of 
#Commerce on behalf of the United States.  All rights reserved.
_database_code_ICSD                23198
_audit_creation_date               1980/01/01
_audit_update_record               2012/02/01
_chemical_name_systematic          'Dicalcium Uranate'
_chemical_formula_structural       'Ca2 (U O5)'
_chemical_formula_sum              'Ca2 O5 U1'
_publ_section_title
;
The structure of some alkaline-earth metal uranates
;
loop_
_citation_id
_citation_journal_abbrev
_citation_year
_citation_journal_volume
_citation_page_first
_citation_page_last
_citation_journal_id_ASTM
primary 'Acta Crystallographica B (24,1968-38,1982)' 1969 25 787 791 ACBCAR
_publ_author_name                  'Loopstra, B.O.;Rietveld, H.M.'
_cell_length_a                     7.9137(13)
_cell_length_b                     5.4409(7)
_cell_length_c                     11.4482(19)
_cell_angle_alpha                  90.
_cell_angle_beta                   108.803(7)
_cell_angle_gamma                  90.
_cell_volume                       466.63
_cell_formula_units_Z              4
_symmetry_space_group_name_H-M     'P 1 21/c 1'
_symmetry_Int_Tables_number        14
_refine_ls_R_factor_all            .126
loop_
_symmetry_equiv_pos_site_id
_symmetry_equiv_pos_as_xyz
  1	'x, -y+.5, z+.5'
  2	'-x, -y, -z'
  3	'-x, y+.5, -z+.5'
  4	'x, y, z'
loop_
_atom_type_symbol
_atom_type_oxidation_number
Ca2+	2
O2-	-2
U6+	6
loop_
_atom_site_label
_atom_site_type_symbol
_atom_site_symmetry_multiplicity
_atom_site_Wyckoff_symbol
_atom_site_fract_x
_atom_site_fract_y
_atom_site_fract_z
_atom_site_occupancy
_atom_site_attached_hydrogens
_atom_site_B_iso_or_equiv
Ca1 Ca2+ 4 e 0.1592(13) 0.0621(16) 0.320(1) 1. 0 0.55 
Ca2 Ca2+ 4 e 0.3462(12) 0.9985(19) 0.6414(8) 1. 0 0.55 
U1 U6+ 2 a 0 0 0 1. 0 0.62 
U2 U6+ 2 b 0.5 0 0 1. 0 0.62 
O1 O2- 4 e 0.4447(11) 0.3202(15) 0.3267(7) 1. 0 1.16 
O2 O2- 4 e 0.8802(9) 0.2831(14) 0.3532(7) 1. 0 1.16 
O3 O2- 4 e 0.6197(10) 0.3043(14) 0.0720(8) 1. 0 1.16 
O4 O2- 4 e 0.0163(9) 0.2610(13) 0.1295(7) 1. 0 1.16 
O5 O2- 4 e 0.2507(14) 0.1873(15) 0.9953(9) 1. 0 1.16 

#End of data_23198-ICSD


