data_9877-ICSD
#?2014 by Fachinformationszentrum Karlsruhe, and the U.S. Secretary of 
#Commerce on behalf of the United States.  All rights reserved.
_database_code_ICSD                9877
_audit_creation_date               1986/10/03
_audit_update_record               2006/04/01
_chemical_name_systematic
;
Disodium Hexafluorozirconate - Gamma
;
_chemical_formula_structural       'Na2 (Zr F6)'
_chemical_formula_sum              'F6 Na2 Zr1'
_publ_section_title
;
The cyrstal structure of gamma-Na2 Zr F6
;
loop_
_citation_id
_citation_journal_abbrev
_citation_year
_citation_journal_volume
_citation_page_first
_citation_page_last
_citation_journal_id_ASTM
primary 'Acta Crystallographica B (24,1968-38,1982)' 1969 25 2164 2166 ACBCAR
2 'Golden Book of Phase Transitions, Wroclaw' 2002 1 1 123 GBOPT5
_publ_author_name                  'Brunton, G.'
_cell_length_a                     5.5562(7)
_cell_length_b                     5.4069(6)
_cell_length_c                     16.073(2)
_cell_angle_alpha                  90.
_cell_angle_beta                   95.886(6)
_cell_angle_gamma                  90.
_cell_volume                       480.32
_cell_formula_units_Z              4
_symmetry_space_group_name_H-M     'P 1 21/c 1'
_symmetry_Int_Tables_number        14
_refine_ls_R_factor_all            .0536
loop_
_symmetry_equiv_pos_site_id
_symmetry_equiv_pos_as_xyz
  1	'x, -y+.5, z+.5'
  2	'-x, -y, -z'
  3	'-x, y+.5, -z+.5'
  4	'x, y, z'
loop_
_atom_type_symbol
_atom_type_oxidation_number
F1-	-1
Na1+	1
Zr4+	4
loop_
_atom_site_label
_atom_site_type_symbol
_atom_site_symmetry_multiplicity
_atom_site_Wyckoff_symbol
_atom_site_fract_x
_atom_site_fract_y
_atom_site_fract_z
_atom_site_occupancy
_atom_site_attached_hydrogens
Na1 Na1+ 4 e 0.3267(8) 0.499(2) 0.4077(3) 1. 0 
Na2 Na1+ 4 e 0.2467(9) 0.962(2) 0.2477(4) 1. 0 
Zr1 Zr4+ 4 e 0.1761(2) 0.4480(3) 0.09890(5) 1. 0 
F1 F1- 4 e 0.020(2) 0.709(2) 0.3358(5) 1. 0 
F2 F1- 4 e 0.055(2) 0.176(2) 0.3503(5) 1. 0 
F3 F1- 4 e 0.346(2) 0.224(2) 0.0242(5) 1. 0 
F4 F1- 4 e 0.598(2) 0.229(2) 0.3648(4) 1. 0 
F5 F1- 4 e 0.430(2) 0.286(2) 0.1835(4) 1. 0 
F6 F1- 4 e 0.871(2) 0.328(2) 0.0116(4) 1. 0 

#End of data_9877-ICSD


