data_37033-ICSD
#?2014 by Fachinformationszentrum Karlsruhe, and the U.S. Secretary of 
#Commerce on behalf of the United States.  All rights reserved.
_database_code_ICSD                37033
_audit_creation_date               1982/12/31
_audit_update_record               2010/08/01
_chemical_name_systematic
;
Barium Aluminium Pentafluoride - Alpha
;
_chemical_formula_structural       'Ba Al F5'
_chemical_formula_sum              'Al1 Ba1 F5'
_publ_section_title                'Zur Kenntnis von Ba Al F5'
loop_
_citation_id
_citation_journal_abbrev
_citation_year
_citation_journal_volume
_citation_page_first
_citation_page_last
_citation_journal_id_ASTM
primary 'Zeitschrift fuer Anorganische und Allgemeine Chemie (1950) (DE)'
 1982 495 16 26 ZAACAB
_publ_author_name                  'Domesle, R.;Hoppe, R.'
_cell_length_a                     13.71
_cell_length_b                     5.6
_cell_length_c                     4.93
_cell_angle_alpha                  90.
_cell_angle_beta                   90.
_cell_angle_gamma                  90.
_cell_volume                       378.51
_cell_formula_units_Z              4
_symmetry_space_group_name_H-M     'P 21 21 21'
_symmetry_Int_Tables_number        19
_refine_ls_R_factor_all            .0478
loop_
_symmetry_equiv_pos_site_id
_symmetry_equiv_pos_as_xyz
  1	'-x, y+.5, -z+.5'
  2	'x+.5, -y+.5, -z'
  3	'-x+.5, -y, z+.5'
  4	'x, y, z'
loop_
_atom_type_symbol
_atom_type_oxidation_number
Al3+	3
Ba2+	2
F1-	-1
loop_
_atom_site_label
_atom_site_type_symbol
_atom_site_symmetry_multiplicity
_atom_site_Wyckoff_symbol
_atom_site_fract_x
_atom_site_fract_y
_atom_site_fract_z
_atom_site_occupancy
_atom_site_attached_hydrogens
Ba1 Ba2+ 4 a -.0938 0.0888(1) 0.0199(1) 1. 0 
Al1 Al3+ 4 a -.1650(2) 0.5971(5) 0.4367(5) 1. 0 
F1 F1- 4 a -.2773(4) 0.1482(10) 0.8147(12) 1. 0 
F2 F1- 4 a -.4195(4) 0.2154(10) 0.1170(12) 1. 0 
F3 F1- 4 a -.1055(4) 0.3354(10) 0.5497(12) 1. 0 
F4 F1- 4 a -.0796(4) 0.5991(11) 0.1570(11) 1. 0 
F5 F1- 4 a -.2490(4) 0.4122(10) 0.2251(11) 1. 0 

loop_
_atom_site_aniso_label
_atom_site_aniso_type_symbol
_atom_site_aniso_U_11
_atom_site_aniso_U_22
_atom_site_aniso_U_33
_atom_site_aniso_U_12
_atom_site_aniso_U_13
_atom_site_aniso_U_23
Ba1 Ba2+ 0.0100(2) 0.0082(2) 0.0114(2) -.0002(2) 0.0000(2) 0.0002(2)
Al1 Al3+ 0.0084(8) 0.0060(9) 0.0111(9) 0.0001(9) 0.0000(7) 0.0003(10)
F1 F1- 0.0171(24) 0.0101(21) 0.0182(24) 0.0061(19) -.0026(21) -.0049(19)
F2 F1- 0.0119(22) 0.0115(23) 0.0194(24) -.0051(19) -.0020(19) 0.0045(21)
F3 F1- 0.0187(24) 0.013(2) 0.0171(23) 0.0018(19) -.0032(21) 0.0031(20)
F4 F1- 0.0178(23) 0.0168(24) 0.0151(21) 0.0004(23) 0.0046(18) 0.0003(23)
F5 F1- 0.0151(21) 0.0103(21) 0.0175(22) -.0007(22) -.0043(18) 0.0008(24)
#End of data_37033-ICSD


