data_248034-ICSD
#?2014 by Fachinformationszentrum Karlsruhe, and the U.S. Secretary of 
#Commerce on behalf of the United States.  All rights reserved.
_database_code_ICSD                248034
_audit_creation_date               2010/08/01
_chemical_name_systematic
;
Dipotassium Indium(III) Tetrathiophosphate(V) 
Hemi(hexathiodiphosphate(IV))
;
_chemical_formula_structural       'K2 In (P S4) (P2 S6)0.5'
_chemical_formula_sum              'In1 K2 P2 S7'
_publ_section_title
;
Structural diversity by mixing chalcogen atoms in the chalcophosphate 
system K/In/P/Q (Q = S, Se)
;
loop_
_citation_id
_citation_journal_abbrev
_citation_year
_citation_journal_volume
_citation_journal_issue
_citation_page_first
_citation_page_last
_citation_journal_id_ASTM
primary 'Inorganic Chemistry' 2010 49 3 1144 1151 INOCAJ
_publ_author_name
;
Rothenberger, A.;Wang Hsienhau;Chung Duck Young;Kanatzidis, M.G.
;
_cell_length_a                     14.114(3)
_cell_length_b                     10.607(4)
_cell_length_c                     8.5820(17)
_cell_angle_alpha                  90.00
_cell_angle_beta                   109.01(3)
_cell_angle_gamma                  90.00
_cell_volume                       1214.72
_cell_formula_units_Z              4
_symmetry_space_group_name_H-M     'C 1 2/m 1'
_symmetry_Int_Tables_number        12
_refine_ls_R_factor_all            .0775
loop_
_symmetry_equiv_pos_site_id
_symmetry_equiv_pos_as_xyz
  1	'-x, y, -z'
  2	'-x, -y, -z'
  3	'x, -y, z'
  4	'x, y, z'
  5	'-x+.5, y+.5, -z'
  6	'-x+.5, -y+.5, -z'
  7	'x+.5, -y+.5, z'
  8	'x+.5, y+.5, z'
loop_
_atom_type_symbol
_atom_type_oxidation_number
In3+	3
K1+	1
P4+	4
P5+	5
S2-	-2
loop_
_atom_site_label
_atom_site_type_symbol
_atom_site_symmetry_multiplicity
_atom_site_Wyckoff_symbol
_atom_site_fract_x
_atom_site_fract_y
_atom_site_fract_z
_atom_site_occupancy
_atom_site_attached_hydrogens
_atom_site_U_iso_or_equiv
K1 K1+ 8 j 0.1696(2) 0.2186(3) 0.1590(4) 1 0 0.0376(7) 
In1 In3+ 4 h 0.0000 0.31120(12) 0.5000 1 0 0.0287(4) 
S1 S2- 8 j 0.1453(2) 0.1572(3) 0.5364(4) 1 0 0.0293(7) 
S2 S2- 4 i 0.0054(3) 0.0000 0.1978(6) 1 0 0.0283(10) 
S3 S2- 8 j -0.0296(3) 0.3395(4) 0.1938(5) 1 0 0.0413(9) 
S4 S2- 4 i 0.1412(3) 0.5000 0.5936(6) 1 0 0.0286(10) 
S5 S2- 4 i 0.2327(3) 0.5000 1.0153(6) 1 0 0.0320(11) 
P1 P4+ 4 i 0.0610(3) 0.0000 0.4419(6) 1 0 0.0302(11) 
P2 P5+ 4 i 0.1109(3) 0.5000 0.8167(6) 1 0 0.0262(10) 

loop_
_atom_site_aniso_label
_atom_site_aniso_type_symbol
_atom_site_aniso_U_11
_atom_site_aniso_U_22
_atom_site_aniso_U_33
_atom_site_aniso_U_12
_atom_site_aniso_U_13
_atom_site_aniso_U_23
K1 K1+ 0.0277(13) 0.0361(17) 0.0483(17) -0.0017(13) 0.0112(12) 0.0010(14)
In1 In3+ 0.0179(6) 0.0259(7) 0.0372(7) 0.000 0.0022(5) 0.000
S1 S2- 0.0165(13) 0.0211(16) 0.0456(18) -0.0039(11) 0.0037(12) -0.0010(14)
S2 S2- 0.0096(18) 0.031(2) 0.039(2) 0.000 0.0004(16) 0.000
S3 S2- 0.0303(17) 0.047(2) 0.043(2) 0.0137(16) 0.0072(14) 0.0034(17)
S4 S2- 0.0158(19) 0.030(2) 0.038(2) 0.000 0.0055(17) 0.000
S5 S2- 0.018(2) 0.037(3) 0.036(2) 0.000 0.0001(17) 0.000
P1 P4+ 0.014(2) 0.030(3) 0.041(3) 0.000 0.0008(18) 0.000
P2 P5+ 0.0132(19) 0.025(2) 0.036(3) 0.000 0.0029(17) 0.000
#End of data_248034-ICSD


