data_186772-ICSD
#?2014 by Fachinformationszentrum Karlsruhe, and the U.S. Secretary of 
#Commerce on behalf of the United States.  All rights reserved.
_database_code_ICSD                186772
_audit_creation_date               2013/08/01
_chemical_name_systematic          'Calcium Carbonate'
_chemical_formula_structural       'Ca (C O3)'
_chemical_formula_sum              'C1 Ca1 O3'
_chemical_name_mineral             Calcite
_publ_section_title
;
Ca C O3 - III and Ca C O3 - VI, high-pressure polymorphs of calcite: 
Possible host structures for carbon in the Earth's mantle
;
loop_
_citation_id
_citation_journal_abbrev
_citation_year
_citation_journal_volume
_citation_page_first
_citation_page_last
_citation_journal_id_ASTM
primary 'Earth and Planetary Science Letters' 2012 333 265 271 EPSLA2
_publ_author_name
;
Merlini, M.;Hanfland, M.;Crichton, W.A.
;
_cell_length_a                     6.144(3)
_cell_length_b                     6.3715(14)
_cell_length_c                     6.3759(15)
_cell_angle_alpha                  93.84(2)
_cell_angle_beta                   107.34(3)
_cell_angle_gamma                  107.16(3)
_cell_volume                       224.34
_cell_formula_units_Z              4
_symmetry_space_group_name_H-M     'P -1'
_symmetry_Int_Tables_number        2
_refine_ls_R_factor_all            .0785
loop_
_symmetry_equiv_pos_site_id
_symmetry_equiv_pos_as_xyz
  1	'-x, -y, -z'
  2	'x, y, z'
loop_
_atom_type_symbol
_atom_type_oxidation_number
C4+	4
Ca2+	2
O2-	-2
loop_
_atom_site_label
_atom_site_type_symbol
_atom_site_symmetry_multiplicity
_atom_site_Wyckoff_symbol
_atom_site_fract_x
_atom_site_fract_y
_atom_site_fract_z
_atom_site_occupancy
_atom_site_attached_hydrogens
_atom_site_U_iso_or_equiv
Ca1 Ca2+ 2 i 0.058(2) 0.7853(9) 0.6969(9) 1. 0 0.0128(9) 
Ca2 Ca2+ 2 i -0.451(2) 0.3399(9) 0.7672(9) 1. 0 0.0140(9) 
O1 O2- 2 i 0.406(6) 0.638(2) 0.851(2) 1. 0 0.009(2) 
O2 O2- 2 i 0.107(7) 0.163(3) 0.702(3) 1. 0 0.016(3) 
O3 O2- 2 i 0.106(7) 0.616(3) 0.361(3) 1. 0 0.026(3) 
O4 O2- 2 i 0.532(6) 0.040(3) 0.263(3) 1. 0 0.017(3) 
O5 O2- 2 i 0.372(6) 0.281(3) 0.368(3) 1. 0 0.010(2) 
O6 O2- 2 i 0.001(7) 0.280(3) 0.968(3) 1. 0 0.025(3) 
C1 C4+ 2 i 0.484(10) 0.212(4) 0.264(3) 1. 0 0.011(3) 
C2 C4+ 2 i 0.047(10) 0.752(5) 0.235(4) 1. 0 0.020(4) 

#End of data_186772-ICSD


