data_65664-ICSD
#?2014 by Fachinformationszentrum Karlsruhe, and the U.S. Secretary of 
#Commerce on behalf of the United States.  All rights reserved.
_database_code_ICSD                65664
_audit_creation_date               1990/06/08
_chemical_name_systematic
;
Octasodium Tecto-hexaalumohexagermanate Chloride
;
_chemical_formula_structural       'Na8 (Al6 Ge6 O24) Cl2'
_chemical_formula_sum              'Al6 Cl2 Ge6 Na8 O24'
_publ_section_title
;
Structures of sodium alumino-germanate sodalites (Na8 (Al6 Ge6 O24) 
A2, A= Cl, Br, I)
;
loop_
_citation_id
_citation_journal_abbrev
_citation_year
_citation_journal_volume
_citation_page_first
_citation_page_last
_citation_journal_id_ASTM
primary 'Acta Crystallographica, Section C: Crystal Structure Communications'
 1989 45 843 847 ACSCEE
_publ_author_name                  'Fleet, M.E.'
_cell_length_a                     9.0438(7)
_cell_length_b                     9.0438(7)
_cell_length_c                     9.0438(7)
_cell_angle_alpha                  90.
_cell_angle_beta                   90.
_cell_angle_gamma                  90.
_cell_volume                       739.7
_cell_formula_units_Z              1
_symmetry_space_group_name_H-M     'P -4 3 n'
_symmetry_Int_Tables_number        218
_refine_ls_R_factor_all            .013
loop_
_symmetry_equiv_pos_site_id
_symmetry_equiv_pos_as_xyz
  1	'-z+.5, y+.5, -x+.5'
  2	'-y+.5, x+.5, -z+.5'
  3	'-x+.5, z+.5, -y+.5'
  4	'z+.5, -y+.5, -x+.5'
  5	'y+.5, -x+.5, -z+.5'
  6	'x+.5, -z+.5, -y+.5'
  7	'-z+.5, -y+.5, x+.5'
  8	'-y+.5, -x+.5, z+.5'
  9	'-x+.5, -z+.5, y+.5'
 10	'z+.5, y+.5, x+.5'
 11	'y+.5, x+.5, z+.5'
 12	'x+.5, z+.5, y+.5'
 13	'-z, -x, y'
 14	'-y, -z, x'
 15	'-x, -y, z'
 16	'z, -x, -y'
 17	'y, -z, -x'
 18	'x, -y, -z'
 19	'-z, x, -y'
 20	'-y, z, -x'
 21	'-x, y, -z'
 22	'z, x, y'
 23	'y, z, x'
 24	'x, y, z'
loop_
_atom_type_symbol
_atom_type_oxidation_number
Al3+	3
Cl1-	-1
Ge4+	4
Na1+	1
O2-	-2
loop_
_atom_site_label
_atom_site_type_symbol
_atom_site_symmetry_multiplicity
_atom_site_Wyckoff_symbol
_atom_site_fract_x
_atom_site_fract_y
_atom_site_fract_z
_atom_site_occupancy
_atom_site_attached_hydrogens
Na1 Na1+ 8 e 0.1729(3) 0.1729(3) 0.1729(3) 1. 0 
Cl1 Cl1- 2 a 0 0 0 1. 0 
Al1 Al3+ 6 d 0.25 0 0.5 1. 0 
Ge1 Ge4+ 6 c 0.25 0.5 0 1. 0 
O1 O2- 24 i 0.1424(3) 0.1426(3) 0.4278(3) 1. 0 

loop_
_atom_site_aniso_label
_atom_site_aniso_type_symbol
_atom_site_aniso_B_11
_atom_site_aniso_B_22
_atom_site_aniso_B_33
_atom_site_aniso_B_12
_atom_site_aniso_B_13
_atom_site_aniso_B_23
Na1 Na1+ 1.33(14) 1.33(14) 1.33(14) 0.15(12) 0.15(12) 0.15(12)
Cl1 Cl1- 1.64(18) 1.64(18) 1.64(18) 0 0 0
Al1 Al3+ 0.738(25) 0.738(25) 0.738(25) 0 0 0
Ge1 Ge4+ 0.534(14) 0.534(14) 0.534(14) 0 0 0
O1 O2- 1.11(12) 1.25(13) 0.878(72) 0.704(81) 0.266(87) 0.260(88)
#End of data_65664-ICSD


