data_246368-ICSD
#?2014 by Fachinformationszentrum Karlsruhe, and the U.S. Secretary of 
#Commerce on behalf of the United States.  All rights reserved.
_database_code_ICSD                246368
_audit_creation_date               2009/08/01
_chemical_name_systematic          'Dirubidium Calcium Divanadate(VI)'
_chemical_formula_structural       'Rb2 Ca (V2 O7)'
_chemical_formula_sum              'Ca1 O7 Rb2 V2'
_publ_section_title
;
Synthesis, crystal structure and luminescent properties of 
pyrovanadates A2 Ca V2 O7 (A = Rb, Cs)
;
loop_
_citation_id
_citation_journal_abbrev
_citation_year
_citation_journal_volume
_citation_journal_issue
_citation_page_first
_citation_page_last
_citation_journal_id_ASTM
primary 'Solid State Sciences' 2009 11 3 726 732 SSSCFJ
_publ_author_name
;
Zubkov, V.G.;Tyutyunnik, A.P.;Tarakina, N.V.;Berger, I.F.;Surat, 
L.L.;Slobodin, B.V.;Svensson, G.;Forslund, B.;Shulgin, 
B.V.;Pustovarov, V.A.;Ishchenko, A.V.;Cherepanov, A.N.
;
_cell_length_a                     13.8780(1)
_cell_length_b                     5.96394(5)
_cell_length_c                     10.3376(1)
_cell_angle_alpha                  90
_cell_angle_beta                   104.960(1)
_cell_angle_gamma                  90
_cell_volume                       826.62
_cell_formula_units_Z              4
_symmetry_space_group_name_H-M     'P 1 21/n 1'
_symmetry_Int_Tables_number        14
_refine_ls_R_factor_all            .0347
loop_
_symmetry_equiv_pos_site_id
_symmetry_equiv_pos_as_xyz
  1	'-x+.5, y+.5, -z+.5'
  2	'-x, -y, -z'
  3	'x+.5, -y+.5, z+.5'
  4	'x, y, z'
loop_
_atom_type_symbol
_atom_type_oxidation_number
Ca2+	2
O2-	-2
Rb1+	1
V5+	5
loop_
_atom_site_label
_atom_site_type_symbol
_atom_site_symmetry_multiplicity
_atom_site_Wyckoff_symbol
_atom_site_fract_x
_atom_site_fract_y
_atom_site_fract_z
_atom_site_occupancy
_atom_site_attached_hydrogens
_atom_site_U_iso_or_equiv
Ca1 Ca2+ 4 e 0.0203(2) 0.2357(9) 0.2529(3) 1. 0 0.0185(8) 
Rb1 Rb1+ 4 e 0.3249(1) 0.2717(5) 0.3560(2) 1. 0 0.0233(6) 
Rb2 Rb1+ 4 e 0.8592(1) 0.7252(5) 0.3665(2) 1. 0 0.0413(7) 
V1 V5+ 4 e 0.1228(2) 0.2739(8) -0.0481(3) 1. 0 0.027(1) 
V2 V5+ 4 e 0.3625(2) 0.2625(8) 0.0241(3) 1. 0 0.0230(8) 
O1 O2- 4 e 0.0373(4) 0.077(1) 0.8647(7) 1. 0 0.006(2) 
O2 O2- 4 e 0.0979(5) 0.520(1) 0.8841(8) 1. 0 0.009(2) 
O3 O2- 4 e 0.1273(5) 0.280(2) 0.1131(7) 1. 0 0.029(2) 
O4 O2- 4 e 0.2430(5) 0.179(1) -0.0799(6) 1. 0 0.019(2) 
O5 O2- 4 e 0.3594(5) 0.508(1) 0.1069(8) 1. 0 0.008(2) 
O6 O2- 4 e 0.4319(5) 0.304(1) -0.0828(6) 1. 0 0.022(2) 
O7 O2- 4 e 0.3993(5) 0.054(1) 0.1314(8) 1. 0 0.013(2) 

#End of data_246368-ICSD


