data_60626-ICSD
#?2014 by Fachinformationszentrum Karlsruhe, and the U.S. Secretary of 
#Commerce on behalf of the United States.  All rights reserved.
_database_code_ICSD                60626
_audit_creation_date               1986/12/03
_audit_update_record               1999/01/19
_chemical_name_systematic
;
Magnesium Ammonium Phosphate(V) Hexahydrate
;
_chemical_formula_structural       'Mg (N H4) (P O4) (H2 O)6'
_chemical_formula_sum              'H16 Mg1 N1 O10 P1'
_chemical_name_mineral             Struvite
_publ_section_title
;
Neutron diffraction study of Mg N H4 P O4 (H2 O)6 (struvite) and 
survey of water molecules donating short hydrogen bonds
;
loop_
_citation_id
_citation_journal_abbrev
_citation_year
_citation_journal_volume
_citation_page_first
_citation_page_last
_citation_journal_id_ASTM
primary 'Acta Crystallographica, Section B: Structural Science'
 1986 42 253 258 ASBSDK
_publ_author_name                  'Ferraris, G.;Fuess, H.;Joswig, W.'
_cell_length_a                     6.955(1)
_cell_length_b                     6.142(1)
_cell_length_c                     11.218(2)
_cell_angle_alpha                  90.
_cell_angle_beta                   90.
_cell_angle_gamma                  90.
_cell_volume                       479.21
_cell_formula_units_Z              2
_symmetry_space_group_name_H-M     'P m n 21'
_symmetry_Int_Tables_number        31
_refine_ls_R_factor_all            .032
loop_
_symmetry_equiv_pos_site_id
_symmetry_equiv_pos_as_xyz
  1	'x+.5, -y, z+.5'
  2	'-x+.5, -y, z+.5'
  3	'-x, y, z'
  4	'x, y, z'
loop_
_atom_type_symbol
_atom_type_oxidation_number
H1+	1
Mg2+	2
N3-	-3
O2-	-2
P5+	5
loop_
_atom_site_label
_atom_site_type_symbol
_atom_site_symmetry_multiplicity
_atom_site_Wyckoff_symbol
_atom_site_fract_x
_atom_site_fract_y
_atom_site_fract_z
_atom_site_occupancy
_atom_site_attached_hydrogens
P1 P5+ 2 a 0 -.0069(6) 0.0019 1. 0 
Mg1 Mg2+ 2 a 0 0.3766(6) 0.3741(3) 1. 0 
O1 O2- 2 a 0 -.0236(6) -.1351(3) 1. 0 
O2 O2- 2 a 0 -.2382(5) 0.0558(3) 1. 0 
O3 O2- 4 b 0.1823(3) 0.1139(4) 0.0436(3) 1. 0 
O4 O2- 2 a 0 0.6829(7) 0.2878(3) 1. 0 
O5 O2- 2 a 0 0.0768(8) 0.4664(4) 1. 0 
O6 O2- 4 b 0.2179(3) 0.2618(5) 0.2643(3) 1. 0 
O7 O2- 4 b 0.2115(4) 0.4852(3) 0.4874(3) 1. 0 
N1 N3- 2 a 0 0.3567(5) 0.7351(3) 1. 0 
H1 H1+ 2 a 0 0.7192(13) 0.2017(5) 1. 0 
H2 H1+ 2 a 0 0.8174(14) 0.3299(6) 1. 0 
H3 H1+ 4 b 0.1157(5) 0.0070(8) 0.4999(4) 1. 0 
H4 H1+ 4 b 0.1989(5) 0.2007(8) 0.1824(4) 1. 0 
H5 H1+ 4 b 0.3169(6) 0.1702(9) 0.3020(4) 1. 0 
H6 H1+ 4 b 0.3200(6) 0.3904(8) 0.5120(4) 1. 0 
H7 H1+ 4 b 0.2511(6) 0.6354(8) 0.5027(4) 1. 0 
H8 H1+ 2 a 0 0.2186(14) 0.7832(6) 1. 0 
H9 H1+ 2 a 0 0.3311(25) 0.6473(7) 1. 0 
H10 H1+ 4 b 0.1148(9) 0.4557(13) 0.7535(7) 1. 0 

loop_
_atom_site_aniso_label
_atom_site_aniso_type_symbol
_atom_site_aniso_U_11
_atom_site_aniso_U_22
_atom_site_aniso_U_33
_atom_site_aniso_U_12
_atom_site_aniso_U_13
_atom_site_aniso_U_23
P1 P5+ 0.0166(11) 0.0130(14) 0.0116(8) 0 0 -.0001(10)
Mg1 Mg2+ 0.0296(11) 0.0211(16) 0.0127(8) 0 0 -.0005(10)
O1 O2- 0.0268(11) 0.0124(13) 0.0213(9) 0 0 0.0024(11)
O2 O2- 0.0180(7) 0.0181(9) 0.0201(7) -.0032(8) -.0010(5) -.0030(7)
O3 O2- 0.0198(10) 0.0156(15) 0.0133(9) 0 0 -.0007(9)
O4 O2- 0.0625(22) 0.0179(19) 0.0206(14) 0 0 0.0060(13)
O5 O2- 0.0192(14) 0.0349(22) 0.0607(19) 0 0 0.0293(18)
O6 O2- 0.0243(9) 0.0309(13) 0.0179(8) 0.0057(11) 0.0011(6) -.0032(9)
O7 O2- 0.0312(12) 0.0206(13) 0.0397(10) 0.0040(11) -.0190(9) -.0111(10)
N1 N3- 0.0398(13) 0.0283(13) 0.0308(10) 0 0 0.0069(9)
H1 H1+ 0.0472(29) 0.0384(41) 0.0398(26) 0 0 0.0036(28)
H2 H1+ 0.1135(79) 0.0833(84) 0.0369(33) 0 0 0.0062(41)
H3 H1+ 0.0586(33) 0.0568(41) 0.0793(35) -.0085(35) -.0076(28) 0.0061(34)
H4 H1+ 0.0426(27) 0.0369(34) 0.0271(21) 0 0 0.0035(23)
H5 H1+ 0.0870(54) 0.0272(38) 0.0395(28) 0 0 -.0048(30)
H6 H1+ 0.0263(15) 0.0277(19) 0.0413(14) 0.0008(16) 0.0008(15) 0.0077(16)
H7 H1+ 0.0343(16) 0.0348(22) 0.0242(14) 0.0015(19) -.0007(12) -.0040(15)
H8 H1+ 0.0333(16) 0.0386(24) 0.0279(12) 0.006(2) 0.0000(13) 0.0000(15)
H9 H1+ 0.0357(18) 0.0253(20) 0.0392(16) 0.0036(18) -.0060(14) -.0040(16)
H10 H1+ 0.0370(19) 0.0269(22) 0.0380(14) -.0035(18) -.0034(14) -.0052(17)
#End of data_60626-ICSD


