data_157211-ICSD
#?2014 by Fachinformationszentrum Karlsruhe, and the U.S. Secretary of 
#Commerce on behalf of the United States.  All rights reserved.
_database_code_ICSD                157211
_audit_creation_date               2008/02/01
_chemical_name_systematic
;
Distrontium Trialuminium Oxide Silcate Disilicate Hydroxide
;
_chemical_formula_structural       'Sr2 Al3 O (Si O4) (Si2 O7) (O H)'
_chemical_formula_sum              'H1 Al3 O13 Si3 Sr2'
_chemical_name_mineral             Zoisite
_publ_section_title
;
Crystal chemistry of synthetic (Ca2 Al3 Si3 O12 O H) - (Sr2 Al3 Si3 
O12 O H) solid-solution series of zoisite and clinozoisite
;
loop_
_citation_id
_citation_journal_abbrev
_citation_year
_citation_journal_volume
_citation_page_first
_citation_page_last
_citation_journal_id_ASTM
primary 'American Mineralogist' 2007 92 1133 1147 AMMIAY
_publ_author_name
;
Doersam, G.;Liebscher, A.;Wunder, B.;Franz, G.;Gottschalk, M.
;
_cell_length_a                     16.3548(1)
_cell_length_b                     5.5985(1)
_cell_length_c                     10.2600(1)
_cell_angle_alpha                  90.
_cell_angle_beta                   90.
_cell_angle_gamma                  90.
_cell_volume                       939.43
_cell_formula_units_Z              4
_symmetry_space_group_name_H-M     'P n m a'
_symmetry_Int_Tables_number        62
_refine_ls_R_factor_all            .043
loop_
_symmetry_equiv_pos_site_id
_symmetry_equiv_pos_as_xyz
  1	'x+.5, y, -z+.5'
  2	'x, -y+.5, z'
  3	'-x+.5, y+.5, z+.5'
  4	'-x, -y, -z'
  5	'-x+.5, -y, z+.5'
  6	'-x, y+.5, -z'
  7	'x+.5, -y+.5, -z+.5'
  8	'x, y, z'
loop_
_atom_type_symbol
_atom_type_oxidation_number
Al3+	3
H1+	1
O2-	-2
Si4+	4
Sr2+	2
loop_
_atom_site_label
_atom_site_type_symbol
_atom_site_symmetry_multiplicity
_atom_site_Wyckoff_symbol
_atom_site_fract_x
_atom_site_fract_y
_atom_site_fract_z
_atom_site_occupancy
_atom_site_attached_hydrogens
Sr1 Sr2+ 4 c 0.3685(1) 0.250 0.4421(2) 1. 0 
Sr2 Sr2+ 4 c 0.4570(1) 0.250 0.1105(2) 1. 0 
Al1 Al3+ 8 d 0.2533(2) 0.9944(6) 0.1912(3) 1. 0 
Al2 Al3+ 4 c 0.1102(3) 0.750 0.2977(5) 1. 0 
Si1 Si4+ 4 c 0.0876(3) 0.250 0.1057(5) 1. 0 
Si2 Si4+ 4 c 0.4124(4) 0.750 0.2823(5) 1. 0 
Si3 Si4+ 4 c 0.1634(3) 0.250 0.4311(5) 1. 0 
O1 O2- 8 d 0.1361(4) 0.0040(9) 0.1496(6) 1. 0 
O2 O2- 8 d 0.1071(4) 0.0193(9) 0.4188(6) 1. 0 
O3 O2- 8 d 0.3631(4) 0.9793(9) 0.2409(6) 1. 0 
O4 O2- 4 c 0.2226(5) 0.750 0.2952(8) 1. 0 
O5 O2- 4 c 0.2304(5) 0.250 0.3132(8) 1. 0 
O6 O2- 4 c 0.2762(5) 0.750 0.0588(8) 1. 0 
O7 O2- 4 c 0.0018(6) 0.250 0.1593(9) 1. 0 
O8 O2- 4 c 0.0056(5) 0.750 0.2839(9) 1. 0 
O9 O2- 4 c 0.4146(5) 0.750 0.4503(9) 1. 0 
O10 O2- 4 c 0.2742(5) 0.250 0.0809(8) 1. 0 
H1 H1+ 4 c 0.26 0.250 0.95 1. 0 

#End of data_157211-ICSD


