data_413090-ICSD
#?2014 by Fachinformationszentrum Karlsruhe, and the U.S. Secretary of 
#Commerce on behalf of the United States.  All rights reserved.
_database_code_ICSD                413090
_audit_creation_date               2004/10/01
_chemical_name_systematic          'Disilver Mercury Bis(selenate(IV))'
_chemical_formula_structural       'Ag2 Hg (Se O3)2'
_chemical_formula_sum              'Ag2 Hg1 O6 Se2'
_publ_section_title
;
Investigations in the systems Ag - Hg - X - O (X = As(V), Se(IV), 
Se(VI)): hydrothermal single crystal growth of Ag3 As O4, Ag Hg(I)2 
As O4, Ag Hg(II) As O4, Ag2 Se O4 and the crystal structure of Ag2 
Hg(II) (Se O3)2
;
loop_
_citation_id
_citation_journal_abbrev
_citation_year
_citation_journal_volume
_citation_page_first
_citation_page_last
_citation_journal_id_ASTM
primary 'Zeitschrift fuer Naturforschung, B: Chemical Sciences'
 2003 58 1091 1096 ZNBSEN
_publ_author_name                  'Weil, M.'
_cell_length_a                     6.8206(11)
_cell_length_b                     11.237(3)
_cell_length_c                     16.876(2)
_cell_angle_alpha                  90.
_cell_angle_beta                   90.
_cell_angle_gamma                  90.
_cell_volume                       1293.43
_cell_formula_units_Z              8
_symmetry_space_group_name_H-M     'P b c a'
_symmetry_Int_Tables_number        61
_refine_ls_R_factor_all            .0193
loop_
_symmetry_equiv_pos_site_id
_symmetry_equiv_pos_as_xyz
  1	'x+.5, y, -z+.5'
  2	'x, -y+.5, z+.5'
  3	'-x+.5, y+.5, z'
  4	'-x, -y, -z'
  5	'-x+.5, -y, z+.5'
  6	'-x, y+.5, -z+.5'
  7	'x+.5, -y+.5, -z'
  8	'x, y, z'
loop_
_atom_type_symbol
_atom_type_oxidation_number
Ag1+	1
Hg2+	2
O2-	-2
Se4+	4
loop_
_atom_site_label
_atom_site_type_symbol
_atom_site_symmetry_multiplicity
_atom_site_Wyckoff_symbol
_atom_site_fract_x
_atom_site_fract_y
_atom_site_fract_z
_atom_site_occupancy
_atom_site_attached_hydrogens
_atom_site_U_iso_or_equiv
Hg1 Hg2+ 8 c 0.13529(3) 0.158439(12) 0.148041(9) 1. 0 0.02078(7) 
Ag1 Ag1+ 8 c 0.11182(5) 0.40723(3) 0.252918(18) 1. 0 0.02565(9) 
Ag2 Ag1+ 8 c 0.35332(5) 0.38367(2) 0.453163(19) 1. 0 0.02478(9) 
Se1 Se4+ 8 c 0.16761(6) 0.13559(3) 0.35537(2) 1. 0 0.01716(9) 
Se2 Se4+ 8 c 0.34093(6) 0.37914(3) 0.06625(2) 1. 0 0.01557(9) 
O1 O2- 8 c 0.1311(4) 0.0676(3) 0.26516(17) 1. 0 0.0259(7) 
O2 O2- 8 c 0.1755(4) 0.2782(2) 0.02971(17) 1. 0 0.0240(6) 
O3 O2- 8 c 0.3061(5) 0.00014(19) 0.07975(16) 1. 0 0.0228(6) 
O4 O2- 8 c 0.3137(5) 0.2536(2) 0.33286(16) 1. 0 0.0235(6) 
O5 O2- 8 c 0.3410(4) 0.0428(2) 0.39312(17) 1. 0 0.0244(6) 
O6 O2- 8 c 0.3513(5) 0.3229(2) 0.16044(17) 1. 0 0.0220(6) 

loop_
_atom_site_aniso_label
_atom_site_aniso_type_symbol
_atom_site_aniso_U_11
_atom_site_aniso_U_22
_atom_site_aniso_U_33
_atom_site_aniso_U_12
_atom_site_aniso_U_13
_atom_site_aniso_U_23
Hg1 Hg2+ 0.02129(13) 0.01807(8) 0.02299(10) -.00246(5) 0.00095(6) 
0.00375(5)
Ag1 Ag1+ 0.0263(2) 0.02222(13) 0.02845(18) 0.00353(11) 0.00593(12) 
0.00005(11)
Ag2 Ag1+ 0.0256(2) 0.02091(14) 0.02779(18) 0.00263(10) 0.00230(13) 
-.00039(12)
Se1 Se4+ 0.0166(3) 0.01717(15) 0.01774(19) 0.00154(13) -.00068(14) 
0.00141(12)
Se2 Se4+ 0.0157(2) 0.01339(14) 0.01764(18) -.00020(12) 0.00165(13) 
0.00042(12)
O1 O2- 0.034(2) 0.0241(13) 0.0197(14) -.0075(10) -.0056(11) 0.0017(11)
O2 O2- 0.0239(18) 0.0207(11) 0.0274(16) -.0066(10) -.0014(12) -.0056(11)
O3 O2- 0.0239(18) 0.0163(10) 0.0282(16) -.0033(10) 0.0008(12) -.0026(10)
O4 O2- 0.0259(19) 0.0206(11) 0.0239(15) -.0041(11) 0.0003(12) 0.0016(10)
O5 O2- 0.0216(18) 0.0240(12) 0.0275(16) 0.0047(10) -.0057(12) 0.0074(11)
O6 O2- 0.0251(19) 0.0220(12) 0.0189(14) 0.0008(10) -.0011(11) 0.0041(10)
#End of data_413090-ICSD


