data_16163-ICSD
#?2014 by Fachinformationszentrum Karlsruhe, and the U.S. Secretary of 
#Commerce on behalf of the United States.  All rights reserved.
_database_code_ICSD                16163
_audit_creation_date               1980/01/01
_audit_update_record               2012/08/01
_chemical_name_systematic          'Lithium Ytterbium Bis(tungstate)'
_chemical_formula_structural       'Li Yb (W O4)2'
_chemical_formula_sum              'Li1 O8 W2 Yb1'
_publ_section_title
;
Variation on a single wolframite motif in the structures of Li Yb (W 
O4)2, Li Fe (W O4)2, and Na Fe (W O4)2
;
loop_
_citation_id
_citation_journal_abbrev
_citation_year
_citation_journal_volume
_citation_page_first
_citation_page_last
_citation_journal_id_ASTM
primary Kristallografiya 1970 15 43 46 KRISAJ
2 'Soviet Physics, Crystallography (= Kristallografiya)'
 1970 15 32 35 SPHCA6
3 'Phase Transition' 1992 38 127 220 PHTRDP
_publ_author_name                  'Klevtsova, R.F.;Belov, N.V.'
_cell_length_a                     9.89
_cell_length_b                     5.77
_cell_length_c                     4.98
_cell_angle_alpha                  90.
_cell_angle_beta                   93.5
_cell_angle_gamma                  90.
_cell_volume                       283.66
_cell_formula_units_Z              2
_symmetry_space_group_name_H-M     'P 1 2/n 1'
_symmetry_Int_Tables_number        13
_refine_ls_R_factor_all            .112
loop_
_symmetry_equiv_pos_site_id
_symmetry_equiv_pos_as_xyz
  1	'x+.5, -y, z+.5'
  2	'-x+.5, y, -z+.5'
  3	'-x, -y, -z'
  4	'x, y, z'
loop_
_atom_type_symbol
_atom_type_oxidation_number
Li1+	1
O2-	-2
W6+	6
Yb3+	3
loop_
_atom_site_label
_atom_site_type_symbol
_atom_site_symmetry_multiplicity
_atom_site_Wyckoff_symbol
_atom_site_fract_x
_atom_site_fract_y
_atom_site_fract_z
_atom_site_occupancy
_atom_site_attached_hydrogens
_atom_site_B_iso_or_equiv
W1 W6+ 4 g 0.0156(2) 0.1808(4) 0.2503(4) 1. 0 0.21 
Yb1 Yb3+ 2 e 0.25 0.6972(2) 0.25 1. 0 0.578 
Li1 Li1+ 2 f 0.25 0.315(13) 0.75 1. 0 1. 
O1 O2- 4 g 0.164(4) 0.629(8) 0.896(9) 1. 0 0.6 
O2 O2- 4 g 0.138(5) 0.374(9) 0.403(9) 1. 0 1.18 
O3 O2- 4 g 0.115(5) 0.090(8) 0.971(9) 1. 0 0.85 
O4 O2- 4 g 0.101(6) 0.896(9) 0.448(9) 1. 0 1.33 

#End of data_16163-ICSD


