data_67111-ICSD
#?2014 by Fachinformationszentrum Karlsruhe, and the U.S. Secretary of 
#Commerce on behalf of the United States.  All rights reserved.
_database_code_ICSD                67111
_audit_creation_date               1990/12/27
_chemical_name_systematic          'Zinc Dithulium Tetrasulfide'
_chemical_formula_structural       'Zn Tm2 S4'
_chemical_formula_sum              'S4 Tm2 Zn1'
_publ_section_title
;
Structure du sulfure de thulium et de zinc ZnTm2S4
;
loop_
_citation_id
_citation_journal_abbrev
_citation_year
_citation_journal_volume
_citation_page_first
_citation_page_last
_citation_journal_id_ASTM
primary 'Acta Crystallographica, Section C: Crystal Structure Communications'
 1990 46 365 368 ACSCEE
_publ_author_name
;
Lemoine, P.;Tomas, A.;Vovan, T.;Guittard, M.
;
_cell_length_a                     13.308(5)
_cell_length_b                     7.769(3)
_cell_length_c                     6.285(2)
_cell_angle_alpha                  90.
_cell_angle_beta                   90.
_cell_angle_gamma                  90.
_cell_volume                       649.81
_cell_formula_units_Z              4
_symmetry_space_group_name_H-M     'P n m a'
_symmetry_Int_Tables_number        62
_refine_ls_R_factor_all            .0393
loop_
_symmetry_equiv_pos_site_id
_symmetry_equiv_pos_as_xyz
  1	'x+.5, y, -z+.5'
  2	'x, -y+.5, z'
  3	'-x+.5, y+.5, z+.5'
  4	'-x, -y, -z'
  5	'-x+.5, -y, z+.5'
  6	'-x, y+.5, -z'
  7	'x+.5, -y+.5, -z+.5'
  8	'x, y, z'
loop_
_atom_type_symbol
_atom_type_oxidation_number
S2-	-2
Tm3+	3
Zn2+	2
loop_
_atom_site_label
_atom_site_type_symbol
_atom_site_symmetry_multiplicity
_atom_site_Wyckoff_symbol
_atom_site_fract_x
_atom_site_fract_y
_atom_site_fract_z
_atom_site_occupancy
_atom_site_attached_hydrogens
Tm1 Tm3+ 4 a 0 0 0 1. 0 
Tm2 Tm3+ 4 c 0.26649(8) 0.25 0.0056(3) 1. 0 
Zn1 Zn2+ 4 c 0.0926(3) 0.25 0.5859(6) 1. 0 
S1 S2- 4 c 0.0900(5) 0.25 0.221(1) 1. 0 
S2 S2- 4 c 0.4297(5) 0.25 0.755(1) 1. 0 
S3 S2- 8 d 0.3318(4) 0.9871(8) 0.2579(9) 1. 0 

loop_
_atom_site_aniso_label
_atom_site_aniso_type_symbol
_atom_site_aniso_U_11
_atom_site_aniso_U_22
_atom_site_aniso_U_33
_atom_site_aniso_U_12
_atom_site_aniso_U_13
_atom_site_aniso_U_23
Tm1 Tm3+ 0.0117(4) 0.0062(4) 0.0095(5) -.0014(3) 0.000(1) 0.0003(9)
Tm2 Tm3+ 0.0092(4) 0.0073(4) 0.0075(5) 0 -.0016(9) 0
Zn1 Zn2+ 0.0157(16) 0.0136(16) 0.0086(15) 0 0.0009(14) 0
S1 S2- 0.0102(27) 0.0023(31) 0.0116(30) 0 -.0014(27) 0
S2 S2- 0.0139(27) 0.0071(32) 0.0081(38) 0 0.0036(31) 0
S3 S2- 0.0117(18) 0.0122(26) 0.0088(27) -.0008(16) -.0019(22) 0.0054(18)
#End of data_67111-ICSD


