data_82873-ICSD
#?2014 by Fachinformationszentrum Karlsruhe, and the U.S. Secretary of 
#Commerce on behalf of the United States.  All rights reserved.
_database_code_ICSD                82873
_audit_creation_date               1998/06/26
_audit_update_record               1999/11/30
_chemical_name_systematic          'Dipotassium Dizinc Sulfate(VI)'
_chemical_formula_structural       'K2 Zn2 (S O4)3'
_chemical_formula_sum              'K2 O12 S3 Zn2'
_chemical_name_mineral             'Langbeinite (Zn)'
_publ_section_title
;
Structural study of phase transition mechanism of langbeinite-type K2 
Zn2 (S O4)3 crystals
;
loop_
_citation_id
_citation_journal_abbrev
_citation_year
_citation_journal_volume
_citation_journal_issue
_citation_page_first
_citation_page_last
_citation_journal_id_ASTM
primary 'Journal of the Physical Society of Japan' 1996 65 11 3537 3543 JUPSAU
_publ_author_name                  'Moriyoshi, C.;Itoh, K.'
_cell_length_a                     9.905(1)
_cell_length_b                     9.905(1)
_cell_length_c                     9.905(1)
_cell_angle_alpha                  90.
_cell_angle_beta                   90.
_cell_angle_gamma                  90.
_cell_volume                       971.77
_cell_formula_units_Z              4
_symmetry_space_group_name_H-M     'P 21 3'
_symmetry_Int_Tables_number        198
_refine_ls_R_factor_all            .028
loop_
_symmetry_equiv_pos_site_id
_symmetry_equiv_pos_as_xyz
  1	'-z+.5, -x, y+.5'
  2	'-y+.5, -z, x+.5'
  3	'-x+.5, -y, z+.5'
  4	'-z, x+.5, -y+.5'
  5	'-y, z+.5, -x+.5'
  6	'-x, y+.5, -z+.5'
  7	'z+.5, -x+.5, -y'
  8	'y+.5, -z+.5, -x'
  9	'x+.5, -y+.5, -z'
 10	'z, x, y'
 11	'y, z, x'
 12	'x, y, z'
loop_
_atom_type_symbol
_atom_type_oxidation_number
K1+	1
O2-	-2
S6+	6
Zn2+	2
loop_
_atom_site_label
_atom_site_type_symbol
_atom_site_symmetry_multiplicity
_atom_site_Wyckoff_symbol
_atom_site_fract_x
_atom_site_fract_y
_atom_site_fract_z
_atom_site_occupancy
_atom_site_attached_hydrogens
Zn1 Zn2+ 4 a 0.33481(9) 0.33481(9) 0.33481(9) 1. 0 
Zn2 Zn2+ 4 a 0.5935(1) 0.5935(1) 0.5935(1) 1. 0 
K1 K1+ 4 a 0.81450(19) 0.81450(19) 0.81450(19) 1. 0 
K2 K1+ 4 a 0.04949(20) 0.04949(20) 0.04949(20) 1. 0 
S1 S6+ 12 b 0.21856(6) 0.37590(6) 0.01790(6) 1. 0 
O1 O2- 12 b 0.30986(25) 0.27435(28) 0.96028(33) 1. 0 
O2 O2- 12 b 0.07838(23) 0.32975(26) 0.00136(29) 1. 0 
O3 O2- 12 b 0.24189(37) 0.50140(33) 0.94258(37) 1. 0 
O4 O2- 12 b 0.24968(32) 0.40510(35) 0.15959(26) 1. 0 

loop_
_atom_site_aniso_label
_atom_site_aniso_type_symbol
_atom_site_aniso_U_11
_atom_site_aniso_U_22
_atom_site_aniso_U_33
_atom_site_aniso_U_12
_atom_site_aniso_U_13
_atom_site_aniso_U_23
Zn1 Zn2+ 0.0082(3) 0.0082(3) 0.0082(3) -.0014(2) -.0014(2) -.0014(2)
Zn2 Zn2+ 0.0086(3) 0.0086(3) 0.0086(3) 0.0000(3) 0.0000(3) 0.0000(3)
K1 K1+ 0.0137(5) 0.0137(5) 0.0137(5) -.0012(5) -.0012(5) -.0012(5)
K2 K1+ 0.0149(5) 0.0149(5) 0.0149(5) 0.0001(6) 0.0001(6) 0.0001(6)
S1 S6+ 0.0054(2) 0.0061(2) 0.0059(2) 0.0011(2) 0.0003(2) 0.0004(2)
O1 O2- 0.0156(9) 0.0227(11) 0.0330(14) 0.0116(9) -.0037(9) -.0162(11)
O2 O2- 0.0078(7) 0.0207(10) 0.0311(12) -.0045(7) 0.0011(8) -.011(1)
O3 O2- 0.0286(13) 0.0236(12) 0.0430(18) 0.0021(11) 0.0044(14) 0.0260(13)
O4 O2- 0.0276(12) 0.0367(15) 0.0124(8) 0.0075(12) -.0105(9) -.0087(10)
#End of data_82873-ICSD


