data_250400-ICSD
#?2014 by Fachinformationszentrum Karlsruhe, and the U.S. Secretary of 
#Commerce on behalf of the United States.  All rights reserved.
_database_code_ICSD                250400
_audit_creation_date               2007/08/01
_chemical_name_systematic
;
Dithallium Dimagnesium Tris(molybdate)
;
_chemical_formula_structural       'Tl2 Mg2 (Mo O4)3'
_chemical_formula_sum              'Mg2 Mo3 O12 Tl2'
_publ_section_title
;
Double molybdate Tl2 Mg2 (Mo O4)3: synthesis, structure and 
properties
;
loop_
_citation_id
_citation_journal_abbrev
_citation_year
_citation_journal_volume
_citation_journal_issue
_citation_page_first
_citation_page_last
_citation_journal_id_ASTM
primary 'Zhurnal Neorganicheskoi Khimii' 2006 51 10 1677 1680 ZNOKAQ
_publ_author_name
;
Bazarov, B.G.;Klevtsova, R.F.;Bazarova, Ts.T.;Arkhincheeva, 
S.I.;Glinskaya, L.A.;Fedorov, K.N.;Bazarova, Zh.G.
;
_cell_length_a                     10.700(1)
_cell_length_b                     10.700(1)
_cell_length_c                     10.700(1)
_cell_angle_alpha                  90.
_cell_angle_beta                   90.
_cell_angle_gamma                  90.
_cell_volume                       1225.04
_cell_formula_units_Z              4
_symmetry_space_group_name_H-M     'P 21 3'
_symmetry_Int_Tables_number        198
_refine_ls_R_factor_all            .0459
loop_
_symmetry_equiv_pos_site_id
_symmetry_equiv_pos_as_xyz
  1	'-z+.5, -x, y+.5'
  2	'-y+.5, -z, x+.5'
  3	'-x+.5, -y, z+.5'
  4	'-z, x+.5, -y+.5'
  5	'-y, z+.5, -x+.5'
  6	'-x, y+.5, -z+.5'
  7	'z+.5, -x+.5, -y'
  8	'y+.5, -z+.5, -x'
  9	'x+.5, -y+.5, -z'
 10	'z, x, y'
 11	'y, z, x'
 12	'x, y, z'
loop_
_atom_type_symbol
_atom_type_oxidation_number
Mg2+	2
Mo6+	6
O2-	-2
Tl1+	1
loop_
_atom_site_label
_atom_site_type_symbol
_atom_site_symmetry_multiplicity
_atom_site_Wyckoff_symbol
_atom_site_fract_x
_atom_site_fract_y
_atom_site_fract_z
_atom_site_occupancy
_atom_site_attached_hydrogens
_atom_site_U_iso_or_equiv
Mo1 Mo6+ 12 b 0.4757(1) 0.7004(1) 0.3764(1) 1 0 0.013(1) 
Mg1 Mg2+ 4 a 0.3863(3) 0.3863(3) 0.3863(3) 1 0 0.012(1) 
Mg2 Mg2+ 4 a 0.6629(3) 0.6629(3) 0.6629(3) 1 0 0.013(1) 
Tl1 Tl1+ 4 a 0.1741(1) 0.1741(1) 0.1741(1) 1 0 0.033(1) 
Tl2 Tl1+ 4 a 0.9513(1) 0.9513(1) 0.9513(1) 1 0 0.070(1) 
O1 O2- 12 b 0.4815(14) 0.5447(10) 0.3291(14) 1 0 0.055(4) 
O2 O2- 12 b 0.5528(13) 0.7908(11) 0.2679(13) 1 0 0.059(4) 
O3 O2- 12 b 0.3226(10) 0.7510(12) 0.3983(14) 1 0 0.049(3) 
O4 O2- 12 b 0.5473(15) 0.7233(15) 0.5189(12) 1 0 0.064(4) 

#End of data_250400-ICSD


