data_25830-ICSD
#?2014 by Fachinformationszentrum Karlsruhe, and the U.S. Secretary of 
#Commerce on behalf of the United States.  All rights reserved.
_database_code_ICSD                25830
_audit_creation_date               1986/08/12
_audit_update_record               2014/02/01
_chemical_name_systematic
;
Pentacalcium Bis(silicate) Carbonate
;
_chemical_formula_structural       'Ca5 (Si O4)2 (C O3)'
_chemical_formula_sum              'C1 Ca5 O11 Si2'
_chemical_name_mineral             Spurrite
_publ_section_title
;
The crystal structure of spurrite, Ca5 (Si O4)2 C O3. II. Description 
of structure
;
loop_
_citation_id
_citation_journal_abbrev
_citation_year
_citation_journal_volume
_citation_page_first
_citation_page_last
_citation_journal_id_ASTM
primary 'Acta Crystallographica (1,1948-23,1967)' 1960 13 454 458 ACCRA9
2 'Acta Crystallographica (1,1948-23,1967)' 1960 13 451 453 ACCRA9
3 'American Crystallographic Association: Program and Abstracts'
 1959 1959 22 22 PABAD5
4 'American Mineralogist' 1977 62 1003 1005 AMMIAY
_publ_author_name
;
Smith, J.V.;Karle, I.L.;Hauptman, H.;Karle, J.
;
_cell_length_a                     10.490(5)
_cell_length_b                     6.705(3)
_cell_length_c                     14.160(7)
_cell_angle_alpha                  90.
_cell_angle_beta                   101.32(8)
_cell_angle_gamma                  90.
_cell_volume                       976.57
_cell_formula_units_Z              4
_symmetry_space_group_name_H-M     'P 1 21/a 1'
_symmetry_Int_Tables_number        14
_refine_ls_R_factor_all            .131
loop_
_symmetry_equiv_pos_site_id
_symmetry_equiv_pos_as_xyz
  1	'x+.5, -y+.5, z'
  2	'-x, -y, -z'
  3	'-x+.5, y+.5, -z'
  4	'x, y, z'
loop_
_atom_type_symbol
_atom_type_oxidation_number
C4+	4
Ca2+	2
O2-	-2
Si4+	4
loop_
_atom_site_label
_atom_site_type_symbol
_atom_site_symmetry_multiplicity
_atom_site_Wyckoff_symbol
_atom_site_fract_x
_atom_site_fract_y
_atom_site_fract_z
_atom_site_occupancy
_atom_site_attached_hydrogens
Ca1 Ca2+ 4 e 0.1400(7) 0.661(1) 0.0720(5) 1. 0 
Ca2 Ca2+ 4 e 0.0330(7) 0.240(1) 0.6120(5) 1. 0 
Ca3 Ca2+ 4 e 0.2390(7) 0.061(1) 0.4550(5) 1. 0 
Ca4 Ca2+ 4 e 0.0440(7) 0.990(1) 0.8300(5) 1. 0 
Ca5 Ca2+ 4 e 0.1330(7) 0.507(1) 0.8260(5) 1. 0 
Si1 Si4+ 4 e 0.135(1) 0.221(1) 0.056(1) 1. 0 
Si2 Si4+ 4 e 0.025(1) 0.750(1) 0.604(1) 1. 0 
O1 O2- 4 e 0.124(2) 0.237(3) 0.938(1) 1. 0 
O2 O2- 4 e 0.141(2) 0.995(3) 0.098(1) 1. 0 
O3 O2- 4 e 0.008(2) 0.334(3) 0.083(1) 1. 0 
O4 O2- 4 e 0.263(2) 0.333(3) 0.106(1) 1. 0 
O5 O2- 4 e 0.883(2) 0.153(3) 0.468(1) 1. 0 
O6 O2- 4 e 0.890(2) 0.427(3) 0.335(1) 1. 0 
O7 O2- 4 e 0.024(2) 0.072(3) 0.330(1) 1. 0 
O8 O2- 4 e 0.098(2) 0.340(3) 0.468(1) 1. 0 
O9 O2- 4 e 0.283(2) 0.696(3) 0.235(1) 1. 0 
O10 O2- 4 e 0.073(2) 0.685(3) 0.230(1) 1. 0 
O11 O2- 4 e 0.211(2) 0.712(3) 0.372(1) 1. 0 
C1 C4+ 4 e 0.185(3) 0.695(4) 0.285(2) 1. 0 

#End of data_25830-ICSD


