data_29335-ICSD
#?2014 by Fachinformationszentrum Karlsruhe, and the U.S. Secretary of 
#Commerce on behalf of the United States.  All rights reserved.
_database_code_ICSD                29335
_audit_creation_date               1980/01/01
_audit_update_record               2005/10/01
_chemical_name_systematic          'Dipotassium Lead Bis(sulfate(VI))'
_chemical_formula_structural       'K2 Pb (S O4)2'
_chemical_formula_sum              'K2 O8 Pb1 S2'
_chemical_name_mineral             Palmierite
_publ_section_title
;
Ricerche sulle relazioni cristallochimiche tra l'aftitalite e la 
palmierite
;
loop_
_citation_id
_citation_journal_abbrev
_citation_year
_citation_journal_volume
_citation_page_first
_citation_page_last
_citation_journal_id_ASTM
primary 'Ricerca Scientifica' 1946 16 1254 1255 RISCAZ
2 'Periodico di Mineralogia' 1946 15 5 25 PEMIA7
_publ_author_name                  'Bellanca, A.'
_cell_length_a                     7.65
_cell_length_b                     7.65
_cell_length_c                     7.65
_cell_angle_alpha                  43.
_cell_angle_beta                   43.
_cell_angle_gamma                  43.
_cell_volume                       188.74
_cell_formula_units_Z              1
_symmetry_space_group_name_H-M     'R -3 m R'
_symmetry_Int_Tables_number        166
loop_
_symmetry_equiv_pos_site_id
_symmetry_equiv_pos_as_xyz
  1	'-z, -y, -x'
  2	'-z, -x, -y'
  3	'-x, -z, -y'
  4	'-y, -z, -x'
  5	'-y, -x, -z'
  6	'-x, -y, -z'
  7	'z, y, x'
  8	'z, x, y'
  9	'x, z, y'
 10	'y, z, x'
 11	'y, x, z'
 12	'x, y, z'
loop_
_atom_type_symbol
_atom_type_oxidation_number
K1+	1
O2-	-2
Pb2+	2
S6+	6
loop_
_atom_site_label
_atom_site_type_symbol
_atom_site_symmetry_multiplicity
_atom_site_Wyckoff_symbol
_atom_site_fract_x
_atom_site_fract_y
_atom_site_fract_z
_atom_site_occupancy
_atom_site_attached_hydrogens
K1 K1+ 2 c 0.187 0.187 0.187 1. 0 
Pb1 Pb2+ 1 b 0.5 0.5 0.5 1. 0 
S1 S6+ 2 c 0.381 0.381 0.381 1. 0 
O1 O2- 2 c 0.321 0.321 0.321 1. 0 
O2 O2- 6 h 0.784 0.784 0.307 1. 0 

#End of data_29335-ICSD


