data_418253-ICSD
#?2014 by Fachinformationszentrum Karlsruhe, and the U.S. Secretary of 
#Commerce on behalf of the United States.  All rights reserved.
_database_code_ICSD                418253
_audit_creation_date               2008/08/01
_chemical_name_systematic
;
Tripotassium Pentabismuth Hexakis(phosphate(V))
;
_chemical_formula_structural       'K3 Bi5 (P O4)6'
_chemical_formula_sum              'Bi5 K3 O24 P6'
_publ_section_title
;
Phase relations in the system (K2 Mo O4) - (K P O3) - (Mo O3) - (Bi2 
O3): a new phosphate K3 Bi5 (P O4)6
;
loop_
_citation_id
_citation_journal_abbrev
_citation_year
_citation_journal_volume
_citation_page_first
_citation_page_last
_citation_journal_id_ASTM
primary 'Journal of Solid State Chemistry' 2007 180 3351 3359 JSSCBI
_publ_author_name
;
Terebilenko, K.V.;Zatovsky, I.V.;Slobodyanik, N.S.;Domasevitch, 
K.V.;Pushkin, D.V.;Baumer, V.N.;Sudavtsova, V.S.
;
_cell_length_a                     17.680(4)
_cell_length_b                     6.9370(14)
_cell_length_c                     18.700(4)
_cell_angle_alpha                  90
_cell_angle_beta                   113.79(3)
_cell_angle_gamma                  90
_cell_volume                       2098.61
_cell_formula_units_Z              4
_symmetry_space_group_name_H-M     'C 1 2/c 1'
_symmetry_Int_Tables_number        15
_refine_ls_R_factor_all            .0551
loop_
_symmetry_equiv_pos_site_id
_symmetry_equiv_pos_as_xyz
  1	'x, -y, z+.5'
  2	'-x, -y, -z'
  3	'-x, y, -z+.5'
  4	'x, y, z'
  5	'x+.5, -y+.5, z+.5'
  6	'-x+.5, -y+.5, -z'
  7	'-x+.5, y+.5, -z+.5'
  8	'x+.5, y+.5, z'
loop_
_atom_type_symbol
_atom_type_oxidation_number
Bi3+	3
K1+	1
O2-	-2
P5+	5
loop_
_atom_site_label
_atom_site_type_symbol
_atom_site_symmetry_multiplicity
_atom_site_Wyckoff_symbol
_atom_site_fract_x
_atom_site_fract_y
_atom_site_fract_z
_atom_site_occupancy
_atom_site_attached_hydrogens
_atom_site_U_iso_or_equiv
Bi1 Bi3+ 8 f 0.13621(4) 0.10275(9) 0.47262(4) 1 0 0.0212(3) 
Bi2 Bi3+ 8 f 0.27559(4) -0.10412(9) 0.70322(4) 1 0 0.0211(3) 
Bi3 Bi3+ 4 e 0.5 -0.35935(17) 0.75 1 0 0.0269(3) 
K1 K1+ 8 f 0.0770(2) -0.3975(4) 0.5682(2) 1 0 0.0128(6) 
K2 K1+ 4 e 0.5 0.189(3) 0.75 1 0 0.106(5) 
O1 O2- 8 f 0.4227(9) -0.1238(18) 0.6813(8) 1 0 0.026(3) 
O2 O2- 8 f 0.2811(9) -0.067(2) 0.5848(8) 1 0 0.027(3) 
O3 O2- 8 f 0.4077(10) 0.1066(18) 0.5757(8) 1 0 0.025(3) 
O4 O2- 8 f 0.3819(11) -0.248(2) 0.5412(9) 1 0 0.039(4) 
O5 O2- 8 f 0.2367(11) 0.339(2) 0.5650(10) 1 0 0.039(4) 
O6 O2- 8 f 0.2853(10) 0.2411(17) 0.7067(7) 1 0 0.028(3) 
O7 O2- 8 f 0.2389(11) 0.571(2) 0.6707(9) 1 0 0.036(3) 
O8 O2- 8 f 0.3692(8) 0.456(2) 0.6565(8) 1 0 0.030(3) 
O9 O2- 8 f 0.1460(9) -0.054(2) 0.6272(9) 1 0 0.030(3) 
O10 O2- 8 f 0.0928(9) 0.214(2) 0.6887(7) 1 0 0.027(3) 
O11 O2- 8 f 0.0553(8) 0.196(2) 0.5422(7) 1 0 0.026(3) 
O12 O2- 8 f 0.0006(8) -0.049(2) 0.6149(7) 1 0 0.025(3) 
P1 P5+ 8 f 0.3711(3) -0.0859(6) 0.5911(3) 1 0 0.0216(9) 
P2 P5+ 8 f 0.2818(3) 0.4044(5) 0.6490(3) 1 0 0.0160(8) 
P3 P5+ 8 f 0.0719(3) 0.0831(6) 0.6162(2) 1 0 0.0157(9) 

loop_
_atom_site_aniso_label
_atom_site_aniso_type_symbol
_atom_site_aniso_U_11
_atom_site_aniso_U_22
_atom_site_aniso_U_33
_atom_site_aniso_U_12
_atom_site_aniso_U_13
_atom_site_aniso_U_23
Bi1 Bi3+ 0.0251(5) 0.0239(4) 0.0168(4) 0.0039(2) 0.0106(3) 0.00293(19)
Bi2 Bi3+ 0.0229(4) 0.0205(4) 0.0202(4) 0.0009(2) 0.0090(3) 0.00080(19)
Bi3 Bi3+ 0.0196(5) 0.0390(6) 0.0226(5) 0 0.0091(4) 0
O1 O2- 0.032(8) 0.020(6) 0.023(6) 0.008(5) 0.007(6) 0.009(4)
O2 O2- 0.033(8) 0.029(6) 0.021(6) 0.007(5) 0.011(5) -0.001(5)
O3 O2- 0.032(8) 0.022(6) 0.021(6) 0.007(5) 0.009(6) 0.010(4)
O4 O2- 0.057(10) 0.033(8) 0.033(7) 0.022(7) 0.025(7) 0.009(6)
O5 O2- 0.045(10) 0.042(8) 0.043(9) -0.018(7) 0.033(8) -0.012(7)
O6 O2- 0.056(9) 0.005(5) 0.030(7) -0.001(5) 0.025(6) 0.001(4)
O7 O2- 0.050(10) 0.029(7) 0.035(8) -0.012(7) 0.023(7) -0.015(6)
O8 O2- 0.021(7) 0.051(8) 0.025(6) -0.018(6) 0.017(5) -0.017(6)
O9 O2- 0.024(7) 0.024(6) 0.046(8) 0.005(5) 0.019(6) -0.001(6)
O10 O2- 0.032(8) 0.035(7) 0.014(5) -0.011(6) 0.008(5) -0.009(5)
O11 O2- 0.011(6) 0.047(8) 0.020(6) -0.003(5) 0.006(5) 0.002(5)
O12 O2- 0.023(7) 0.037(7) 0.014(5) -0.008(5) 0.005(5) -0.001(5)
P1 P5+ 0.028(3) 0.0193(19) 0.019(2) 0.0023(16) 0.0114(18) 0.0023(14)
P2 P5+ 0.020(2) 0.0135(18) 0.0150(17) -0.0008(13) 0.0075(15) -0.0016(12)
P3 P5+ 0.017(2) 0.0151(17) 0.0140(19) -0.0002(13) 0.0056(16) -0.0006(12)
#End of data_418253-ICSD


