data_180367-ICSD
#?2014 by Fachinformationszentrum Karlsruhe, and the U.S. Secretary of 
#Commerce on behalf of the United States.  All rights reserved.
_database_code_ICSD                180367
_audit_creation_date               2011/08/01
_chemical_name_systematic          'Dilithium Ruthenate(IV)'
_chemical_formula_structural       'Li2 (Ru O3)'
_chemical_formula_sum              'Li2 O3 Ru1'
_publ_section_title
;
Synthesis and photocatalytic properties of Ag (Li1/3 Ru2/3) O2: a new 
delafossite oxide
;
loop_
_citation_id
_citation_journal_abbrev
_citation_year
_citation_journal_volume
_citation_page_first
_citation_page_last
_citation_journal_id_ASTM
primary
;
Materials Science and Engineering B: Solid-state Materials for 
Advanced Technology
;
 2011 176 141 146 MSBTEK
_publ_author_name
;
Ramesha, K.;Prakash, A.S.;Sathiya, M.;Madras, G.;Shukla, A.K.
;
_cell_length_a                     4.914(1)
_cell_length_b                     8.763(2)
_cell_length_c                     9.859(2)
_cell_angle_alpha                  90.
_cell_angle_beta                   100.08(1)
_cell_angle_gamma                  90.
_cell_volume                       417.99
_cell_formula_units_Z              8
_symmetry_space_group_name_H-M     'C 1 2/c 1'
_symmetry_Int_Tables_number        15
_refine_ls_R_factor_all            .0895
loop_
_symmetry_equiv_pos_site_id
_symmetry_equiv_pos_as_xyz
  1	'x, -y, z+.5'
  2	'-x, -y, -z'
  3	'-x, y, -z+.5'
  4	'x, y, z'
  5	'x+.5, -y+.5, z+.5'
  6	'-x+.5, -y+.5, -z'
  7	'-x+.5, y+.5, -z+.5'
  8	'x+.5, y+.5, z'
loop_
_atom_type_symbol
_atom_type_oxidation_number
Li1+	1
O2-	-2
Ru4+	4
loop_
_atom_site_label
_atom_site_type_symbol
_atom_site_symmetry_multiplicity
_atom_site_Wyckoff_symbol
_atom_site_fract_x
_atom_site_fract_y
_atom_site_fract_z
_atom_site_occupancy
_atom_site_attached_hydrogens
_atom_site_B_iso_or_equiv
Ru1 Ru4+ 8 f 0.2471(2) 0.0828(1) 0.0029(1) 1. 0 0.85(2) 
Li1 Li1+ 4 d 0.250 0.250 0.5 1. 0 0.45(4) 
Li2 Li1+ 4 e 0 0.0837(1) 0.250 1. 0 0.31(3) 
Li3 Li1+ 4 e 0 0.4154(2) 0.250 1. 0 0.28(1) 
Li4 Li1+ 4 e 0 0.750 0.250 1. 0 0.43(2) 
O1 O2- 8 f 0.1231(1) 0.2496(2) 0.1174(1) 1. 0 1.02(2) 
O2 O2- 8 f 0.1231(1) 0.5852(2) 0.1174(1) 1. 0 1.24(3) 
O3 O2- 8 f 0.1231(1) 0.9173(2) 0.1174(1) 1. 0 0.84(1) 

#End of data_180367-ICSD


