data_82844-ICSD
#?2014 by Fachinformationszentrum Karlsruhe, and the U.S. Secretary of 
#Commerce on behalf of the United States.  All rights reserved.
_database_code_ICSD                82844
_audit_creation_date               1998/06/26
_chemical_name_systematic          'Potassium Oxotitanium Phosphate(V)'
_chemical_formula_structural       'K (Ti O) (P O4)'
_chemical_formula_sum              'K1 O5 P1 Ti1'
_publ_section_title
;
The structural pressure dependence of potassium titanyl phosphate 
(KTP) to 8 GPa
;
loop_
_citation_id
_citation_journal_abbrev
_citation_year
_citation_journal_volume
_citation_page_first
_citation_page_last
_citation_journal_id_ASTM
primary 'Journal of Physics: Condensed Matter' 1996 8 2337 2363 JCOMEL
_publ_author_name                  'Allan, D.R.;Nelmes, R.J.'
_cell_length_a                     12.490(6)
_cell_length_b                     6.324(2)
_cell_length_c                     10.069(3)
_cell_angle_alpha                  90.
_cell_angle_beta                   90.
_cell_angle_gamma                  90.
_cell_volume                       795.32
_cell_formula_units_Z              8
_symmetry_space_group_name_H-M     'P n a 21'
_symmetry_Int_Tables_number        33
_refine_ls_R_factor_all            .077
loop_
_symmetry_equiv_pos_site_id
_symmetry_equiv_pos_as_xyz
  1	'x+.5, -y+.5, z'
  2	'-x+.5, y+.5, z+.5'
  3	'-x, -y, z+.5'
  4	'x, y, z'
loop_
_atom_type_symbol
_atom_type_oxidation_number
K1+	1
O2-	-2
P5+	5
Ti4+	4
loop_
_atom_site_label
_atom_site_type_symbol
_atom_site_symmetry_multiplicity
_atom_site_Wyckoff_symbol
_atom_site_fract_x
_atom_site_fract_y
_atom_site_fract_z
_atom_site_occupancy
_atom_site_attached_hydrogens
K1 K1+ 4 a 0.3964(3) 0.7779(4) 0.6309(5) 1. 0 
K2 K1+ 4 a 0.1138(3) 0.7013(3) 0.8671(4) 1. 0 
Ti1 Ti4+ 4 a 0.3712(2) 0.4886(3) -.0004 1. 0 
Ti2 Ti4+ 4 a 0.2799(2) 0.2567(2) 0.7231(3) 1. 0 
P1 P5+ 4 a 0.5285(3) 0.3217(3) 0.7603(4) 1. 0 
P2 P5+ 4 a 0.1796(3) 0.4811(4) 0.4771(3) 1. 0 
O1 O2- 4 a 0.5158(8) 0.4186(9) 0.8981(8) 1. 0 
O2 O2- 4 a 0.5409(8) 0.5045(11) 0.6597(8) 1. 0 
O3 O2- 4 a 0.4328(8) 0.1849(10) 0.7130(9) 1. 0 
O4 O2- 4 a 0.6280(8) 0.1840(9) 0.7565(8) 1. 0 
O5 O2- 4 a 0.1883(8) 0.9720(9) 0.3247(8) 1. 0 
O6 O2- 4 a 0.2492(9) 0.0376(8) 0.5782(7) 1. 0 
O7 O2- 4 a 0.0986(8) 0.2967(9) 0.4687(8) 1. 0 
O8 O2- 4 a 0.1225(8) 0.6753(10) 0.5272(9) 1. 0 
O9 O2- 4 a 0.2302(8) 0.5125(8) 0.3354(7) 1. 0 
O10 O2- 4 a 0.2766(9) 0.4348(9) 0.5649(8) 1. 0 

#End of data_82844-ICSD


