data_40217-ICSD
#?2014 by Fachinformationszentrum Karlsruhe, and the U.S. Secretary of 
#Commerce on behalf of the United States.  All rights reserved.
_database_code_ICSD                40217
_audit_creation_date               1999/11/30
_chemical_name_systematic          'Rubidium Trisodium Stannate'
_chemical_formula_structural       'Rb Na3 (Sn O4)'
_chemical_formula_sum              'Na3 O4 Rb1 Sn1'
_publ_section_title
;
Das erste quaternaere Oxostannat mit "Inselstruktur": Rb Na3 (Sn O4)
;
loop_
_citation_id
_citation_journal_abbrev
_citation_year
_citation_journal_volume
_citation_page_first
_citation_page_last
_citation_journal_id_ASTM
primary 'Zeitschrift fuer Anorganische und Allgemeine Chemie (1950) (DE)'
 1989 571 101 112 ZAACAB
_publ_author_name                  'Bernet, K.;Hoppe, R.'
_cell_length_a                     12.7957
_cell_length_b                     12.7957
_cell_length_c                     15.1085
_cell_angle_alpha                  90.
_cell_angle_beta                   90.
_cell_angle_gamma                  90.
_cell_volume                       2473.71
_cell_formula_units_Z              16
_symmetry_space_group_name_H-M     'I 41/a Z'
_symmetry_Int_Tables_number        88
_refine_ls_R_factor_all            .057
loop_
_symmetry_equiv_pos_site_id
_symmetry_equiv_pos_as_xyz
  1	'-y+.75, x+.75, -z+.75'
  2	'y+.25, -x+.75, -z+.75'
  3	'x, y+.5, -z'
  4	'-x, -y, -z'
  5	'y+.25, -x+.25, z+.25'
  6	'-y+.75, x+.25, z+.25'
  7	'-x, -y+.5, z'
  8	'x, y, z'
  9	'-y+.25, x+.25, -z+.25'
 10	'y+.75, -x+.25, -z+.25'
 11	'x+.5, y, -z+.5'
 12	'-x+.5, -y+.5, -z+.5'
 13	'y+.75, -x+.75, z+.75'
 14	'-y+.25, x+.75, z+.75'
 15	'-x+.5, -y, z+.5'
 16	'x+.5, y+.5, z+.5'
loop_
_atom_type_symbol
_atom_type_oxidation_number
Na1+	1
O2-	-2
Rb1+	1
Sn4+	4
loop_
_atom_site_label
_atom_site_type_symbol
_atom_site_symmetry_multiplicity
_atom_site_Wyckoff_symbol
_atom_site_fract_x
_atom_site_fract_y
_atom_site_fract_z
_atom_site_occupancy
_atom_site_attached_hydrogens
Sn1 Sn4+ 16 f 0.0372 0.9268 0.1953 1. 0 
Rb1 Rb1+ 16 f 0.2370(1) 0.5189(1) 0.1673(1) 1. 0 
Na1 Na1+ 16 f 0.8405(2) 0.7802(2) 0.3141(2) 1. 0 
Na2 Na1+ 16 f 0.1574(2) 0.2279(2) 0.1935(2) 1. 0 
Na3 Na1+ 16 f 0.4965(2) 0.1140(2) 0.1784(2) 1. 0 
O1 O2- 16 f 0.9473(3) 0.9239(3) 0.2999(3) 1. 0 
O2 O2- 16 f 0.9614(3) 0.9000(3) 0.0849(3) 1. 0 
O3 O2- 16 f 0.1631(3) 0.8411(3) 0.2017(3) 1. 0 
O4 O2- 16 f 0.0792(3) 0.0742(3) 0.1847(3) 1. 0 

loop_
_atom_site_aniso_label
_atom_site_aniso_type_symbol
_atom_site_aniso_U_11
_atom_site_aniso_U_22
_atom_site_aniso_U_33
_atom_site_aniso_U_12
_atom_site_aniso_U_13
_atom_site_aniso_U_23
Sn1 Sn4+ 0.0083(2) 0.0084(2) 0.0073(2) 0.0005(1) 0.0002(1) 0.0003(1)
Rb1 Rb1+ 0.0181(3) 0.0282(3) 0.0313(4) 0.0015(2) -.0038(3) -.0153(3)
Na1 Na1+ 0.0180(12) 0.0152(12) 0.0149(12) -.0006(9) 0.0010(9) 0.0011(9)
Na2 Na1+ 0.0207(13) 0.0164(12) 0.0137(11) -.0064(10) 0.0034(10) 0.0001(9)
Na3 Na1+ 0.0188(12) 0.0208(13) 0.0132(11) 0.0061(10) -.0014(9) -.0007(10)
O1 O2- 0.0146(20) 0.0167(20) 0.0137(20) -.0039(16) 0.0030(16) -.0007(16)
O2 O2- 0.0196(21) 0.0161(20) 0.0106(19) -.0049(16) -.0044(16) 0.0005(16)
O3 O2- 0.0149(20) 0.0168(20) 0.0149(21) 0.0045(16) -.0012(16) 0.0012(17)
O4 O2- 0.0206(21) 0.0101(19) 0.0111(20) -.0057(15) 0.0016(16) 0.0011(15)
#End of data_40217-ICSD


