data_1412-ICSD
#?2014 by Fachinformationszentrum Karlsruhe, and the U.S. Secretary of 
#Commerce on behalf of the United States.  All rights reserved.
_database_code_ICSD                1412
_audit_creation_date               1980/01/01
_audit_update_record               1999/11/30
_chemical_name_systematic          'Dipotassium Dilead Oxide'
_chemical_formula_structural       'K2 Pb2 O3'
_chemical_formula_sum              'K2 O3 Pb2'
_publ_section_title                'Zur Kenntnis von K2 Pb2 O3'
loop_
_citation_id
_citation_journal_abbrev
_citation_year
_citation_journal_volume
_citation_page_first
_citation_page_last
_citation_journal_id_ASTM
primary 'Zeitschrift fuer Anorganische und Allgemeine Chemie (1950) (DE)'
 1977 437 116 122 ZAACAB
_publ_author_name                  'Martens, K.P.;Hoppe, R.'
_cell_length_a                     8.419
_cell_length_b                     8.419
_cell_length_c                     8.419
_cell_angle_alpha                  90.
_cell_angle_beta                   90.
_cell_angle_gamma                  90.
_cell_volume                       596.74
_cell_formula_units_Z              4
_symmetry_space_group_name_H-M     'I 21 3'
_symmetry_Int_Tables_number        199
_refine_ls_R_factor_all            .0599
loop_
_symmetry_equiv_pos_site_id
_symmetry_equiv_pos_as_xyz
  1	'-z+.5, -x, y+.5'
  2	'-y+.5, -z, x+.5'
  3	'-x+.5, -y, z+.5'
  4	'-z, x+.5, -y+.5'
  5	'-y, z+.5, -x+.5'
  6	'-x, y+.5, -z+.5'
  7	'z+.5, -x+.5, -y'
  8	'y+.5, -z+.5, -x'
  9	'x+.5, -y+.5, -z'
 10	'z, x, y'
 11	'y, z, x'
 12	'x, y, z'
 13	'-z, -x+.5, y'
 14	'-y, -z+.5, x'
 15	'-x, -y+.5, z'
 16	'-z+.5, x, -y'
 17	'-y+.5, z, -x'
 18	'-x+.5, y, -z'
 19	'z, -x, -y+.5'
 20	'y, -z, -x+.5'
 21	'x, -y, -z+.5'
 22	'z+.5, x+.5, y+.5'
 23	'y+.5, z+.5, x+.5'
 24	'x+.5, y+.5, z+.5'
loop_
_atom_type_symbol
_atom_type_oxidation_number
K1+	1
O2-	-2
Pb2+	2
loop_
_atom_site_label
_atom_site_type_symbol
_atom_site_symmetry_multiplicity
_atom_site_Wyckoff_symbol
_atom_site_fract_x
_atom_site_fract_y
_atom_site_fract_z
_atom_site_occupancy
_atom_site_attached_hydrogens
_atom_site_B_iso_or_equiv
K1 K1+ 8 a 0.5232 0.5232 0.5232 1. 0 0 
Pb1 Pb2+ 8 a 0.2562 0.2562 0.2562 1. 0 0 
O1 O2- 12 b 0.2887 0 0.25 1. 0 1.7 

loop_
_atom_site_aniso_label
_atom_site_aniso_type_symbol
_atom_site_aniso_B_11
_atom_site_aniso_B_22
_atom_site_aniso_B_33
_atom_site_aniso_B_12
_atom_site_aniso_B_13
_atom_site_aniso_B_23
K1 K1+ 0.87(2) 0.87(2) 0.87(2) 0.18(3) 0.18(3) 0.18(3)
Pb1 Pb2+ 0.56(3) 0.56(3) 0.56(3) 0.06(3) 0.06(3) 0.06(3)
#End of data_1412-ICSD


