data_1308-ICSD
#?2014 by Fachinformationszentrum Karlsruhe, and the U.S. Secretary of 
#Commerce on behalf of the United States.  All rights reserved.
_database_code_ICSD                1308
_audit_creation_date               1980/01/01
_audit_update_record               2012/08/01
_chemical_name_systematic
;
Trisodium Octaoxodihydroxopentaborate Hydrate
;
_chemical_formula_structural       'Na3 (B5 O8 (O H)2) (H2 O)'
_chemical_formula_sum              'H4 B5 Na3 O11'
_publ_section_title
;
The crystal structure of synthetic sodium pentaborate monohydrate
;
loop_
_citation_id
_citation_journal_abbrev
_citation_year
_citation_journal_volume
_citation_page_first
_citation_page_last
_citation_journal_id_ASTM
primary 'Acta Crystallographica B (24,1968-38,1982)' 1977 33 3730 3733 ACBCAR
_publ_author_name                  'Menchetti, S.;Sabelli, C.'
_cell_length_a                     8.804(3)
_cell_length_b                     18.371(5)
_cell_length_c                     10.924(3)
_cell_angle_alpha                  90.
_cell_angle_beta                   90.
_cell_angle_gamma                  90.
_cell_volume                       1766.83
_cell_formula_units_Z              8
_symmetry_space_group_name_H-M     'P b c a'
_symmetry_Int_Tables_number        61
_refine_ls_R_factor_all            .073
loop_
_symmetry_equiv_pos_site_id
_symmetry_equiv_pos_as_xyz
  1	'x+.5, y, -z+.5'
  2	'x, -y+.5, z+.5'
  3	'-x+.5, y+.5, z'
  4	'-x, -y, -z'
  5	'-x+.5, -y, z+.5'
  6	'-x, y+.5, -z+.5'
  7	'x+.5, -y+.5, -z'
  8	'x, y, z'
loop_
_atom_type_symbol
_atom_type_oxidation_number
B3+	3
H1+	1
Na1+	1
O2-	-2
loop_
_atom_site_label
_atom_site_type_symbol
_atom_site_symmetry_multiplicity
_atom_site_Wyckoff_symbol
_atom_site_fract_x
_atom_site_fract_y
_atom_site_fract_z
_atom_site_occupancy
_atom_site_attached_hydrogens
_atom_site_B_iso_or_equiv
Na1 Na1+ 8 c 0.4317(4) 0.5669(2) 0.3967(3) 1. 0 0 
Na2 Na1+ 8 c 0.4171(4) 0.7409(2) 0.4260(3) 1. 0 0 
Na3 Na1+ 8 c 0.1194(4) 0.4590(2) 0.4002(4) 1. 0 0 
O1 O2- 8 c 0.2622(6) 0.6534(3) 0.1740(5) 1. 0 0 
O2 O2- 8 c 0.0129(6) 0.6731(3) 0.2537(6) 1. 0 0 
O3 O2- 8 c 0.2126(6) 0.7633(3) 0.2935(5) 1. 0 0 
O4 O2- 8 c 0.2246(6) 0.6468(3) 0.3924(5) 1. 0 0 
O5 O2- 8 c -.0385(6) 0.6447(3) 0.4651(5) 1. 0 0 
O6 O2- 8 c 0.1558(6) 0.6971(3) 0.5889(6) 1. 0 0 
O7 O2- 8 c 0.1430(6) 0.5651(3) 0.5541(5) 1. 0 0 
O8 O2- 8 c 0.2669(7) 0.6169(2) 0.7362(5) 1. 0 0 
O9 O2- 8 c 0.1963(7) 0.4943(2) 0.7359(5) 1. 0 0 
O10 O2- 8 c 0.3992(6) 0.5303(3) 0.6096(6) 1. 0 0 
O11 O2- 8 c 0.5811(7) 0.6509(4) 0.5229(5) 1. 0 0 
B1 B3+ 8 c 0.1783(13) 0.6846(6) 0.2849(10) 1. 0 0 
B2 B3+ 8 c -.0848(14) 0.6586(6) 0.3467(11) 1. 0 0 
B3 B3+ 8 c 0.1254(12) 0.6370(6) 0.4979(10) 1. 0 0 
B4 B3+ 8 c 0.2125(13) 0.6839(6) 0.7015(11) 1. 0 0 
B5 B3+ 8 c 0.2492(7) 0.5544(7) 0.6548(7) 1. 0 0 
H1 H1+ 8 c 0.21 0.45 0.72 1. 0 2. 
H2 H1+ 8 c 0.48 0.56 0.67 1. 0 2. 
H3 H1+ 8 c 0.64 0.65 0.46 1. 0 2. 
H4 H1+ 8 c 0.62 0.68 0.58 1. 0 2. 

#End of data_1308-ICSD


