data_424575-ICSD
#?2014 by Fachinformationszentrum Karlsruhe, and the U.S. Secretary of 
#Commerce on behalf of the United States.  All rights reserved.
_database_code_ICSD                424575
_audit_creation_date               2012/08/01
_chemical_name_systematic          'Calcium Carbonate'
_chemical_formula_structural       'Ca (C O3)'
_chemical_formula_sum              'C1 Ca1 O3'
_chemical_name_mineral             Vaterite
_publ_section_title
;
Ab initio structure determination of vaterite by automated electron 
diffraction
;
loop_
_citation_id
_citation_journal_abbrev
_citation_year
_citation_journal_volume
_citation_journal_issue
_citation_page_first
_citation_page_last
_citation_journal_id_ASTM
primary 'Angewandte Chemie. International Edition' 2012 51 28 7041 7045 ACIEF5
_publ_author_name
;
Mugnaioli, E.;Andrusenko, I.;Schueler, T.;Loges, N.;Dinnebier, 
R.E.;Panthoefer, M.;Tremel, W.;Kolb, U.
;
_cell_length_a                     12.170
_cell_length_b                     7.120
_cell_length_c                     9.470
_cell_angle_alpha                  90.00
_cell_angle_beta                   118.37
_cell_angle_gamma                  90.00
_cell_volume                       722.03
_cell_formula_units_Z              12
_symmetry_space_group_name_H-M     'C 1 2/c 1'
_symmetry_Int_Tables_number        15
_refine_ls_R_factor_all            .3761
loop_
_symmetry_equiv_pos_site_id
_symmetry_equiv_pos_as_xyz
  1	'x, -y, z+.5'
  2	'-x, -y, -z'
  3	'-x, y, -z+.5'
  4	'x, y, z'
  5	'x+.5, -y+.5, z+.5'
  6	'-x+.5, -y+.5, -z'
  7	'-x+.5, y+.5, -z+.5'
  8	'x+.5, y+.5, z'
loop_
_atom_type_symbol
_atom_type_oxidation_number
C4+	4
Ca2+	2
O2-	-2
loop_
_atom_site_label
_atom_site_type_symbol
_atom_site_symmetry_multiplicity
_atom_site_Wyckoff_symbol
_atom_site_fract_x
_atom_site_fract_y
_atom_site_fract_z
_atom_site_occupancy
_atom_site_attached_hydrogens
_atom_site_U_iso_or_equiv
Ca1 Ca2+ 4 c 0.2500 0.2500 0.0000 1 0 0.051(5) 
Ca2 Ca2+ 8 f 0.0793(9) 0.2631(13) 0.5033(10) 1 0 0.036(4) 
C1 C4+ 8 f 0.1837(19) 0.392(3) 0.262(2) 1 0 0.048(8) 
C2 C4+ 4 e 0.0000 0.947(4) 0.2500 1 0 0.046(10) 
O1 O2- 8 f 0.092(2) 0.434(5) 0.132(3) 1 0 0.094(11) 
O2 O2- 8 f 0.200(3) 0.443(5) 0.399(3) 1 0 0.101(12) 
O3 O2- 8 f 0.057(4) 0.859(4) 0.3831(12) 1 0 0.101(12) 
O4 O2- 8 f 0.274(2) 0.292(4) 0.265(3) 1 0 0.069(9) 
O5 O2- 4 e 0.0000 0.129(4) 0.2500 1 0 0.071(12) 

#End of data_424575-ICSD


