data_290251-ICSD
#?2014 by Fachinformationszentrum Karlsruhe, and the U.S. Secretary of 
#Commerce on behalf of the United States.  All rights reserved.
_database_code_ICSD                290251
_audit_creation_date               2013/08/01
_chemical_name_systematic          'Dilithium Hexafluorovanadate'
_chemical_formula_structural       'Li2 V F6'
_chemical_formula_sum              'F6 Li2 V1'
_publ_section_title
;
Preparation and crystal structure of a new lithium vanadium fluoride 
Li2 V F6 with trirutile-type structure
;
loop_
_citation_id
_citation_journal_abbrev
_citation_year
_citation_journal_volume
_citation_journal_issue
_citation_page_first
_citation_page_last
_citation_journal_id_ASTM
primary 'Zeitschrift fuer Naturforschung, B: Chemical Sciences'
 2013 68 2 121 126 ZNBSEN
_publ_author_name
;
Nakhal, Suliman;Weber, Dominik;Lerch, Martin
;
_cell_length_a                     4.5991(2)
_cell_length_b                     4.5976(3)
_cell_length_c                     10.0743(4)
_cell_angle_alpha                  90
_cell_angle_beta                   117.16(4)
_cell_angle_gamma                  90
_cell_volume                       189.53
_cell_formula_units_Z              2
_symmetry_space_group_name_H-M     'P 1 21/c 1'
_symmetry_Int_Tables_number        14
_refine_ls_R_factor_all            .0453
loop_
_symmetry_equiv_pos_site_id
_symmetry_equiv_pos_as_xyz
  1	'x, -y+.5, z+.5'
  2	'-x, -y, -z'
  3	'-x, y+.5, -z+.5'
  4	'x, y, z'
loop_
_atom_type_symbol
_atom_type_oxidation_number
F1-	-1
Li1+	1
V4+	4
loop_
_atom_site_label
_atom_site_type_symbol
_atom_site_symmetry_multiplicity
_atom_site_Wyckoff_symbol
_atom_site_fract_x
_atom_site_fract_y
_atom_site_fract_z
_atom_site_occupancy
_atom_site_attached_hydrogens
_atom_site_B_iso_or_equiv
V1 V4+ 2 a 0 0 0 1. 0 0.66(9) 
Li1 Li1+ 4 e 0.340 -0.028 0.336 1. 0 0.85 
F1 F1- 4 e 0.2878(5) 0.2787(4) -0.0011(2) 1. 0 0.8(2) 
F2 F1- 4 e -0.0153(6) 0.1998(2) 0.0011(2) 1. 0 1.3(2) 
F3 F1- 4 e 0.3304(3) 0.765(6) 0.1521(4) 1. 0 1.9(2) 

#End of data_290251-ICSD


