data_109006-ICSD
#?2014 by Fachinformationszentrum Karlsruhe, and the U.S. Secretary of 
#Commerce on behalf of the United States.  All rights reserved.
_database_code_ICSD                109006
_audit_creation_date               2007/04/01
_chemical_name_systematic          'Sodium Tecto-alumotrisilicate'
_chemical_formula_structural       'Na (Al Si3 O8)'
_chemical_formula_sum              'Al1 Na1 O8 Si3'
_chemical_name_mineral             'Albite low'
_publ_section_title
;
Anisotropy of the sodium atom in low albite
;
loop_
_citation_id
_citation_journal_abbrev
_citation_year
_citation_journal_volume
_citation_page_first
_citation_page_last
_citation_journal_id_ASTM
primary 'Acta Crystallographica B (24,1968-38,1982)' 1969 25 1503 1518 ACBCAR
_publ_author_name
;
Ribbe, P.H.;Megaw, H.D.;Taylor, W.H.;Ferguson, R.B.;Traill, R.J.
;
_cell_length_a                     8.142
_cell_length_b                     12.780
_cell_length_c                     7.158
_cell_angle_alpha                  94.17
_cell_angle_beta                   116.58
_cell_angle_gamma                  87.87
_cell_volume                       664.33
_cell_formula_units_Z              4
_symmetry_space_group_name_H-M     'C -1'
_symmetry_Int_Tables_number        2
_refine_ls_R_factor_all            .074
loop_
_symmetry_equiv_pos_site_id
_symmetry_equiv_pos_as_xyz
  1	'-x, -y, -z'
  2	'x, y, z'
  3	'-x+.5, -y+.5, -z'
  4	'x+.5, y+.5, z'
loop_
_atom_type_symbol
_atom_type_oxidation_number
Al3+	3
Na1+	1
O2-	-2
Si4+	4
loop_
_atom_site_label
_atom_site_type_symbol
_atom_site_symmetry_multiplicity
_atom_site_Wyckoff_symbol
_atom_site_fract_x
_atom_site_fract_y
_atom_site_fract_z
_atom_site_occupancy
_atom_site_attached_hydrogens
_atom_site_B_iso_or_equiv
Na1 Na1+ 4 i 0.2687 0.9869 0.1484 1. 0 3.2(1) 
Al1 Al3+ 4 i 0.0088(2) 0.1692(1) 0.2081(2) 1. 0 0 
Si1 Si4+ 4 i 0.0041(2) 0.8202(1) 0.2375(2) 1. 0 0 
Si2 Si4+ 4 i 0.6919(2) 0.1102(1) 0.3148(2) 1. 0 0 
Si3 Si4+ 4 i 0.6813(2) 0.8820(1) 0.3604(2) 1. 0 0 
O1 O2- 4 i 0.0055(5) 0.1308(3) 0.9664(6) 1. 0 0 
O2 O2- 4 i 0.5929(3) 0.9974(3) 0.2808(6) 1. 0 0 
O3 O2- 4 i 0.8124(5) 0.1101(3) 0.1905(6) 1. 0 0 
O4 O2- 4 i 0.8200(5) 0.8512(3) 0.2587(6) 1. 0 0 
O5 O2- 4 i 0.0132(5) 0.3035(3) 0.2690(6) 1. 0 0 
O6 O2- 4 i 0.0239(5) 0.6935(3) 0.2291(6) 1. 0 0 
O7 O2- 4 i 0.2075(5) 0.1091(3) 0.3890(6) 1. 0 0 
O8 O2- 4 i 0.1840(5) 0.8681(3) 0.4348(6) 1. 0 0 

#End of data_109006-ICSD


