data_421804-ICSD
#?2014 by Fachinformationszentrum Karlsruhe, and the U.S. Secretary of 
#Commerce on behalf of the United States.  All rights reserved.
_database_code_ICSD                421804
_audit_creation_date               2011/02/01
_chemical_name_systematic
;
Potassium Lanthanum Bis(sulfate(VI)) Hydrate
;
_chemical_formula_structural       'K La (S O4)2 (H2 O)'
_chemical_formula_sum              'H2 K1 La1 O9 S2'
_publ_section_title
;
Syntheses, crystal structures and vibrational spectra of K Ln (S 
O4)2.H2 O (Ln = La, Nd, Sm, Eu, Gd, Dy)
;
loop_
_citation_id
_citation_journal_abbrev
_citation_year
_citation_journal_volume
_citation_journal_issue
_citation_page_first
_citation_page_last
_citation_journal_id_ASTM
primary 'Journal of Solid State Chemistry' 2010 183 9 2087 2094 JSSCBI
_publ_author_name                  'Kazmiercak, K.;Hoeppe, H.A.'
_cell_length_a                     7.1490(5)
_cell_length_b                     7.1490(5)
_cell_length_c                     13.2439(12)
_cell_angle_alpha                  90.00
_cell_angle_beta                   90.00
_cell_angle_gamma                  120.00
_cell_volume                       586.19
_cell_formula_units_Z              3
_symmetry_space_group_name_H-M     'P 32 2 1'
_symmetry_Int_Tables_number        154
_refine_ls_R_factor_all            .0164
loop_
_symmetry_equiv_pos_site_id
_symmetry_equiv_pos_as_xyz
  1	'-x, -x+y, -z+.6667'
  2	'x-y, -y, -z+.3333'
  3	'y, x, -z'
  4	'-x+y, -x, z+.3333'
  5	'-y, x-y, z+.6667'
  6	'x, y, z'
loop_
_atom_type_symbol
_atom_type_oxidation_number
H1+	1
K1+	1
La3+	3
O2-	-2
S6+	6
loop_
_atom_site_label
_atom_site_type_symbol
_atom_site_symmetry_multiplicity
_atom_site_Wyckoff_symbol
_atom_site_fract_x
_atom_site_fract_y
_atom_site_fract_z
_atom_site_occupancy
_atom_site_attached_hydrogens
_atom_site_U_iso_or_equiv
La1 La3+ 3 a 0.56517(4) 0.56517(4) 0.0000 1 0 0.02011(12) 
K1 K1+ 3 b 0.0000 0.44528(17) 0.8333 1 0 0.0268(2) 
S1 S6+ 6 c 0.00479(15) 0.44137(15) 0.09185(5) 1 0 0.02083(19) 
O1 O2- 6 c 0.8788(4) 0.2497(4) 0.15586(19) 1 0 0.0293(6) 
O2 O2- 6 c 0.1154(5) 0.6224(5) 0.16322(17) 1 0 0.0299(6) 
O3 O2- 6 c 0.8646(5) 0.4778(5) 0.0240(2) 1 0 0.0305(7) 
O4 O2- 6 c 0.1609(5) 0.4144(5) 0.0306(2) 1 0 0.0303(7) 
O5 O2- 3 a 0.9199(8) 0.9199(8) 0.0000 1 0 0.066(2) 
H1 H1+ 6 c 0.936(11) 0.016(9) 0.044(4) 1 0 0.050 

loop_
_atom_site_aniso_label
_atom_site_aniso_type_symbol
_atom_site_aniso_U_11
_atom_site_aniso_U_22
_atom_site_aniso_U_33
_atom_site_aniso_U_12
_atom_site_aniso_U_13
_atom_site_aniso_U_23
La1 La3+ 0.02157(15) 0.02157(15) 0.01854(16) 0.01179(17) 0.00002(7) 
-0.00002(7)
K1 K1+ 0.0215(6) 0.0309(5) 0.0251(5) 0.0107(3) 0.0007(5) 0.0004(3)
S1 S6+ 0.0197(5) 0.0225(4) 0.0197(4) 0.0102(4) 0.0002(4) 0.0002(3)
O1 O2- 0.0290(15) 0.0223(13) 0.0275(12) 0.0061(12) 0.0037(11) 0.0036(11)
O2 O2- 0.0327(16) 0.0251(14) 0.0250(14) 0.0094(12) -0.0012(14) -0.0017(10)
O3 O2- 0.0288(17) 0.042(2) 0.0262(12) 0.0220(18) -0.0013(12) 0.0017(12)
O4 O2- 0.0303(14) 0.0398(16) 0.0284(14) 0.0233(12) 0.0059(12) 0.0025(12)
O5 O2- 0.032(2) 0.032(2) 0.118(6) 0.005(3) 0.0140(19) -0.0140(19)
#End of data_421804-ICSD


