data_74955-ICSD
#?2014 by Fachinformationszentrum Karlsruhe, and the U.S. Secretary of 
#Commerce on behalf of the United States.  All rights reserved.
_database_code_ICSD                74955
_audit_creation_date               1995/10/17
_chemical_name_systematic          'Cesium Tetrapotassium Thallate'
_chemical_formula_structural       'Cs K4 (Tl O4)'
_chemical_formula_sum              'Cs1 K4 O4 Tl1'
_publ_section_title
;
Das erste Oxothallat(III) vom Formeltyp AA'4(MO4): CsK4(TlO4)
;
loop_
_citation_id
_citation_journal_abbrev
_citation_year
_citation_journal_volume
_citation_page_first
_citation_page_last
_citation_journal_id_ASTM
primary 'Zeitschrift fuer Anorganische und Allgemeine Chemie (1950) (DE)'
 1994 620 777 780 ZAACAB
_publ_author_name                  'Lulei, M.;Hoppe, R.'
_cell_length_a                     11.921(2)
_cell_length_b                     6.857(1)
_cell_length_c                     21.435(3)
_cell_angle_alpha                  90.
_cell_angle_beta                   90.
_cell_angle_gamma                  90.
_cell_volume                       1752.15
_cell_formula_units_Z              8
_symmetry_space_group_name_H-M     'P b c a'
_symmetry_Int_Tables_number        61
_refine_ls_R_factor_all            .03
loop_
_symmetry_equiv_pos_site_id
_symmetry_equiv_pos_as_xyz
  1	'x+.5, y, -z+.5'
  2	'x, -y+.5, z+.5'
  3	'-x+.5, y+.5, z'
  4	'-x, -y, -z'
  5	'-x+.5, -y, z+.5'
  6	'-x, y+.5, -z+.5'
  7	'x+.5, -y+.5, -z'
  8	'x, y, z'
loop_
_atom_type_symbol
_atom_type_oxidation_number
Cs1+	1
K1+	1
O2-	-2
Tl3+	3
loop_
_atom_site_label
_atom_site_type_symbol
_atom_site_symmetry_multiplicity
_atom_site_Wyckoff_symbol
_atom_site_fract_x
_atom_site_fract_y
_atom_site_fract_z
_atom_site_occupancy
_atom_site_attached_hydrogens
Tl1 Tl3+ 8 c 0.4634 0.1943 0.3727 1. 0 
Cs1 Cs1+ 8 c 0.8423 0.5848(1) 0.4986 1. 0 
K1 K1+ 8 c 0.8004(1) 0.5934(2) 0.1416(1) 1. 0 
K2 K1+ 8 c 0.1723(1) 0.9105(2) 0.1757(1) 1. 0 
K3 K1+ 8 c 0.4394(1) 0.0923(2) 0.0666(1) 1. 0 
K4 K1+ 8 c 0.0821(1) 0.4126(3) 0.2504(1) 1. 0 
O1 O2- 8 c 0.9570(5) 0.8803(7) 0.1232(2) 1. 0 
O2 O2- 8 c 0.6202(4) 0.8316(7) 0.0495(2) 1. 0 
O3 O2- 8 c 0.8620(4) 0.7853(8) 0.3668(2) 1. 0 
O4 O2- 8 c 0.6281(5) 0.7171(7) 0.7114(4) 1. 0 

loop_
_atom_site_aniso_label
_atom_site_aniso_type_symbol
_atom_site_aniso_U_11
_atom_site_aniso_U_22
_atom_site_aniso_U_33
_atom_site_aniso_U_12
_atom_site_aniso_U_13
_atom_site_aniso_U_23
Tl1 Tl3+ 0.0137(1) 0.0177(1) 0.0133(1) -.0002(1) 0.0008(1) 0.0000(1)
Cs1 Cs1+ 0.0261(3) 0.0389(3) 0.0250(2) 0.0045(2) 0.0024(2) 0.0062(2)
K1 K1+ 0.0210(8) 0.0258(8) 0.0310(8) 0.0028(7) 0.0023(7) 0.0001(7)
K2 K1+ 0.0189(8) 0.0339(9) 0.0235(8) 0.0057(6) 0.0029(6) 0.0062(7)
K3 K1+ 0.0328(9) 0.0234(8) 0.0228(7) -.0022(7) -.0055(7) 0.0024(6)
K4 K1+ 0.0345(10) 0.0402(10) 0.0225(8) 0.0090(8) 0.0055(7) -.0109(8)
O1 O2- 0.0303(25) 0.0140(21) 0.0226(23) 0.0001(20) -.0006(21) -.0011(19)
O2 O2- 0.0279(27) 0.0288(26) 0.0195(23) -.0054(21) 0.0063(20) 0.0056(19)
O3 O2- 0.0152(24) 0.0316(26) 0.0271(25) 0.0054(21) -.0081(20) 0.0011(21)
O4 O2- 0.0309(27) 0.0250(24) 0.0150(22) 0.0041(21) -.0033(20) 0.0032(19)
#End of data_74955-ICSD


