data_201938-ICSD
#?2014 by Fachinformationszentrum Karlsruhe, and the U.S. Secretary of 
#Commerce on behalf of the United States.  All rights reserved.
_database_code_ICSD                201938
_audit_creation_date               1988/12/19
_chemical_name_systematic          'Dilithium Diiron Trimolybdate'
_chemical_formula_structural       'Li2 Fe2 (Mo O4)3'
_chemical_formula_sum              'Fe2 Li2 Mo3 O12'
_publ_section_title
;
Structure of the lithium insertion compound Li2 Fe2 (Mo O4)3 from 
neutron powder diffraction data
;
loop_
_citation_id
_citation_journal_abbrev
_citation_year
_citation_journal_volume
_citation_page_first
_citation_page_last
_citation_journal_id_ASTM
primary 'Materials Research Bulletin' 1986 21 719 726 MRBUAC
_publ_author_name                  'Torardi, C.C.;Prince, E.'
_cell_length_a                     12.8947(5)
_cell_length_b                     9.4957(4)
_cell_length_c                     9.3477(3)
_cell_angle_alpha                  90.
_cell_angle_beta                   90.
_cell_angle_gamma                  90.
_cell_volume                       1144.57
_cell_formula_units_Z              4
_symmetry_space_group_name_H-M     'P b c n'
_symmetry_Int_Tables_number        60
_refine_ls_R_factor_all            .049
loop_
_symmetry_equiv_pos_site_id
_symmetry_equiv_pos_as_xyz
  1	'x, -y, z+.5'
  2	'-x+.5, y+.5, z'
  3	'x+.5, y+.5, -z+.5'
  4	'-x, -y, -z'
  5	'-x, y, -z+.5'
  6	'x+.5, -y+.5, -z'
  7	'-x+.5, -y+.5, z+.5'
  8	'x, y, z'
loop_
_atom_type_symbol
_atom_type_oxidation_number
Fe2+	2
Li1+	1
Mo6+	6
O2-	-2
loop_
_atom_site_label
_atom_site_type_symbol
_atom_site_symmetry_multiplicity
_atom_site_Wyckoff_symbol
_atom_site_fract_x
_atom_site_fract_y
_atom_site_fract_z
_atom_site_occupancy
_atom_site_attached_hydrogens
_atom_site_B_iso_or_equiv
Mo1 Mo6+ 4 c 0 0.4605(6) 0.25 1. 0 1.2(1) 
Mo2 Mo6+ 8 d 0.3564(3) 0.4008(4) 0.1063(5) 1. 0 1.0(1) 
Fe1 Fe2+ 8 d 0.3778(3) 0.2457(4) 0.4678(3) 1. 0 0.73(6) 
O1 O2- 8 d 0.1619(4) 0.0875(5) 0.1121(5) 1. 0 1.0(1) 
O2 O2- 8 d 0.0939(4) 0.3528(5) 0.1667(5) 1. 0 1.0(1) 
O3 O2- 8 d 0.2806(4) 0.3300(5) 0.9665(6) 1. 0 0.9(1) 
O4 O2- 8 d 0.4362(4) 0.0671(5) 0.3754(5) 1. 0 1.4(1) 
O5 O2- 8 d 0.4869(4) 0.3604(5) 0.0724(5) 1. 0 1.4(1) 
O6 O2- 8 d 0.3207(4) 0.3266(5) 0.2704(6) 1. 0 1.0(1) 
Li1 Li1+ 8 d 0.1895(11) 0.2208(16) 0.2711(16) 1. 0 2.0(5) 

#End of data_201938-ICSD


