data_151568-ICSD
#?2014 by Fachinformationszentrum Karlsruhe, and the U.S. Secretary of 
#Commerce on behalf of the United States.  All rights reserved.
_database_code_ICSD                151568
_audit_creation_date               2006/10/01
_audit_update_record               2010/02/01
_chemical_name_systematic          'Calcium Digermanate'
_chemical_formula_structural       'Ca (Ge2 O5)'
_chemical_formula_sum              'Ca1 Ge2 O5'
_publ_section_title
;
Structure and phase transition of Ca Ge2 O5 revisited
;
loop_
_citation_id
_citation_journal_abbrev
_citation_year
_citation_journal_volume
_citation_page_first
_citation_page_last
_citation_journal_id_ASTM
primary 'Physics and Chemistry of Minerals' 2004 31 224 231 PCMIDU
_publ_author_name                  'Malcherek, T.;Bosenick, A.'
_cell_length_a                     6.5286(3)
_cell_length_b                     8.7863(4)
_cell_length_c                     6.8616(3)
_cell_angle_alpha                  88.215(1)
_cell_angle_beta                   113.026(1)
_cell_angle_gamma                  90.988(1)
_cell_volume                       362.06
_cell_formula_units_Z              4
_symmetry_space_group_name_H-M     'C -1'
_symmetry_Int_Tables_number        2
_refine_ls_R_factor_all            .065
loop_
_symmetry_equiv_pos_site_id
_symmetry_equiv_pos_as_xyz
  1	'-x, -y, -z'
  2	'x, y, z'
  3	'-x+.5, -y+.5, -z'
  4	'x+.5, y+.5, z'
loop_
_atom_type_symbol
_atom_type_oxidation_number
Ca2+	2
Ge4+	4
O2-	-2
loop_
_atom_site_label
_atom_site_type_symbol
_atom_site_symmetry_multiplicity
_atom_site_Wyckoff_symbol
_atom_site_fract_x
_atom_site_fract_y
_atom_site_fract_z
_atom_site_occupancy
_atom_site_attached_hydrogens
_atom_site_U_iso_or_equiv
Ca1 Ca2+ 4 i 0.9910(7) 0.6694(5) 0.2660(7) 1. 0 0.0032(15) 
Ge1 Ge4+ 4 i 0.9971(4) 0.3142(3) 0.2439(4) 1. 0 0.0046(9) 
Ge2 Ge4+ 2 a 0 0 0 1. 0 0.0070(13) 
Ge3 Ge4+ 2 b 0 0 0.5 1. 0 0.0019(12) 
O1 O2- 4 i 0.9993(20) 0.9278(12) 0.2523(18) 1. 0 0.0025(16) 
O2 O2- 4 i 0.4047(19) 0.2964(12) 0.9044(18) 1. 0 0.0025(16) 
O3 O2- 4 i 0.8132(18) 0.4505(13) 0.0833(17) 1. 0 0.0025(16) 
O4 O2- 4 i 0.1896(18) 0.4342(12) 0.4297(17) 1. 0 0.0025(16) 
O5 O2- 4 i 0.1188(19) 0.8035(12) 0.6148(18) 1. 0 0.0025(16) 

#End of data_151568-ICSD


