data_85123-ICSD
#?2014 by Fachinformationszentrum Karlsruhe, and the U.S. Secretary of 
#Commerce on behalf of the United States.  All rights reserved.
_database_code_ICSD                85123
_audit_creation_date               1999/06/02
_chemical_name_systematic
;
Pentacalcium Bis(silicate) Sulfate(VI)
;
_chemical_formula_structural       'Ca5 (Si O4)2 (S O4)'
_chemical_formula_sum              'Ca5 O12 S1 Si2'
_chemical_name_mineral             Ternesite
_publ_section_title
;
Ternesite, Ca5 (Si O4)2 S O4, a new mineral from the Ettringer 
Bellerberg/Eifel, Germany
;
loop_
_citation_id
_citation_journal_abbrev
_citation_year
_citation_journal_volume
_citation_page_first
_citation_page_last
_citation_journal_id_ASTM
primary 'Mineralogy and Petrology' 1997 60 121 132 MIPEE9
_publ_author_name
;
Irran, E.M.;Tillmanns, E.;Hentschel, G.
;
_cell_length_a                     6.863(1)
_cell_length_b                     15.387(2)
_cell_length_c                     10.181(1)
_cell_angle_alpha                  90.
_cell_angle_beta                   90.
_cell_angle_gamma                  90.
_cell_volume                       1075.12
_cell_formula_units_Z              4
_symmetry_space_group_name_H-M     'P n m a'
_symmetry_Int_Tables_number        62
_refine_ls_R_factor_all            .058
loop_
_symmetry_equiv_pos_site_id
_symmetry_equiv_pos_as_xyz
  1	'x+.5, y, -z+.5'
  2	'x, -y+.5, z'
  3	'-x+.5, y+.5, z+.5'
  4	'-x, -y, -z'
  5	'-x+.5, -y, z+.5'
  6	'-x, y+.5, -z'
  7	'x+.5, -y+.5, -z+.5'
  8	'x, y, z'
loop_
_atom_type_symbol
_atom_type_oxidation_number
Ca2+	2
O2-	-2
S6+	6
Si4+	4
loop_
_atom_site_label
_atom_site_type_symbol
_atom_site_symmetry_multiplicity
_atom_site_Wyckoff_symbol
_atom_site_fract_x
_atom_site_fract_y
_atom_site_fract_z
_atom_site_occupancy
_atom_site_attached_hydrogens
_atom_site_B_iso_or_equiv
Ca1 Ca2+ 4 c 0.0502(3) 0.25 0.1911(2) 1. 0 1.9 
Ca2 Ca2+ 8 d 0.1423(2) -.0966(1) 0.1588(1) 1. 0 1.95 
Ca3 Ca2+ 8 d 0.3622(2) 0.0861(1) 0.0657(1) 1. 0 1.85 
Si1 Si4+ 8 d 0.3457(3) 0.0747(1) 0.3659(2) 1. 0 1.68 
S1 S6+ 4 c 0.0171(5) 0.25 0.5885(2) 1. 0 2.17 
O1 O2- 4 c 0.233(1) 0.25 0.6028(8) 1. 0 3.21 
O2 O2- 4 c -.043(1) 0.25 0.4519(6) 1. 0 2.23 
O3 O2- 8 d -.062(1) 0.1717(3) 0.6504(5) 1. 0 3.19 
O4 O2- 8 d 0.3861(7) -.0095(3) 0.2699(4) 1. 0 1.93 
O5 O2- 8 d 0.1805(7) 0.0511(3) 0.4751(4) 1. 0 1.77 
O6 O2- 8 d 0.2883(7) 0.1542 0.2678(4) 1. 0 1.92 
O7 O2- 8 d 0.5319(7) 0.1092(4) 0.4537(5) 1. 0 2.13 

#End of data_85123-ICSD


