data_26080-ICSD
#?2014 by Fachinformationszentrum Karlsruhe, and the U.S. Secretary of 
#Commerce on behalf of the United States.  All rights reserved.
_database_code_ICSD                26080
_audit_creation_date               1986/10/16
_audit_update_record               2005/10/01
_chemical_name_systematic          'Zinc Bromide'
_chemical_formula_structural       'Zn Br2'
_chemical_formula_sum              'Br2 Zn1'
_publ_section_title
;
Determining the crystal structure of hygroscopic substances by 
electron diffraction: Zn Br2
;
loop_
_citation_id
_citation_journal_abbrev
_citation_year
_citation_journal_volume
_citation_page_first
_citation_page_last
_citation_journal_id_ASTM
primary
;
Scientific Papers of the Institute of Physical and Chemical Research 
(Japan)
;
 1942 39 291 293 SPIPAG
_publ_author_name                  'Yamaguchi, S.'
_cell_length_a                     6.64
_cell_length_b                     6.64
_cell_length_c                     6.64
_cell_angle_alpha                  34.33
_cell_angle_beta                   34.33
_cell_angle_gamma                  34.33
_cell_volume                       83.04
_cell_formula_units_Z              1
_symmetry_space_group_name_H-M     'R -3 m R'
_symmetry_Int_Tables_number        166
loop_
_symmetry_equiv_pos_site_id
_symmetry_equiv_pos_as_xyz
  1	'-z, -y, -x'
  2	'-z, -x, -y'
  3	'-x, -z, -y'
  4	'-y, -z, -x'
  5	'-y, -x, -z'
  6	'-x, -y, -z'
  7	'z, y, x'
  8	'z, x, y'
  9	'x, z, y'
 10	'y, z, x'
 11	'y, x, z'
 12	'x, y, z'
loop_
_atom_type_symbol
_atom_type_oxidation_number
Br1-	-1
Zn2+	2
loop_
_atom_site_label
_atom_site_type_symbol
_atom_site_symmetry_multiplicity
_atom_site_Wyckoff_symbol
_atom_site_fract_x
_atom_site_fract_y
_atom_site_fract_z
_atom_site_occupancy
_atom_site_attached_hydrogens
Zn1 Zn2+ 1 a 0 0 0 1. 0 
Br1 Br1- 2 c 0.25 0.25 0.25 1. 0 

#End of data_26080-ICSD


