data_65287-ICSD
#?2014 by Fachinformationszentrum Karlsruhe, and the U.S. Secretary of 
#Commerce on behalf of the United States.  All rights reserved.
_database_code_ICSD                65287
_audit_creation_date               1989/12/04
_chemical_name_systematic          'Magnesium Digold(III) Fluoride'
_chemical_formula_structural       'Mg Au2 F8'
_chemical_formula_sum              'Au2 F8 Mg1'
_publ_section_title                'Neue Fluoroaurate(III)'
loop_
_citation_id
_citation_journal_abbrev
_citation_year
_citation_journal_volume
_citation_page_first
_citation_page_last
_citation_journal_id_ASTM
primary 'Zeitschrift fuer Anorganische und Allgemeine Chemie (1950) (DE)'
 1987 555 57 63 ZAACAB
_publ_author_name                  'Mueller, B.G.'
_cell_length_a                     5.489
_cell_length_b                     5.521
_cell_length_c                     10.792
_cell_angle_alpha                  90.
_cell_angle_beta                   109.4
_cell_angle_gamma                  90.
_cell_volume                       308.48
_cell_formula_units_Z              2
_symmetry_space_group_name_H-M     'P 1 21/c 1'
_symmetry_Int_Tables_number        14
_refine_ls_R_factor_all            .112
loop_
_symmetry_equiv_pos_site_id
_symmetry_equiv_pos_as_xyz
  1	'x, -y+.5, z+.5'
  2	'-x, -y, -z'
  3	'-x, y+.5, -z+.5'
  4	'x, y, z'
loop_
_atom_type_symbol
_atom_type_oxidation_number
Au3+	3
F1-	-1
Mg2+	2
loop_
_atom_site_label
_atom_site_type_symbol
_atom_site_symmetry_multiplicity
_atom_site_Wyckoff_symbol
_atom_site_fract_x
_atom_site_fract_y
_atom_site_fract_z
_atom_site_occupancy
_atom_site_attached_hydrogens
_atom_site_U_iso_or_equiv
Au1 Au3+ 4 e 0.1299(2) 0.2128(2) 0.1679(1) 1. 0 0 
Mg1 Mg2+ 2 d 0.5 0 0.5 1. 0 0.0111(28) 
F1 F1- 4 e 0.3382(33) 0.2179(39) 0.0545(18) 1. 0 0 
F2 F1- 4 e 0.9268(40) 0.2025(41) 0.2773(26) 1. 0 0 
F3 F1- 4 e 0.8291(34) 0.1910(32) 0.5259(19) 1. 0 0.0155(36) 
F4 F1- 4 e 0.4297(34) 0.1134(41) 0.3131(20) 1. 0 0 

loop_
_atom_site_aniso_label
_atom_site_aniso_type_symbol
_atom_site_aniso_U_11
_atom_site_aniso_U_22
_atom_site_aniso_U_33
_atom_site_aniso_U_12
_atom_site_aniso_U_13
_atom_site_aniso_U_23
Au1 Au3+ 0.0028(4) 0.0193(5) 0.0079(4) 0.0005(5) 0.0006(3) 0.0020(5)
F1 F1- 0.0124(67) 0.0348(83) 0.0123(69) 0.0002(67) 0.0086(58) 0.0016(71)
F2 F1- 0.0207(77) 0.0342(89) 0.0455(93) -.0010(73) 0.0219(73) -.0016(84)
F4 F1- 0.0088(58) 0.0323(71) 0.0133(64) 0.0026(54) -.0056(52) 0.0051(59)
#End of data_65287-ICSD


