data_77078-ICSD
#?2014 by Fachinformationszentrum Karlsruhe, and the U.S. Secretary of 
#Commerce on behalf of the United States.  All rights reserved.
_database_code_ICSD                77078
_audit_creation_date               2003/04/01
_audit_update_record               2006/04/01
_chemical_name_systematic          'Dirubidium Tetrabromozincate - Lt'
_chemical_formula_structural       'Rb2 (Zn Br4)'
_chemical_formula_sum              'Br4 Rb2 Zn1'
_publ_section_title
;
An X-ray study of modulated commensurate (F) and incommensurate (INC) 
Rb2 Zn Br4 phases
;
loop_
_citation_id
_citation_journal_abbrev
_citation_year
_citation_journal_volume
_citation_page_first
_citation_page_last
_citation_journal_id_ASTM
primary Kristallografiya 1995 40 37 46 KRISAJ
2 'Crystallography Reports' 1995 40 31 39 CYSTE3
3 'Golden Book of Phase Transitions, Wroclaw' 2002 1 1 123 GBOPT5
_publ_author_name
;
Novikova, M.S.;Tamazyan, R.A.;Aleksandrova, I.P.
;
_cell_length_a                     13.195(3)
_cell_length_b                     7.594(5)
_cell_length_c                     9.609(5)
_cell_angle_alpha                  90.
_cell_angle_beta                   90.
_cell_angle_gamma                  90.
_cell_volume                       962.85
_cell_formula_units_Z              4
_symmetry_space_group_name_H-M     'P c 21 n'
_symmetry_Int_Tables_number        33
_refine_ls_R_factor_all            .054
loop_
_symmetry_equiv_pos_site_id
_symmetry_equiv_pos_as_xyz
  1	'-x+.5, y, z+.5'
  2	'x+.5, y+.5, -z+.5'
  3	'-x, y+.5, -z'
  4	'x, y, z'
loop_
_atom_type_symbol
_atom_type_oxidation_number
Br1-	-1
Rb1+	1
Zn2+	2
loop_
_atom_site_label
_atom_site_type_symbol
_atom_site_symmetry_multiplicity
_atom_site_Wyckoff_symbol
_atom_site_fract_x
_atom_site_fract_y
_atom_site_fract_z
_atom_site_occupancy
_atom_site_attached_hydrogens
_atom_site_B_iso_or_equiv
Zn1 Zn2+ 4 a 0.0785 0.75 0.2762(2) 1. 0 1.1 
Br1 Br1- 4 a 0.0797(2) 0.7522(2) 0.5119(2) 1. 0 2.73 
Br2 Br1- 4 a -.0852(2) 0.7611(2) 0.1757(2) 1. 0 2.75 
Br3 Br1- 4 a 0.1580(6) 0.4960(2) 0.1880(1) 1. 0 2.52 
Br4 Br1- 4 a 0.1685(7) -.0041(1) 0.1894(1) 1. 0 3.08 
Rb1 Rb1+ 4 a 0.0967(3) 0.7545(2) 0.8763(3) 1. 0 2.68 
Rb2 Rb1+ 4 a 0.1770(2) 0.2527(2) 0.4871(2) 1. 0 1.72 

#End of data_77078-ICSD


