data_65738-ICSD
#?2014 by Fachinformationszentrum Karlsruhe, and the U.S. Secretary of 
#Commerce on behalf of the United States.  All rights reserved.
_database_code_ICSD                65738
_audit_creation_date               1990/06/08
_audit_update_record               2012/08/01
_chemical_name_systematic
;
Tetrapotassium 20-oxodialumofluorononaniobate(III) Niobate(II)
;
_chemical_formula_structural       'K4 Al2 Nb11 O20 F'
_chemical_formula_sum              'Al2 F1 K4 Nb11 O20'
_publ_section_title
;
K4 Al2 Nb11 O20 F - "missing link" der Clusterkondensation
;
loop_
_citation_id
_citation_journal_abbrev
_citation_year
_citation_journal_volume
_citation_page_first
_citation_page_last
_citation_journal_id_ASTM
primary 'Angewandte Chemie (German Edition)' 1989 101 1695 1696 ANCEAD
_publ_author_name
;
Simon, A.;Koehler, J.;Tischtau, R.;Miller, G.
;
_cell_length_a                     8.7857(6)
_cell_length_b                     8.7857(6)
_cell_length_c                     12.637(1)
_cell_angle_alpha                  90.
_cell_angle_beta                   90.
_cell_angle_gamma                  90.
_cell_volume                       975.43
_cell_formula_units_Z              2
_symmetry_space_group_name_H-M     'I 4/m m m'
_symmetry_Int_Tables_number        139
_refine_ls_R_factor_all            .0827
loop_
_symmetry_equiv_pos_site_id
_symmetry_equiv_pos_as_xyz
  1	'y, x, -z'
  2	'-y, -x, -z'
  3	'-y, x, -z'
  4	'y, -x, -z'
  5	'-x, y, -z'
  6	'x, -y, -z'
  7	'x, y, -z'
  8	'-x, -y, -z'
  9	'-y, -x, z'
 10	'y, x, z'
 11	'y, -x, z'
 12	'-y, x, z'
 13	'x, -y, z'
 14	'-x, y, z'
 15	'-x, -y, z'
 16	'x, y, z'
 17	'y+.5, x+.5, -z+.5'
 18	'-y+.5, -x+.5, -z+.5'
 19	'-y+.5, x+.5, -z+.5'
 20	'y+.5, -x+.5, -z+.5'
 21	'-x+.5, y+.5, -z+.5'
 22	'x+.5, -y+.5, -z+.5'
 23	'x+.5, y+.5, -z+.5'
 24	'-x+.5, -y+.5, -z+.5'
 25	'-y+.5, -x+.5, z+.5'
 26	'y+.5, x+.5, z+.5'
 27	'y+.5, -x+.5, z+.5'
 28	'-y+.5, x+.5, z+.5'
 29	'x+.5, -y+.5, z+.5'
 30	'-x+.5, y+.5, z+.5'
 31	'-x+.5, -y+.5, z+.5'
 32	'x+.5, y+.5, z+.5'
loop_
_atom_type_symbol
_atom_type_oxidation_number
Al3+	3
F1-	-1
K1+	1
Nb2+	2
Nb3+	3
O2-	-2
loop_
_atom_site_label
_atom_site_type_symbol
_atom_site_symmetry_multiplicity
_atom_site_Wyckoff_symbol
_atom_site_fract_x
_atom_site_fract_y
_atom_site_fract_z
_atom_site_occupancy
_atom_site_attached_hydrogens
_atom_site_U_iso_or_equiv
Nb1 Nb3+ 2 a 0 0 0 1. 0 0.0026(19) 
Nb2 Nb2+ 4 e 0 0 0.31946(43) 1. 0 0.0113(18) 
Nb3 Nb3+ 16 m 0.16215(21) 0.16215(21) 0.16390(17) 1. 0 0.00219(72) 
Al1 Al3+ 4 d 0.5 0 0.25 1. 0 0.020(51) 
K1 K1+ 8 j 0.3122(13) 0 0.5 1. 0 0.0121(24) 
O1 O2- 16 m 0.8319(16) 0.8319(16) 0.3310(13) 1. 0 0.0010(40) 
O2 O2- 16 n 0.3371(25) 0 0.1747(16) 1. 0 0.0154(52) 
O3 O2- 8 h 0.8296(23) 0.1704(23) 0 1. 0 0.0010(60) 
F1 F1- 2 b 0 0 0.5 1. 0 0.137(30) 

#End of data_65738-ICSD


