data_280514-ICSD
#?2014 by Fachinformationszentrum Karlsruhe, and the U.S. Secretary of 
#Commerce on behalf of the United States.  All rights reserved.
_database_code_ICSD                280514
_audit_creation_date               2002/04/01
_chemical_name_systematic          'Calcium Dimanganese(III) Oxide'
_chemical_formula_structural       'Ca Mn2 O4'
_chemical_formula_sum              'Ca1 Mn2 O4'
_publ_section_title                'Redetermination of Ca Mn2 O4'
loop_
_citation_id
_citation_journal_abbrev
_citation_year
_citation_journal_volume
_citation_page_first
_citation_page_last
_citation_journal_id_ASTM
primary 'Acta Crystallographica, Section C: Crystal Structure Communications'
 2001 57 329 330 ACSCEE
_publ_author_name
;
Giesber, H.G.;Pennington, W.T.;Kolis, J.W.
;
_cell_length_a                     3.1546(6)
_cell_length_b                     9.988(2)
_cell_length_c                     9.6769(19)
_cell_angle_alpha                  90.
_cell_angle_beta                   90.
_cell_angle_gamma                  90.
_cell_volume                       304.9
_cell_formula_units_Z              4
_symmetry_space_group_name_H-M     'P b c m'
_symmetry_Int_Tables_number        57
_refine_ls_R_factor_all            .0225
loop_
_symmetry_equiv_pos_site_id
_symmetry_equiv_pos_as_xyz
  1	'x, -y+.5, z+.5'
  2	'-x, y+.5, z'
  3	'x, y, -z+.5'
  4	'-x, -y, -z'
  5	'-x, y+.5, -z+.5'
  6	'x, -y+.5, -z'
  7	'-x, -y, z+.5'
  8	'x, y, z'
loop_
_atom_type_symbol
_atom_type_oxidation_number
Ca2+	2
Mn3+	3
O2-	-2
loop_
_atom_site_label
_atom_site_type_symbol
_atom_site_symmetry_multiplicity
_atom_site_Wyckoff_symbol
_atom_site_fract_x
_atom_site_fract_y
_atom_site_fract_z
_atom_site_occupancy
_atom_site_attached_hydrogens
Mn1 Mn3+ 8 e 0.20400(7) 0.388230(19) 0.56852(2) 1. 0 
Ca1 Ca2+ 4 d 0.31754(11) 0.64882(4) 0.75 1. 0 
O1 O2- 4 d 0.8095(5) 0.81633(14) 0.75 1. 0 
O2 O2- 8 e 0.7994(3) 0.52716(9) 0.60794(10) 1. 0 
O3 O2- 4 c 0.4077(5) 0.75 0.5 1. 0 

loop_
_atom_site_aniso_label
_atom_site_aniso_type_symbol
_atom_site_aniso_U_11
_atom_site_aniso_U_22
_atom_site_aniso_U_33
_atom_site_aniso_U_12
_atom_site_aniso_U_13
_atom_site_aniso_U_23
Mn1 Mn3+ 0.00753(14) 0.00409(12) 0.00238(12) 0.00062(5) 0.00084(5) 
0.00192(5)
Ca1 Ca2+ 0.00586(19) 0.00543(18) 0.00588(17) 0 0 -.00007(10)
O1 O2- 0.0101(7) 0.0065(6) 0.0026(5) 0 0 -.0005(4)
O2 O2- 0.0084(5) 0.0060(4) 0.0037(4) 0.0005(3) 0.0010(3) 0.0018(3)
O3 O2- 0.0077(6) 0.0056(6) 0.0069(5) -.0010(4) 0 0
#End of data_280514-ICSD


