data_423052-ICSD
#?2014 by Fachinformationszentrum Karlsruhe, and the U.S. Secretary of 
#Commerce on behalf of the United States.  All rights reserved.
_database_code_ICSD                423052
_audit_creation_date               2014/08/01
_chemical_name_systematic
;
Potassium Yttrium Tetrakis(tetrahydridoborate)
;
_chemical_formula_structural       'K Y (B H4)4'
_chemical_formula_sum              'H16 B4 K1 Y1'
_publ_section_title
;
Probing Lewis acidity of Y (B H4)3 via its reactions with M B H4 (M = 
Li, Na, K, N Me4)
;
loop_
_citation_id
_citation_journal_abbrev
_citation_year
_citation_journal_volume
_citation_journal_issue
_citation_page_first
_citation_page_last
_citation_journal_id_ASTM
primary 'Dalton Transactions' 2011 40 48 12808 12817 DTARAF
_publ_author_name                  'Tomasz Jaron;Wojciech Grochala'
_cell_length_a                     8.5157(4)
_cell_length_b                     12.4979(6)
_cell_length_c                     9.6368(5)
_cell_angle_alpha                  90
_cell_angle_beta                   90
_cell_angle_gamma                  90
_cell_volume                       1025.62
_cell_formula_units_Z              4
_symmetry_space_group_name_H-M     'C m c m'
_symmetry_Int_Tables_number        63
_refine_ls_R_factor_all            .0143
loop_
_symmetry_equiv_pos_site_id
_symmetry_equiv_pos_as_xyz
  1	'-x, y, -z+.5'
  2	'-x, -y, z+.5'
  3	'-x, y, z'
  4	'-x, -y, -z'
  5	'x, -y, z+.5'
  6	'x, y, -z+.5'
  7	'x, -y, -z'
  8	'x, y, z'
  9	'-x+.5, y+.5, -z+.5'
 10	'-x+.5, -y+.5, z+.5'
 11	'-x+.5, y+.5, z'
 12	'-x+.5, -y+.5, -z'
 13	'x+.5, -y+.5, z+.5'
 14	'x+.5, y+.5, -z+.5'
 15	'x+.5, -y+.5, -z'
 16	'x+.5, y+.5, z'
loop_
_atom_type_symbol
_atom_type_oxidation_number
B3+	3
H1-	-1
K1+	1
Y3+	3
loop_
_atom_site_label
_atom_site_type_symbol
_atom_site_symmetry_multiplicity
_atom_site_Wyckoff_symbol
_atom_site_fract_x
_atom_site_fract_y
_atom_site_fract_z
_atom_site_occupancy
_atom_site_attached_hydrogens
_atom_site_U_iso_or_equiv
H1 H1- 16 h 0.6072(3) 0.256(2) 0.8968(14) 1 0 0.076 
H2 H1- 16 h 0.6549(15) 0.011(3) 0.8450(3) 1 0 0.076 
K1 K1+ 4 a 0 0 0.5 1 0 0.095(3) 
Y1 Y3+ 4 c 0.5 0.1319(2) 0.75 1 0 0.0652(12) 
B1 B3+ 8 f 0.5 0.2410(8) 0.9610(10) 1 0 0.114(6) 
H3 H1- 8 f 0.5 0.296(3) 1.053(3) 1 0 0.076 
H4 H1- 8 f 0.5 0.1559(14) 0.998(5) 1 0 0.076 
B2 B3+ 8 g 0.7284(11) 0.0245(7) 0.75 1 0 0.114(6) 
H5 H1- 8 g 0.830(5) 0.967(4) 0.75 1 0 0.076 
H6 H1- 8 g 0.774(7) 0.1087(17) 0.75 1 0 0.076 

#End of data_423052-ICSD


