data_161980-ICSD
#?2014 by Fachinformationszentrum Karlsruhe, and the U.S. Secretary of 
#Commerce on behalf of the United States.  All rights reserved.
_database_code_ICSD                161980
_audit_creation_date               2009/02/01
_chemical_name_systematic          'Sodium Iron Catena-disilicate'
_chemical_formula_structural       'Na Fe (Si2 O6)'
_chemical_formula_sum              'Fe1 Na1 O6 Si2'
_chemical_name_mineral             Aegirine
_publ_section_title
;
In situ high-pressure single-crystal X-ray study of aegirine, Na 
Fe(3+) Si2 O6, and the role of M1 size in clinopyroxene 
compressibility
;
loop_
_citation_id
_citation_journal_abbrev
_citation_year
_citation_journal_volume
_citation_page_first
_citation_page_last
_citation_journal_id_ASTM
primary 'American Mineralogist' 2008 93 1829 1837 AMMIAY
_publ_author_name
;
McCarthy, A.C.;Downs, R.T.;Thompson, R.M.;Redhammer, G.J.
;
_cell_length_a                     9.4426(3)
_cell_length_b                     8.5727(4)
_cell_length_c                     5.1740(2)
_cell_angle_alpha                  90.
_cell_angle_beta                   106.482(3)
_cell_angle_gamma                  90.
_cell_volume                       401.62
_cell_formula_units_Z              4
_symmetry_space_group_name_H-M     'C 1 2/c 1'
_symmetry_Int_Tables_number        15
_refine_ls_R_factor_all            .046
loop_
_symmetry_equiv_pos_site_id
_symmetry_equiv_pos_as_xyz
  1	'x, -y, z+.5'
  2	'-x, -y, -z'
  3	'-x, y, -z+.5'
  4	'x, y, z'
  5	'x+.5, -y+.5, z+.5'
  6	'-x+.5, -y+.5, -z'
  7	'-x+.5, y+.5, -z+.5'
  8	'x+.5, y+.5, z'
loop_
_atom_type_symbol
_atom_type_oxidation_number
Fe3+	3
Na1+	1
O2-	-2
Si4+	4
loop_
_atom_site_label
_atom_site_type_symbol
_atom_site_symmetry_multiplicity
_atom_site_Wyckoff_symbol
_atom_site_fract_x
_atom_site_fract_y
_atom_site_fract_z
_atom_site_occupancy
_atom_site_attached_hydrogens
_atom_site_B_iso_or_equiv
Na1 Na1+ 4 e 0 0.3048(5) 0.250 1. 0 0.98(7) 
Fe1 Fe3+ 4 e 0 0.9015(2) 0.250 1. 0 0.60(4) 
Si1 Si4+ 8 f 0.2911(2) 0.0920(3) 0.2367(4) 1. 0 0.60(4) 
O1 O2- 8 f 0.1135(6) 0.0827(6) 0.1411(10) 1. 0 0.70(8) 
O2 O2- 8 f 0.3567(6) 0.2617(6) 0.3144(10) 1. 0 0.95(9) 
O3 O2- 8 f 0.3558(6) 0.0175(6) 0.0044(10) 1. 0 0.59(8) 

#End of data_161980-ICSD


