data_68881-ICSD
#?2014 by Fachinformationszentrum Karlsruhe, and the U.S. Secretary of 
#Commerce on behalf of the United States.  All rights reserved.
_database_code_ICSD                68881
_audit_creation_date               1992/01/20
_audit_update_record               2007/08/01
_chemical_name_systematic          'Strontium Dizinc Bis(phosphate(V))'
_chemical_formula_structural       'Sr Zn2 (P O4)2'
_chemical_formula_sum              'O8 P2 Sr1 Zn2'
_publ_section_title
;
The crystal structure of alpha-Sr Zn2 (P O4)2: a hurlbutite type
;
loop_
_citation_id
_citation_journal_abbrev
_citation_year
_citation_journal_volume
_citation_page_first
_citation_page_last
_citation_journal_id_ASTM
primary 'Journal of Solid State Chemistry' 1990 85 164 168 JSSCBI
2 'Powder Diffraction' 1999 14 222 230 PODIE2
_publ_author_name                  'Hemon, A.;Courbion, G.'
_cell_length_a                     8.3232(4)
_cell_length_b                     9.5101(4)
_cell_length_c                     9.0317(4)
_cell_angle_alpha                  90.
_cell_angle_beta                   92.293(3)
_cell_angle_gamma                  90.
_cell_volume                       714.33
_cell_formula_units_Z              4
_symmetry_space_group_name_H-M     'P 1 21/c 1'
_symmetry_Int_Tables_number        14
_refine_ls_R_factor_all            .026
loop_
_symmetry_equiv_pos_site_id
_symmetry_equiv_pos_as_xyz
  1	'x, -y+.5, z+.5'
  2	'-x, -y, -z'
  3	'-x, y+.5, -z+.5'
  4	'x, y, z'
loop_
_atom_type_symbol
_atom_type_oxidation_number
O2-	-2
P5+	5
Sr2+	2
Zn2+	2
loop_
_atom_site_label
_atom_site_type_symbol
_atom_site_symmetry_multiplicity
_atom_site_Wyckoff_symbol
_atom_site_fract_x
_atom_site_fract_y
_atom_site_fract_z
_atom_site_occupancy
_atom_site_attached_hydrogens
Sr1 Sr2+ 4 e 0.2456 0.0819 0.6074 1. 0 
Zn1 Zn2+ 4 e 0.5739 0.5711 0.2887 1. 0 
Zn2 Zn2+ 4 e 0.9195 0.3197 0.451 1. 0 
P1 P5+ 4 e 0.5428(1) 0.2941(1) 0.4314(1) 1. 0 
P2 P5+ 4 e 0.0576(1) 0.0847(1) 0.2507(1) 1. 0 
O1 O2- 4 e 0.4746(2) 0.3866(2) 0.3024(2) 1. 0 
O2 O2- 4 e 0.4178(2) 0.2059(2) 0.0528(2) 1. 0 
O3 O2- 4 e 0.2276(2) 0.0621(2) 0.3200(2) 1. 0 
O4 O2- 4 e 0.0174(2) 0.4490(2) 0.3135(2) 1. 0 
O5 O2- 4 e 0.0637(2) 0.3033(2) 0.6287(2) 1. 0 
O6 O2- 4 e 0.5658(2) 0.1413(2) 0.3796(2) 1. 0 
O7 O2- 4 e 0.6999(2) 0.1407(2) 0.9909(2) 1. 0 
O8 O2- 4 e 0.9510(2) 0.3729(2) 0.8793(2) 1. 0 

loop_
_atom_site_aniso_label
_atom_site_aniso_type_symbol
_atom_site_aniso_U_11
_atom_site_aniso_U_22
_atom_site_aniso_U_33
_atom_site_aniso_U_12
_atom_site_aniso_U_13
_atom_site_aniso_U_23
Sr1 Sr2+ 0.0104(1) 0.0087(1) 0.0109(1) -.0007(1) 0.0010(1) 0.0002(1)
Zn1 Zn2+ 0.0115(1) 0.0103(1) 0.0100(1) -.0016(1) 0.0008(1) -.0001(1)
Zn2 Zn2+ 0.0100(1) 0.0085(1) 0.0100(1) 0.0006(1) 0.0010(1) 0.0005(1)
P1 P5+ 0.0084(2) 0.0071(2) 0.0080(2) -.0005(1) 0.0012(1) -.0004(1)
P2 P5+ 0.0082(2) 0.0084(2) 0.0068(2) -.0006(1) 0.0012(1) -.0010(1)
O1 O2- 0.0158(7) 0.0100(5) 0.0110(6) 0.0000(5) 0.0016(5) 0.0023(4)
O2 O2- 0.0145(6) 0.0125(6) 0.0109(6) 0.0019(5) 0.0055(5) 0.0008(4)
O3 O2- 0.0099(6) 0.0233(8) 0.0110(6) -.0003(5) -.0007(5) 0.0009(5)
O4 O2- 0.0145(6) 0.0097(5) 0.0154(6) 0.0027(5) 0.0044(5) 0.0034(5)
O5 O2- 0.0150(6) 0.0125(6) 0.0101(6) 0.0029(5) 0.0003(5) -.0014(5)
O6 O2- 0.0146(7) 0.0111(6) 0.0147(6) 0.0014(5) -.0024(5) -.0035(5)
O7 O2- 0.0091(6) 0.0180(7) 0.0218(8) 0.0025(5) 0.0001(5) 0.0072(6)
O8 O2- 0.0164(7) 0.0091(5) 0.0141(6) 0.0023(5) 0.0071(5) 0.0031(5)
#End of data_68881-ICSD


