data_97765-ICSD
#?2014 by Fachinformationszentrum Karlsruhe, and the U.S. Secretary of 
#Commerce on behalf of the United States.  All rights reserved.
_database_code_ICSD                97765
_audit_creation_date               2004/10/01
_chemical_name_systematic
;
Lithium Nickel Phosphate(V) - Olivine-like Structure
;
_chemical_formula_structural       'Li Ni (P O4)'
_chemical_formula_sum              'Li1 Ni1 O4 P1'
_publ_section_title
;
Influence of the structure on the electrochemical performance of 
lithium transition metal phosphates as cathodic materials in 
rechargeable lithium batteries: a new high-pressure form of Li M P O4 
(M = Fe and Ni)
;
loop_
_citation_id
_citation_journal_abbrev
_citation_year
_citation_journal_volume
_citation_page_first
_citation_page_last
_citation_journal_id_ASTM
primary 'Journal of Materials Chemistry' 2001 13 1570 1576 JMACEP
_publ_author_name
;
Garcia-Moreno, O.;Alvarez-Vega, M.;Garcia-Alvarado, F.;Garcia-Jaca, 
J.;Gallardo Amores, J.M.;Sanjuan, M.L.;Amador, U.
;
_cell_length_a                     10.0275(3)
_cell_length_b                     5.8537(2)
_cell_length_c                     4.6763(2)
_cell_angle_alpha                  90
_cell_angle_beta                   90
_cell_angle_gamma                  90
_cell_volume                       274.49
_cell_formula_units_Z              4
_symmetry_space_group_name_H-M     'P n m a'
_symmetry_Int_Tables_number        62
_refine_ls_R_factor_all            .057
loop_
_symmetry_equiv_pos_site_id
_symmetry_equiv_pos_as_xyz
  1	'x+.5, y, -z+.5'
  2	'x, -y+.5, z'
  3	'-x+.5, y+.5, z+.5'
  4	'-x, -y, -z'
  5	'-x+.5, -y, z+.5'
  6	'-x, y+.5, -z'
  7	'x+.5, -y+.5, -z+.5'
  8	'x, y, z'
loop_
_atom_type_symbol
_atom_type_oxidation_number
Li1+	1
Ni2+	2
O2-	-2
P5+	5
loop_
_atom_site_label
_atom_site_type_symbol
_atom_site_symmetry_multiplicity
_atom_site_Wyckoff_symbol
_atom_site_fract_x
_atom_site_fract_y
_atom_site_fract_z
_atom_site_occupancy
_atom_site_attached_hydrogens
_atom_site_B_iso_or_equiv
Li1 Li1+ 4 a 0 0 0 1. 0 0.69(2) 
Ni1 Ni2+ 4 c 0.2760(3) 0.250 0.9809(7) 1. 0 0.37(2) 
P1 P5+ 4 c 0.0945(6) 0.250 0.420(1) 1. 0 0.37(2) 
O1 O2- 4 c 0.092(1) 0.250 0.745(2) 1. 0 0.21(1) 
O2 O2- 4 c 0.450(1) 0.250 0.219(2) 1. 0 0.21(1) 
O3 O2- 8 d 0.1624(9) 0.045(1) 0.276(2) 1. 0 0.21(1) 

#End of data_97765-ICSD


