data_280361-ICSD
#?2014 by Fachinformationszentrum Karlsruhe, and the U.S. Secretary of 
#Commerce on behalf of the United States.  All rights reserved.
_database_code_ICSD                280361
_audit_creation_date               2002/04/01
_audit_update_record               2006/04/01
_chemical_name_systematic          'Sodium Nitrate(III)'
_chemical_formula_structural       'Na (N O2)'
_chemical_formula_sum              'N1 Na1 O2'
_publ_section_title
;
X-ray study of deformation density and spontaneous polarization in 
ferroelectric Na N O2
;
loop_
_citation_id
_citation_journal_abbrev
_citation_year
_citation_journal_volume
_citation_page_first
_citation_page_last
_citation_journal_id_ASTM
primary 'Acta Crystallographica, Section B: Structural Science'
 2000 56 11 16 ASBSDK
2 'Golden Book of Phase Transitions, Wroclaw' 2002 1 1 123 GBOPT5
_publ_author_name
;
Gohda, T.;Ichikawa, M.;Gustafsson, T.;Olovsson, I.
;
_cell_length_a                     3.5024(6)
_cell_length_b                     5.5209(5)
_cell_length_c                     5.3789(9)
_cell_angle_alpha                  90.
_cell_angle_beta                   90.
_cell_angle_gamma                  90.
_cell_volume                       104.01
_cell_formula_units_Z              2
_symmetry_space_group_name_H-M     'I m 2 m'
_symmetry_Int_Tables_number        44
_refine_ls_R_factor_all            .0084
loop_
_symmetry_equiv_pos_site_id
_symmetry_equiv_pos_as_xyz
  1	'x, y, -z'
  2	'-x, y, z'
  3	'-x, y, -z'
  4	'x, y, z'
  5	'x+.5, y+.5, -z+.5'
  6	'-x+.5, y+.5, z+.5'
  7	'-x+.5, y+.5, -z+.5'
  8	'x+.5, y+.5, z+.5'
loop_
_atom_type_symbol
_atom_type_oxidation_number
N3+	3
Na1+	1
O2-	-2
loop_
_atom_site_label
_atom_site_type_symbol
_atom_site_symmetry_multiplicity
_atom_site_Wyckoff_symbol
_atom_site_fract_x
_atom_site_fract_y
_atom_site_fract_z
_atom_site_occupancy
_atom_site_attached_hydrogens
Na1 Na1+ 2 a 0 0.58833(4) 0 1. 0 
N1 N3+ 2 a 0 0.12277(4) 0 1. 0 
O1 O2- 4 c 0 0 0.19646(3) 1. 0 

loop_
_atom_site_aniso_label
_atom_site_aniso_type_symbol
_atom_site_aniso_U_11
_atom_site_aniso_U_22
_atom_site_aniso_U_33
_atom_site_aniso_U_12
_atom_site_aniso_U_13
_atom_site_aniso_U_23
Na1 Na1+ 0.00623(3) 0.00538(3) 0.00559(3) 0 0 0
N1 N3+ 0.00836(4) 0.00461(5) 0.00490(4) 0 0 0
O1 O2- 0.00886(4) 0.00706(5) 0.00462(4) 0 0 0.00076(4)
#End of data_280361-ICSD


