data_281552-ICSD
#?2014 by Fachinformationszentrum Karlsruhe, and the U.S. Secretary of 
#Commerce on behalf of the United States.  All rights reserved.
_database_code_ICSD                281552
_audit_creation_date               2004/10/01
_chemical_name_systematic          'Potassium Nitrate(V) - Alpha'
_chemical_formula_structural       'K (N O3)'
_chemical_formula_sum              'K1 N1 O3'
_publ_section_title
;
Superstructure of alpha-phase potassium nitrate
;
loop_
_citation_id
_citation_journal_abbrev
_citation_year
_citation_journal_volume
_citation_page_first
_citation_page_last
_citation_journal_id_ASTM
primary 'Acta Crystallographica, Section C: Crystal Structure Communications'
 2003 59 i139 i140 ACSCEE
_publ_author_name                  'Adiwidjaja, G.;Pohl, D.'
_cell_length_a                     10.825(6)
_cell_length_b                     18.351(10)
_cell_length_c                     6.435(3)
_cell_angle_alpha                  90.
_cell_angle_beta                   90.
_cell_angle_gamma                  90.
_cell_volume                       1278.31
_cell_formula_units_Z              16
_symmetry_space_group_name_H-M     'C m c 21'
_symmetry_Int_Tables_number        36
_refine_ls_R_factor_all            .037
loop_
_symmetry_equiv_pos_site_id
_symmetry_equiv_pos_as_xyz
  1	'x, -y, z+.5'
  2	'-x, -y, z+.5'
  3	'-x, y, z'
  4	'x, y, z'
  5	'x+.5, -y+.5, z+.5'
  6	'-x+.5, -y+.5, z+.5'
  7	'-x+.5, y+.5, z'
  8	'x+.5, y+.5, z'
loop_
_atom_type_symbol
_atom_type_oxidation_number
K1+	1
N5+	5
O2-	-2
loop_
_atom_site_label
_atom_site_type_symbol
_atom_site_symmetry_multiplicity
_atom_site_Wyckoff_symbol
_atom_site_fract_x
_atom_site_fract_y
_atom_site_fract_z
_atom_site_occupancy
_atom_site_attached_hydrogens
_atom_site_U_iso_or_equiv
K1 K1+ 4 a 0 0.41703(12) 0.2604(3) 1. 0 0.0310(6) 
K2 K1+ 4 a 0.5 0.41679(12) 0.2614(3) 1. 0 0.0305(6) 
K3 K1+ 8 b 0.24980(14) 0.16670(8) 0.25104(8) 1. 0 0.0303(4) 
N1 N5+ 4 a 0 0.2483(6) 0.4215(19) 1. 0 0.026(2) 
N2 N5+ 4 a 0.5 0.2469(6) 0.4208(19) 1. 0 0.031(2) 
N3 N5+ 8 b 0.2497(6) 0.4979(4) 0.0911(18) 1. 0 0.0271(18) 
O1 O2- 4 a 0 0.1807(4) 0.414(2) 1. 0 0.043(3) 
O2 O2- 4 a 0.5 0.1788(4) 0.4138(19) 1. 0 0.038(2) 
O3 O2- 8 b 0.0999(4) 0.2830(3) 0.4206(15) 1. 0 0.0401(15) 
O4 O2- 8 b 0.3987(4) 0.2809(3) 0.4248(15) 1. 0 0.0434(18) 
O5 O2- 8 b 0.1506(4) 0.5313(3) 0.0984(15) 1. 0 0.0405(18) 
O6 O2- 8 b 0.3479(4) 0.5321(3) 0.0896(16) 1. 0 0.044(2) 
O7 O2- 8 b 0.2478(5) 0.4296(3) 0.0937(18) 1. 0 0.043(2) 

loop_
_atom_site_aniso_label
_atom_site_aniso_type_symbol
_atom_site_aniso_U_11
_atom_site_aniso_U_22
_atom_site_aniso_U_33
_atom_site_aniso_U_12
_atom_site_aniso_U_13
_atom_site_aniso_U_23
K1 K1+ 0.0274(12) 0.0276(13) 0.0381(15) 0 0 -.0011(14)
K2 K1+ 0.0286(12) 0.0278(13) 0.0352(15) 0 0 -.0009(14)
K3 K1+ 0.0262(8) 0.0280(8) 0.0366(12) 0.0000(7) 0.0004(7) 0.0008(12)
N1 N5+ 0.021(4) 0.030(4) 0.028(6) 0 0 0.000(5)
N2 N5+ 0.038(5) 0.036(5) 0.019(6) 0 0 -.002(5)
N3 N5+ 0.026(3) 0.031(3) 0.024(5) 0.007(3) -.003(3) -.001(4)
O1 O2- 0.038(5) 0.031(4) 0.059(7) 0 0 0.001(5)
O2 O2- 0.045(5) 0.025(4) 0.044(6) 0 0 0.002(5)
O3 O2- 0.031(3) 0.047(3) 0.042(4) -.007(3) -.004(3) -.005(4)
O4 O2- 0.026(3) 0.045(3) 0.059(5) 0.009(3) 0.003(3) -.010(4)
O5 O2- 0.029(3) 0.036(3) 0.057(5) 0.002(3) -.004(3) -.001(4)
O6 O2- 0.028(3) 0.037(3) 0.066(6) -.007(3) 0.006(3) 0.002(4)
O7 O2- 0.045(4) 0.032(3) 0.052(6) -.003(3) 0.000(3) -.011(4)
#End of data_281552-ICSD


