data_411142-ICSD
#?2014 by Fachinformationszentrum Karlsruhe, and the U.S. Secretary of 
#Commerce on behalf of the United States.  All rights reserved.
_database_code_ICSD                411142
_audit_creation_date               2002/04/01
_chemical_name_systematic
;
Sodium Ammonium Zinc Phosphate(V) (0.75/0.25/1/1)
;
_chemical_formula_structural       'Na0.75 (N H4)0.25 Zn (P O4)'
_chemical_formula_sum              'H1 N0.25 Na0.75 O4 P1 Zn1'
_publ_section_title
;
Na3/4 (N H4)1/4 Zn P O4, a new framework zincophosphate. Survey of M 
Zn P O4 tetrahedral topologies
;
loop_
_citation_id
_citation_journal_abbrev
_citation_year
_citation_journal_volume
_citation_page_first
_citation_page_last
_citation_journal_id_ASTM
primary 'Zeitschrift fuer Kristallographie (1979-2010)' 2000 215 288 292 ZEKRDZ
_publ_author_name                  'Harrison, W.T.A.'
_cell_length_a                     8.2509(17)
_cell_length_b                     10.371(2)
_cell_length_c                     17.4300(40)
_cell_angle_alpha                  90.
_cell_angle_beta                   90.
_cell_angle_gamma                  90.
_cell_volume                       1491.49
_cell_formula_units_Z              16
_symmetry_space_group_name_H-M     'P b c n'
_symmetry_Int_Tables_number        60
_refine_ls_R_factor_all            .027
loop_
_symmetry_equiv_pos_site_id
_symmetry_equiv_pos_as_xyz
  1	'x, -y, z+.5'
  2	'-x+.5, y+.5, z'
  3	'x+.5, y+.5, -z+.5'
  4	'-x, -y, -z'
  5	'-x, y, -z+.5'
  6	'x+.5, -y+.5, -z'
  7	'-x+.5, -y+.5, z+.5'
  8	'x, y, z'
loop_
_atom_type_symbol
_atom_type_oxidation_number
H1+	1
N3-	-3
Na1+	1
O2-	-2
P5+	5
Zn2+	2
loop_
_atom_site_label
_atom_site_type_symbol
_atom_site_symmetry_multiplicity
_atom_site_Wyckoff_symbol
_atom_site_fract_x
_atom_site_fract_y
_atom_site_fract_z
_atom_site_occupancy
_atom_site_attached_hydrogens
_atom_site_U_iso_or_equiv
Na1 Na1+ 8 d 0.4879(2) 0.18410(15) 0.49615(9) 1. 0 0 
Na2 Na1+ 4 c 0.5 0.4713(2) 0.75 1. 0 0 
N1 N3- 4 c 0.50000(1) 0.0891(5) 0.25000(1) 1. 0 0 
Zn1 Zn2+ 8 d 0.67303(5) 0.44916(4) 0.57418(2) 1. 0 0 
Zn2 Zn2+ 8 d 0.30379(5) 0.18011(4) 0.66248(2) 1. 0 0 
P1 P5+ 8 d 0.2886(1) 0.43128(9) 0.58008(5) 1. 0 0 
P2 P5+ 8 d 0.70395(11) 0.18542(9) 0.65716(5) 1. 0 0 
O1 O2- 8 d 0.1972(3) 0.5043(2) 0.51620(12) 1. 0 0 
O2 O2- 8 d 0.1928(3) 0.3076(2) 0.59894(14) 1. 0 0 
O3 O2- 8 d 0.4563(3) 0.3919(3) 0.55088(15) 1. 0 0 
O4 O2- 8 d 0.3042(3) 0.5140(2) 0.65254(13) 1. 0 0 
O5 O2- 8 d 0.7079(3) 0.2559(2) 0.73499(13) 1. 0 0 
O6 O2- 8 d 0.7674(3) 0.2772(3) 0.59536(14) 1. 0 0 
O7 O2- 8 d 0.8128(3) 0.0647(2) 0.66087(13) 1. 0 0 
O8 O2- 8 d 0.5302(3) 0.1407(3) 0.63848(15) 1. 0 0 
H1 H1+ 8 d 0.47735 0.039 0.29078 1. 0 0.02 
H2 H1+ 8 d 0.5875 0.1233 0.26089 1. 0 0.02 

loop_
_atom_site_aniso_label
_atom_site_aniso_type_symbol
_atom_site_aniso_U_11
_atom_site_aniso_U_22
_atom_site_aniso_U_33
_atom_site_aniso_U_12
_atom_site_aniso_U_13
_atom_site_aniso_U_23
Na1 Na1+ 0.0183(8) 0.0186(8) 0.0169(7) -.0001(7) 0.0030(6) -.0023(7)
Na2 Na1+ 0.0172(12) 0.0322(13) 0.014(1) 0 -.0015(9) 0
N1 N3- 0.020(3) 0.021(2) 0.023(2) 0 -.003(2) 0
Zn1 Zn2+ 0.01126(19) 0.01136(19) 0.01045(18) -.00044(18) 0.00116(17) 
0.00030(16)
Zn2 Zn2+ 0.0121(2) 0.00997(19) 0.01011(18) -.00001(18) -.00009(16) 
0.00071(17)
P1 P5+ 0.0084(4) 0.0080(4) 0.0087(4) 0.0005(3) -.0007(3) 0.0006(3)
P2 P5+ 0.0101(4) 0.0090(4) 0.0071(4) -.0001(4) 0.0002(3) -.0003(3)
O1 O2- 0.0094(12) 0.0140(11) 0.0092(11) 0.0014(11) 0.000(1) 0.003(1)
O2 O2- 0.0132(12) 0.0114(12) 0.0160(12) -.0039(12) -.003(1) 0.005(1)
O3 O2- 0.0078(12) 0.0164(13) 0.0226(14) 0.002(1) -.0010(11) -.0043(11)
O4 O2- 0.0198(14) 0.0130(12) 0.0099(11) 0.0027(12) -.0028(11) -.002(1)
O5 O2- 0.0235(15) 0.0126(11) 0.0090(12) -.0006(12) -.0006(11) -.0016(9)
O6 O2- 0.0171(14) 0.0144(13) 0.0139(12) 0.0027(11) 0.0067(11) 0.005(1)
O7 O2- 0.0170(12) 0.0118(12) 0.0107(11) 0.0044(12) -.0025(11) -.001(1)
O8 O2- 0.0091(13) 0.0164(13) 0.0176(13) -.002(1) -.001(1) -.0048(11)
#End of data_411142-ICSD


