data_80624-ICSD
#?2014 by Fachinformationszentrum Karlsruhe, and the U.S. Secretary of 
#Commerce on behalf of the United States.  All rights reserved.
_database_code_ICSD                80624
_audit_creation_date               1997/05/13
_audit_update_record               2011/02/01
_chemical_name_systematic
;
Potassium Copper(I) Zirconium Sulfide
;
_chemical_formula_structural       'K Cu Zr S3'
_chemical_formula_sum              'Cu1 K1 S3 Zr1'
_publ_section_title
;
Synthesis, structure, and conductivity of the new group IV 
chalcogenides, K Cu Zr Q3 (Q= S, Se, Te)
;
loop_
_citation_id
_citation_journal_abbrev
_citation_year
_citation_journal_volume
_citation_page_first
_citation_page_last
_citation_journal_id_ASTM
primary 'Journal of Solid State Chemistry' 1992 101 257 264 JSSCBI
_publ_author_name
;
Mansuetto, M.F.;Keane, P.M.;Ibers, J.A.
;
_cell_length_a                     3.730(2)
_cell_length_b                     13.915(7)
_cell_length_c                     9.754(6)
_cell_angle_alpha                  90.
_cell_angle_beta                   90.
_cell_angle_gamma                  90.
_cell_volume                       506.26
_cell_formula_units_Z              4
_symmetry_space_group_name_H-M     'C m c m'
_symmetry_Int_Tables_number        63
_refine_ls_R_factor_all            .044
loop_
_symmetry_equiv_pos_site_id
_symmetry_equiv_pos_as_xyz
  1	'-x, y, -z+.5'
  2	'-x, -y, z+.5'
  3	'-x, y, z'
  4	'-x, -y, -z'
  5	'x, -y, z+.5'
  6	'x, y, -z+.5'
  7	'x, -y, -z'
  8	'x, y, z'
  9	'-x+.5, y+.5, -z+.5'
 10	'-x+.5, -y+.5, z+.5'
 11	'-x+.5, y+.5, z'
 12	'-x+.5, -y+.5, -z'
 13	'x+.5, -y+.5, z+.5'
 14	'x+.5, y+.5, -z+.5'
 15	'x+.5, -y+.5, -z'
 16	'x+.5, y+.5, z'
loop_
_atom_type_symbol
_atom_type_oxidation_number
Cu1+	1
K1+	1
S2-	-2
Zr4+	4
loop_
_atom_site_label
_atom_site_type_symbol
_atom_site_symmetry_multiplicity
_atom_site_Wyckoff_symbol
_atom_site_fract_x
_atom_site_fract_y
_atom_site_fract_z
_atom_site_occupancy
_atom_site_attached_hydrogens
_atom_site_B_iso_or_equiv
K1 K1+ 4 c 0 0.744050(76) 0.25 1. 0 0.79(2) 
Cu1 Cu1+ 4 c 0 0.463550(44) 0.25 1. 0 0.56(1) 
Zr1 Zr4+ 4 a 0 0 0 1. 0 0.42(1) 
S1 S2- 8 f 0 0.376990(59) 0.050720(88) 1. 0 0.58(2) 
S2 S2- 4 c 0 0.063600(88) 0.25 1. 0 0.54(2) 

#End of data_80624-ICSD


