data_100158-ICSD
#?2014 by Fachinformationszentrum Karlsruhe, and the U.S. Secretary of 
#Commerce on behalf of the United States.  All rights reserved.
_database_code_ICSD                100158
_audit_creation_date               1980/01/01
_audit_update_record               2012/02/01
_chemical_name_systematic
;
Disodium Tetracalcium Zirconium Niobium Bis(disilicate) Fluoride 
Trioxide
;
_chemical_formula_structural       'Na2 Ca4 Zr Nb (Si2 O7)2 F O3'
_chemical_formula_sum              'Ca4 F1 Na2 Nb1 O17 Si4 Zr1'
_chemical_name_mineral             Woehlerite
_publ_section_title
;
Refinement of the crystal structure of woehlerite
;
loop_
_citation_id
_citation_journal_abbrev
_citation_year
_citation_journal_volume
_citation_page_first
_citation_page_last
_citation_journal_id_ASTM
primary
;
TMPM. Tschermaks Mineralogische und Petrographische Mitteilungen 
(1979-)
;
 1979 26 109 123 TTMMDZ
_publ_author_name                  'Mellini, M.;Merlino, S.'
_cell_length_a                     10.823(3)
_cell_length_b                     10.244(3)
_cell_length_c                     7.290(2)
_cell_angle_alpha                  90.
_cell_angle_beta                   109.00(4)
_cell_angle_gamma                  90.
_cell_volume                       764.21
_cell_formula_units_Z              2
_symmetry_space_group_name_H-M     'P 1 21 1'
_symmetry_Int_Tables_number        4
_refine_ls_R_factor_all            .019
loop_
_symmetry_equiv_pos_site_id
_symmetry_equiv_pos_as_xyz
  1	'-x, y+.5, -z'
  2	'x, y, z'
loop_
_atom_type_symbol
_atom_type_oxidation_number
Ca2+	2
F1-	-1
Na1+	1
Nb5+	5
O2-	-2
Si4+	4
Zr4+	4
loop_
_atom_site_label
_atom_site_type_symbol
_atom_site_symmetry_multiplicity
_atom_site_Wyckoff_symbol
_atom_site_fract_x
_atom_site_fract_y
_atom_site_fract_z
_atom_site_occupancy
_atom_site_attached_hydrogens
Ca1 Ca2+ 2 a 0.34605(7) 0.30037(13) 0.55184(10) 1. 0 
Nb1 Nb5+ 2 a 0.13104(4) 0.05243(6) 0.19173(5) 1. 0 
Zr1 Zr4+ 2 a 0.34201(3) 0.28972(7) 0.05379(4) 1. 0 
Ca2 Ca2+ 2 a 0.14570(6) 0.6815(1) 0.19979(9) 1. 0 
Ca3 Ca2+ 2 a 0.36750(8) 0.91284(10) 0.05383(11) 1. 0 
Ca4 Ca2+ 2 a 0.15345(7) 0.6836(1) 0.69983(10) 1. 0 
Na1 Na1+ 2 a 0.12210(18) 0.06891(21) 0.68654(24) 1. 0 
Na2 Na1+ 2 a 0.36673(16) 0.91655(20) 0.55120(23) 1. 0 
Si1 Si4+ 2 a 0.07971(9) 0.37343(10) 0.19749(14) 1. 0 
Si2 Si4+ 2 a 0.07238(10) 0.36493(11) 0.63666(14) 1. 0 
Si3 Si4+ 2 a 0.43941(10) 0.61333(11) 0.56312(14) 1. 0 
Si4 Si4+ 2 a 0.43303(10) 0.6126(1) 0.112460(14) 1. 0 
O1 O2- 2 a 0.0095(3) 0.2364(3) 0.1200(4) 1. 0 
O2 O2- 2 a -.0197(3) 0.2413(3) 0.6175(4) 1. 0 
O3 O2- 2 a 0.0056(3) 0.5017(3) 0.0851(4) 1. 0 
O4 O2- 2 a 0.0185(3) 0.4994(3) 0.6984(4) 1. 0 
O5 O2- 2 a 0.2322(3) 0.3754(3) 0.2078(4) 1. 0 
O6 O2- 2 a 0.2209(3) 0.3363(3) 0.7744(4) 1. 0 
O7 O2- 2 a 0.4892(3) 0.4720(3) 0.6505(4) 1. 0 
O8 O2- 2 a 0.4573(3) 0.4644(3) 0.0718(4) 1. 0 
O9 O2- 2 a 0.4746(3) 0.2359(3) 0.3195(4) 1. 0 
O10 O2- 2 a 0.4630(3) 0.2165(3) 0.9120(4) 1. 0 
O11 O2- 2 a 0.2865(3) 0.6398(3) 0.5154(4) 1. 0 
O12 O2- 2 a 0.2888(3) 0.6700(3) 0.0234(4) 1. 0 
O13 O2- 2 a 0.2449(3) 0.1173(3) 0.0435(4) 1. 0 
O14 O2- 2 a 0.2236(3) 0.1183(3) 0.4363(3) 1. 0 
F1 F1- 2 a 0.2393(2) 0.8891(2) 0.7435(3) 1. 0 
O15 O2- 2 a 0.2136(3) 0.8927(3) 0.2241(4) 1. 0 
O16 O2- 2 a 0.0867(3) 0.3950(3) 0.4228(4) 1. 0 
O17 O2- 2 a 0.5230(3) 0.1240(3) 0.6400(4) 1. 0 

#End of data_100158-ICSD


