data_35486-ICSD
#?2014 by Fachinformationszentrum Karlsruhe, and the U.S. Secretary of 
#Commerce on behalf of the United States.  All rights reserved.
_database_code_ICSD                35486
_audit_creation_date               1980/01/01
_audit_update_record               2012/08/01
_chemical_name_systematic          'Potassium Pentaborate'
_chemical_formula_structural       'K (B5 O8)'
_chemical_formula_sum              'B5 K1 O8'
_publ_section_title
;
The crystal structures of potassium pentaborate, K2 O * 5(B2 O3), and 
the isomorphus rubidium compound
;
loop_
_citation_id
_citation_journal_abbrev
_citation_year
_citation_journal_volume
_citation_page_first
_citation_page_last
_citation_journal_id_ASTM
primary 'Arkiv foer Kemi' 1959 14 439 449 ARKEAD
_publ_author_name                  'Krogh-Moe, J.'
_cell_length_a                     7.42
_cell_length_b                     11.69
_cell_length_c                     14.72
_cell_angle_alpha                  90.
_cell_angle_beta                   90.
_cell_angle_gamma                  90.
_cell_volume                       1276.81
_cell_formula_units_Z              8
_symmetry_space_group_name_H-M     'P b c a'
_symmetry_Int_Tables_number        61
_refine_ls_R_factor_all            .27
loop_
_symmetry_equiv_pos_site_id
_symmetry_equiv_pos_as_xyz
  1	'x+.5, y, -z+.5'
  2	'x, -y+.5, z+.5'
  3	'-x+.5, y+.5, z'
  4	'-x, -y, -z'
  5	'-x+.5, -y, z+.5'
  6	'-x, y+.5, -z+.5'
  7	'x+.5, -y+.5, -z'
  8	'x, y, z'
loop_
_atom_type_symbol
_atom_type_oxidation_number
B3+	3
K1+	1
O2-	-2
loop_
_atom_site_label
_atom_site_type_symbol
_atom_site_symmetry_multiplicity
_atom_site_Wyckoff_symbol
_atom_site_fract_x
_atom_site_fract_y
_atom_site_fract_z
_atom_site_occupancy
_atom_site_attached_hydrogens
_atom_site_B_iso_or_equiv
K1 K1+ 8 c 0.059 0.29 0.121 1. 0 1.9 
O1 O2- 8 c 0.317 0.028 0.033 1. 0 1.9 
O2 O2- 8 c 0.44 0.211 0.078 1. 0 1.9 
O3 O2- 8 c 0.653 0.213 0.204 1. 0 1.9 
O4 O2- 8 c 0.443 0.37 0.167 1. 0 1.9 
O5 O2- 8 c 0.697 0.328 0.062 1. 0 1.9 
O6 O2- 8 c 0.09 0.063 0.192 1. 0 1.9 
O7 O2- 8 c 0.493 0.042 0.167 1. 0 1.9 
O8 O2- 8 c 0.917 0.02 0.092 1. 0 1.9 
B1 B3+ 8 c 0.56 0.29 0.13 1. 0 1.9 
B2 B3+ 8 c 0.447 0.092 0.083 1. 0 1.9 
B3 B3+ 8 c 0.467 0.492 0.153 1. 0 1.9 
B4 B3+ 8 c 0.677 0.437 0.047 1. 0 1.9 
B5 B3+ 8 c 0.556 0.1 0.213 1. 0 1.9 

#End of data_35486-ICSD


