data_82147-ICSD
#?2014 by Fachinformationszentrum Karlsruhe, and the U.S. Secretary of 
#Commerce on behalf of the United States.  All rights reserved.
_database_code_ICSD                82147
_audit_creation_date               1999/11/30
_chemical_name_systematic          'Dipotassium Yttrium Pentaniobate'
_chemical_formula_structural       'K2 Y (Nb5 O15)'
_chemical_formula_sum              'K2 Nb5 O15 Y1'
_publ_section_title
;
Preparation and crystal structure of K2 Y Nb5 O15-d
;
loop_
_citation_id
_citation_journal_abbrev
_citation_year
_citation_journal_volume
_citation_page_first
_citation_page_last
_citation_journal_id_ASTM
primary 'Journal of Solid State Chemistry' 1996 123 285 290 JSSCBI
_publ_author_name                  'Kumada, N.;Kinomura, N.'
_cell_length_a                     10.316(1)
_cell_length_b                     15.257(1)
_cell_length_c                     3.914(1)
_cell_angle_alpha                  90.
_cell_angle_beta                   90.
_cell_angle_gamma                  90.
_cell_volume                       616.03
_cell_formula_units_Z              2
_symmetry_space_group_name_H-M     'C m m m'
_symmetry_Int_Tables_number        65
_refine_ls_R_factor_all            .046
loop_
_symmetry_equiv_pos_site_id
_symmetry_equiv_pos_as_xyz
  1	'x, -y, z'
  2	'-x, y, z'
  3	'x, y, -z'
  4	'-x, -y, -z'
  5	'-x, y, -z'
  6	'x, -y, -z'
  7	'-x, -y, z'
  8	'x, y, z'
  9	'x+.5, -y+.5, z'
 10	'-x+.5, y+.5, z'
 11	'x+.5, y+.5, -z'
 12	'-x+.5, -y+.5, -z'
 13	'-x+.5, y+.5, -z'
 14	'x+.5, -y+.5, -z'
 15	'-x+.5, -y+.5, z'
 16	'x+.5, y+.5, z'
loop_
_atom_type_symbol
_atom_type_oxidation_number
K1+	1
Nb5+	5
O2-	-2
Y3+	3
loop_
_atom_site_label
_atom_site_type_symbol
_atom_site_symmetry_multiplicity
_atom_site_Wyckoff_symbol
_atom_site_fract_x
_atom_site_fract_y
_atom_site_fract_z
_atom_site_occupancy
_atom_site_attached_hydrogens
Nb1 Nb5+ 8 q 0.19126(4) 0.12908(3) 0.5 1. 0 
Nb2 Nb5+ 2 c 0.5 0 0.5 1. 0 
Y1 Y3+ 2 a 0 0 0 1. 0 
K1 K1+ 4 i 0.5 0.2053(1) 0 1. 0 
O1 O2- 8 q 0.3672(4) 0.0917(3) 0.5 1. 0 
O2 O2- 8 p 0.1703(8) 0.1197(4) 0 1. 0 
O3 O2- 4 f 0.25 0.25 0.5 1. 0 
O4 O2- 4 h 0.1321(5) 0 0.5 1. 0 
O5 O2- 2 b 0 0.5 0 1. 0 
O6 O2- 4 j 0 0.1557(5) 0.5 1. 0 

loop_
_atom_site_aniso_label
_atom_site_aniso_type_symbol
_atom_site_aniso_U_11
_atom_site_aniso_U_22
_atom_site_aniso_U_33
_atom_site_aniso_U_12
_atom_site_aniso_U_13
_atom_site_aniso_U_23
Nb1 Nb5+ 0.0105(1) 0.0063(1) 0.0097(1) -.0019(1) 0 0
Nb2 Nb5+ 0.0199(5) 0.0088(4) 0.062(1) 0 0 0
Y1 Y3+ 0.0137(5) 0.059(1) 0.0081(4) 0 0 0
K1 K1+ 0.039(1) 0.0164(7) 0.0198(9) 0 0 0
O1 O2- 0.006(1) 0.011(1) 0.094(6) 0.003(1) 0 0
O2 O2- 0.083(5) 0.024(2) 0.005(1) -.013(3) 0 0
O3 O2- 0.014(2) 0.007(2) 0.029(3) -.002(2) 0 0
O4 O2- 0.008(2) 0.006(2) 0.024(3) 0 0 0
O5 O2- 0.023(5) 0.13(2) 0.001(3) 0 0 0
O6 O2- 0.008(2) 0.016(3) 0.105(9) 0 0 0
#End of data_82147-ICSD


