data_14287-ICSD
#?2014 by Fachinformationszentrum Karlsruhe, and the U.S. Secretary of 
#Commerce on behalf of the United States.  All rights reserved.
_database_code_ICSD                14287
_audit_creation_date               1980/01/01
_chemical_name_systematic          'Sodium Iodate(VII)'
_chemical_formula_structural       'Na I O4'
_chemical_formula_sum              'I1 Na1 O4'
_publ_section_title
;
Refinement of the Structure of Na I O4
;
loop_
_citation_id
_citation_journal_abbrev
_citation_year
_citation_journal_volume
_citation_page_first
_citation_page_last
_citation_journal_id_ASTM
primary 'Acta Crystallographica B (24,1968-38,1982)' 1970 26 1782 1785 ACBCAR
_publ_author_name                  'Kalman, A.;Cruickshank, D.W.J.'
_cell_length_a                     5.337(1)
_cell_length_b                     5.337(1)
_cell_length_c                     11.947(2)
_cell_angle_alpha                  90.
_cell_angle_beta                   90.
_cell_angle_gamma                  90.
_cell_volume                       340.29
_cell_formula_units_Z              4
_symmetry_space_group_name_H-M     'I 41/a S'
_symmetry_Int_Tables_number        88
_refine_ls_R_factor_all            .0894
loop_
_symmetry_equiv_pos_site_id
_symmetry_equiv_pos_as_xyz
  1	'y, -x+.5, z+.25'
  2	'-y, x+.5, z+.25'
  3	'y, -x, -z'
  4	'-y, x, -z'
  5	'-x, -y+.5, -z+.25'
  6	'x, y+.5, -z+.25'
  7	'-x, -y, z'
  8	'x, y, z'
  9	'y+.5, -x, z+.75'
 10	'-y+.5, x, z+.75'
 11	'y+.5, -x+.5, -z+.5'
 12	'-y+.5, x+.5, -z+.5'
 13	'-x+.5, -y, -z+.75'
 14	'x+.5, y, -z+.75'
 15	'-x+.5, -y+.5, z+.5'
 16	'x+.5, y+.5, z+.5'
loop_
_atom_type_symbol
_atom_type_oxidation_number
I7+	7
Na1+	1
O2-	-2
loop_
_atom_site_label
_atom_site_type_symbol
_atom_site_symmetry_multiplicity
_atom_site_Wyckoff_symbol
_atom_site_fract_x
_atom_site_fract_y
_atom_site_fract_z
_atom_site_occupancy
_atom_site_attached_hydrogens
I1 I7+ 4 a 0 0 0 1. 0 
Na1 Na1+ 4 b 0 0 0.5 1. 0 
O1 O2- 16 f -.2341(13) 0.1501(13) 0.0806(6) 1. 0 

loop_
_atom_site_aniso_label
_atom_site_aniso_type_symbol
_atom_site_aniso_U_11
_atom_site_aniso_U_22
_atom_site_aniso_U_33
_atom_site_aniso_U_12
_atom_site_aniso_U_13
_atom_site_aniso_U_23
I1 I7+ 0.0127(2) 0.0127(2) 0.0128(2) 0 0 0
Na1 Na1+ 0.0412(46) 0.0412(46) 0.0322(49) 0 0 0
O1 O2- 0.0180(24) 0.0219(27) 0.0262(22) 0.0046(24) 0.0006(21) 0.0013(22)
#End of data_14287-ICSD


