data_34766-ICSD
#?2014 by Fachinformationszentrum Karlsruhe, and the U.S. Secretary of 
#Commerce on behalf of the United States.  All rights reserved.
_database_code_ICSD                34766
_audit_creation_date               1980/01/01
_audit_update_record               1984/11/02
_chemical_name_systematic          'Sodium Chromate Tetrahydrate'
_chemical_formula_structural       'Na2 Cr O4 (H2 O)4'
_chemical_formula_sum              'H8 Cr1 Na2 O8'
_publ_section_title                'Sodium chromate tetrahydrate'
loop_
_citation_id
_citation_journal_abbrev
_citation_year
_citation_journal_volume
_citation_page_first
_citation_page_last
_citation_journal_id_ASTM
primary 'Acta Crystallographica B (24,1968-38,1982)' 1973 29 2963 2964 ACBCAR
_publ_author_name
;
Ruben, H.;Olovsson, I.;Zalkin, A.;Templeton, D.H.
;
_cell_length_a                     6.186(4)
_cell_length_b                     11.165(4)
_cell_length_c                     12.20(1)
_cell_angle_alpha                  90.
_cell_angle_beta                   104.95(10)
_cell_angle_gamma                  90.
_cell_volume                       814.09
_cell_formula_units_Z              4
_symmetry_space_group_name_H-M     'P 1 21/c 1'
_symmetry_Int_Tables_number        14
_refine_ls_R_factor_all            .11
loop_
_symmetry_equiv_pos_site_id
_symmetry_equiv_pos_as_xyz
  1	'x, -y+.5, z+.5'
  2	'-x, -y, -z'
  3	'-x, y+.5, -z+.5'
  4	'x, y, z'
loop_
_atom_type_symbol
_atom_type_oxidation_number
Cr6+	6
H1+	1
Na1+	1
O2-	-2
loop_
_atom_site_label
_atom_site_type_symbol
_atom_site_symmetry_multiplicity
_atom_site_Wyckoff_symbol
_atom_site_fract_x
_atom_site_fract_y
_atom_site_fract_z
_atom_site_occupancy
_atom_site_attached_hydrogens
Cr1 Cr6+ 4 e 0.2644(2) 0.40032(9) 0.24003(9) 1. 0 
Na1 Na1+ 4 e 0.2482(4) 0.5720(2) 0.4971(2) 1. 0 
Na2 Na1+ 4 e 0.4776(4) 0.6791(2) 0.1124(2) 1. 0 
O1 O2- 4 e 0.3750(8) 0.4286(5) 0.3734(4) 1. 0 
O2 O2- 4 e 0.3392(8) 0.2641(4) 0.2122(4) 1. 0 
O3 O2- 4 e 0.3473(8) 0.4939(5) 0.1596(4) 1. 0 
O4 O2- 4 e 0.9854(7) 0.4086(5) 0.2137(4) 1. 0 
O5 O2- 4 e 0.2069(8) 0.4063(4) 0.9337(4) 1. 0 
O6 O2- 4 e 0.3486(8) 0.7431(5) 0.9203(4) 1. 0 
O7 O2- 4 e 0.1325(8) 0.7275(5) 0.6121(5) 1. 0 
O8 O2- 4 e 0.1183(8) 0.4425(4) 0.6214(4) 1. 0 
H1 H1+ 4 e 0.142 0.468 0.885 1. 0 
H2 H1+ 4 e 0.253 0.435 0.009 1. 0 
H3 H1+ 4 e 0.236 0.692 0.876 1. 0 
H4 H1+ 4 e 0.452 0.74 0.876 1. 0 
H5 H1+ 4 e 0.019 0.789 0.597 1. 0 
H6 H1+ 4 e 0.092 0.681 0.67 1. 0 
H7 H1+ 4 e 0.192 0.373 0.651 1. 0 
H8 H1+ 4 e 0.084 0.492 0.676 1. 0 

loop_
_atom_site_aniso_label
_atom_site_aniso_type_symbol
_atom_site_aniso_B_11
_atom_site_aniso_B_22
_atom_site_aniso_B_33
_atom_site_aniso_B_12
_atom_site_aniso_B_13
_atom_site_aniso_B_23
Cr1 Cr6+ 1.37(4) 1.41(4) 1.69(4) -.03(4) 0.53(3) -.05(4)
Na1 Na1+ 2.0(1) 2.1(1) 2.2(1) -.04(9) 0.47(9) -.16(9)
Na2 Na1+ 1.9(1) 2.1(1) 2.6(1) 0.2(1) 0.7(1) 0.2(1)
O1 O2- 2.1(2) 3.7(3) 2.3(2) 0.5(2) 0.5(2) -.3(2)
O2 O2- 2.1(2) 2.0(2) 2.4(2) -.2(2) 0.9(2) -.3(2)
O3 O2- 2.9(2) 2.2(2) 3.0(2) -.6(2) 1.2(2) 0.2(2)
O4 O2- 1.9(2) 2.8(2) 2.4(2) 0.2(2) 0.4(2) 0.0(2)
O5 O2- 2.8(2) 2.3(2) 2.5(2) 0.4(2) 0.6(2) 0.4(2)
O6 O2- 2.3(2) 3.0(2) 2.6(2) -.6(2) 1.3(2) -.8(2)
O7 O2- 2.3(2) 3.0(2) 3.4(3) -.2(2) 1.3(2) 0.2(2)
O8 O2- 3.2(2) 1.8(2) 2.4(2) 0.6(2) 0.7(2) 0.3(2)
#End of data_34766-ICSD


