data_240912-ICSD
#?2014 by Fachinformationszentrum Karlsruhe, and the U.S. Secretary of 
#Commerce on behalf of the United States.  All rights reserved.
_database_code_ICSD                240912
_audit_creation_date               2008/08/01
_chemical_name_systematic
;
Tetrasodium Dititanium Octasilicate Tetrahydrate
;
_chemical_formula_structural       'Na4 Ti2 Si8 O22 (H2 O)4'
_chemical_formula_sum              'H8 Na4 O26 Si8 Ti2'
_publ_section_title
;
Refinement of the layered titanosilicate AM-1 from single-crystal X-
ray diffraction data
;
loop_
_citation_id
_citation_journal_abbrev
_citation_year
_citation_journal_volume
_citation_journal_issue
_citation_page_first
_citation_page_last
_citation_journal_id_ASTM
primary 'Acta Crystallographica, Section E. Structure Reports Online'
 2007 63 11 i186 i186 ACSEBH
_publ_author_name
;
Ferdov, S.;Kolitsch, U.;Lengauer, C.;Tillmanns, E.;Lin Zhi;Sa 
Ferreira, R.A.
;
_cell_length_a                     7.3740(10)
_cell_length_b                     7.3740(10)
_cell_length_c                     10.709(2)
_cell_angle_alpha                  90.00
_cell_angle_beta                   90.00
_cell_angle_gamma                  90.00
_cell_volume                       582.31
_cell_formula_units_Z              1
_symmetry_space_group_name_H-M     'P 4 21 2'
_symmetry_Int_Tables_number        90
_refine_ls_R_factor_all            .025
loop_
_symmetry_equiv_pos_site_id
_symmetry_equiv_pos_as_xyz
  1	'-y+.5, x+.5, z'
  2	'y+.5, -x+.5, z'
  3	'-y, -x, -z'
  4	'y, x, -z'
  5	'x+.5, -y+.5, -z'
  6	'-x+.5, y+.5, -z'
  7	'-x, -y, z'
  8	'x, y, z'
loop_
_atom_type_symbol
_atom_type_oxidation_number
H1+	1
Na1+	1
O2-	-2
Si4+	4
Ti4+	4
loop_
_atom_site_label
_atom_site_type_symbol
_atom_site_symmetry_multiplicity
_atom_site_Wyckoff_symbol
_atom_site_fract_x
_atom_site_fract_y
_atom_site_fract_z
_atom_site_occupancy
_atom_site_attached_hydrogens
_atom_site_U_iso_or_equiv
Na1 Na1+ 4 d 0.0000 0.0000 0.16928(14) 1 0 0.0252(4) 
Ti1 Ti4+ 2 c 0.0000 0.5000 0.22310(9) 1 0 0.0119(2) 
Si1 Si4+ 8 g 0.31962(8) 0.23967(8) 0.35624(7) 1 0 0.01197(19) 
O1 O2- 8 g 0.2502(2) 0.0354(2) 0.32757(18) 1 0 0.0179(4) 
O2 O2- 8 g 0.2289(2) 0.3811(2) 0.2635(2) 1 0 0.0218(5) 
O3 O2- 2 c 0.0000 0.5000 0.0654(4) 1 0 0.0215(8) 
O4 O2- 4 f 0.2846(3) 0.2846(3) 0.5000 1 0 0.0351(8) 
O5 O2- 4 e 0.1476(3) 0.1476(3) 0.0000 1 0 0.0343(8) 
H1 H1+ 8 g 0.148(5) 0.251(4) 0.001(4) 1 0 0.036(11) 

loop_
_atom_site_aniso_label
_atom_site_aniso_type_symbol
_atom_site_aniso_U_11
_atom_site_aniso_U_22
_atom_site_aniso_U_33
_atom_site_aniso_U_12
_atom_site_aniso_U_13
_atom_site_aniso_U_23
Na1 Na1+ 0.0263(8) 0.0259(8) 0.0235(8) 0.0076(8) 0.000 0.000
Ti1 Ti4+ 0.0097(3) 0.0097(3) 0.0163(5) 0.000 0.000 0.000
Si1 Si4+ 0.0095(3) 0.0092(3) 0.0173(4) 0.0006(3) 0.0009(3) -0.0011(3)
O1 O2- 0.0192(9) 0.0095(8) 0.0250(11) -0.0004(8) -0.0037(8) 0.0006(7)
O2 O2- 0.0124(9) 0.0144(9) 0.0386(13) 0.0008(7) -0.0049(9) 0.0068(9)
O3 O2- 0.0239(12) 0.0239(12) 0.0167(19) 0.000 0.000 0.000
O4 O2- 0.0402(12) 0.0402(12) 0.0247(17) -0.0094(14) 0.0137(11) -0.0137(11)
O5 O2- 0.0325(12) 0.0325(12) 0.0379(19) -0.0094(16) 0.0092(13) -0.0092(13)
#End of data_240912-ICSD


