data_170813-ICSD
#?2014 by Fachinformationszentrum Karlsruhe, and the U.S. Secretary of 
#Commerce on behalf of the United States.  All rights reserved.
_database_code_ICSD                170813
_audit_creation_date               2006/04/01
_chemical_name_systematic          'Calcium Copper Germanate'
_chemical_formula_structural       'Ca Cu Ge2 O6'
_chemical_formula_sum              'Ca1 Cu1 Ge2 O6'
_chemical_name_mineral             Clinopyroxene
_publ_section_title
;
Crystal structure of the clinopyroxene-type compound Ca Cu Ge2 O6 
between 15 K and 700 K
;
loop_
_citation_id
_citation_journal_abbrev
_citation_year
_citation_journal_volume
_citation_page_first
_citation_page_last
_citation_journal_id_ASTM
primary 'Acta Crystallographica, Section B: Structural Science'
 2005 61 367 380 ASBSDK
_publ_author_name
;
Redhammer, G.J.;Tippelt, G.;Merz, M.;Roth, G.;Treutmann, W.;Amthauer, 
G.
;
_cell_length_a                     10.1944(12)
_cell_length_b                     9.2078(7)
_cell_length_c                     5.2103(6)
_cell_angle_alpha                  90
_cell_angle_beta                   105.699(12)
_cell_angle_gamma                  90
_cell_volume                       470.84
_cell_formula_units_Z              4
_symmetry_space_group_name_H-M     'P 1 21/c 1'
_symmetry_Int_Tables_number        14
_refine_ls_R_factor_all            .035
loop_
_symmetry_equiv_pos_site_id
_symmetry_equiv_pos_as_xyz
  1	'x, -y+.5, z+.5'
  2	'-x, -y, -z'
  3	'-x, y+.5, -z+.5'
  4	'x, y, z'
loop_
_atom_type_symbol
_atom_type_oxidation_number
Ca2+	2
Cu2+	2
Ge4+	4
O2-	-2
loop_
_atom_site_label
_atom_site_type_symbol
_atom_site_symmetry_multiplicity
_atom_site_Wyckoff_symbol
_atom_site_fract_x
_atom_site_fract_y
_atom_site_fract_z
_atom_site_occupancy
_atom_site_attached_hydrogens
_atom_site_U_iso_or_equiv
Ca1 Ca2+ 4 e 0.28283(13) 0.45246(14) 0.8085(3) 1 0 0.0082(3) 
Cu1 Cu2+ 4 e 0.22765(8) 0.66139(8) 0.25626(15) 1 0 0.0067(2) 
Ge1 Ge4+ 4 e 0.04901(6) 0.34920(7) 0.20955(13) 1 0 0.00466(18) 
Ge2 Ge4+ 4 e 0.49099(6) 0.35070(7) 0.40044(14) 1 0 0.00576(18) 
O1 O2- 4 e -0.1266(4) 0.3613(3) 0.1153(9) 1 0 0.0097(10) 
O2 O2- 4 e 0.6584(4) 0.3200(5) 0.3790(4) 1 0 0.0061(9) 
O3 O2- 4 e 0.1456(5) 0.4892(5) 0.3766(11) 1 0 0.0115(11) 
O4 O2- 4 e 0.4321(3) 0.5219(4) 0.2611(10) 1 0 0.0093(10) 
O5 O2- 4 e 0.1034(4) 0.1948(3) 0.4211(6) 1 0 0.0081(10) 
O6 O2- 4 e 0.4003(5) 0.2521(5) 0.5894(10) 1 0 0.0087(10) 

loop_
_atom_site_aniso_label
_atom_site_aniso_type_symbol
_atom_site_aniso_U_11
_atom_site_aniso_U_22
_atom_site_aniso_U_33
_atom_site_aniso_U_12
_atom_site_aniso_U_13
_atom_site_aniso_U_23
Ca1 Ca2+ 0.0095(6) 0.0080(5) 0.0071(7) 0.0007(5) 0.0019(5) 0.0014(5)
Cu1 Cu2+ 0.0078(3) 0.0066(3) 0.0045(4) -0.0017(3) -0.0002(3) -0.0002(3)
Ge1 Ge4+ 0.0041(3) 0.0053(3) 0.0038(3) -0.0004(2) 0.0000(2) -0.0002(2)
Ge2 Ge4+ 0.0057(3) 0.0047(3) 0.0075(3) 0.0006(2) 0.0028(2) 0.0013(3)
O1 O2- 0.007(2) 0.013(2) 0.008(2) 0.0010(18) 0.0009(18) -0.0035(19)
O2 O2- 0.007(2) 0.006(2) 0.005(2) 0.0009(15) 0.0021(18) 0.0006(16)
O3 O2- 0.018(2) 0.007(2) 0.008(3) -0.0070(17) 0.000(2) -0.0010(18)
O4 O2- 0.017(2) 0.004(2) 0.006(2) 0.0013(17) 0.002(2) -0.0006(17)
O5 O2- 0.009(2) 0.011(2) 0.005(2) 0.0022(16) 0.004(2) 0.0017(17)
O6 O2- 0.010(2) 0.011(2) 0.007(2) -0.0032(17) 0.0043(19) 0.0007(18)
#End of data_170813-ICSD


