data_65192-ICSD
#?2014 by Fachinformationszentrum Karlsruhe, and the U.S. Secretary of 
#Commerce on behalf of the United States.  All rights reserved.
_database_code_ICSD                65192
_audit_creation_date               1989/12/04
_audit_update_record               2003/10/01
_chemical_name_systematic          'Trirubidium Magnesium Hydride'
_chemical_formula_structural       'Rb3 H (Mg H4)'
_chemical_formula_sum              'H5 Mg1 Rb3'
_publ_section_title
;
Mise en evidence de tetraedres (Mg H4)(2-) dans les phases Cs3 Mg H5 
et Rb3 Mg H5
;
loop_
_citation_id
_citation_journal_abbrev
_citation_year
_citation_journal_volume
_citation_page_first
_citation_page_last
_citation_journal_id_ASTM
primary
;
Comptes Rendus Hebdomadaires des Seances de l`Academie des Sciences, 
Serie 2 (1984-1993)
;
 1988 307 555 558 CRAMED
_publ_author_name                  'Park, H.-H.;Pezat, M.;Darriet, B.'
_cell_length_a                     8.051(2)
_cell_length_b                     8.051(2)
_cell_length_c                     12.348(3)
_cell_angle_alpha                  90.
_cell_angle_beta                   90.
_cell_angle_gamma                  90.
_cell_volume                       800.38
_cell_formula_units_Z              4
_symmetry_space_group_name_H-M     'P 4/n c c S'
_symmetry_Int_Tables_number        130
loop_
_symmetry_equiv_pos_site_id
_symmetry_equiv_pos_as_xyz
  1	'y+.5, x+.5, z+.5'
  2	'y+.5, -x+.5, z'
  3	'-y, -x, -z+.5'
  4	'y, -x, -z'
  5	'-y+.5, -x+.5, z+.5'
  6	'-y+.5, x+.5, z'
  7	'y, x, -z+.5'
  8	'-y, x, -z'
  9	'x+.5, -y+.5, -z+.5'
 10	'-x+.5, -y+.5, -z'
 11	'x, -y, z+.5'
 12	'-x, -y, z'
 13	'-x+.5, y+.5, -z+.5'
 14	'x+.5, y+.5, -z'
 15	'-x, y, z+.5'
 16	'x, y, z'
loop_
_atom_type_symbol
_atom_type_oxidation_number
H1-	-1
Mg2+	2
Rb1+	1
loop_
_atom_site_label
_atom_site_type_symbol
_atom_site_symmetry_multiplicity
_atom_site_Wyckoff_symbol
_atom_site_fract_x
_atom_site_fract_y
_atom_site_fract_z
_atom_site_occupancy
_atom_site_attached_hydrogens
Rb1 Rb1+ 8 f 0.181 0.181 0.25 1. 0 
Rb2 Rb1+ 4 c 0 0.5 0 1. 0 
Mg1 Mg2+ 4 b 0 0 0 1. 0 
H1 H1- 16 g 0.169 -.092 0.088 1. 0 
H2 H1- 4 c 0 0.5 0.25 1. 0 

#End of data_65192-ICSD


