data_201221-ICSD
#?2014 by Fachinformationszentrum Karlsruhe, and the U.S. Secretary of 
#Commerce on behalf of the United States.  All rights reserved.
_database_code_ICSD                201221
_audit_creation_date               1982/12/31
_chemical_name_systematic
;
Tetraselenium Bis(tetrachloroaluminate)
;
_chemical_formula_structural       'Se4 (Al Cl4)2'
_chemical_formula_sum              'Al2 Cl8 Se4'
_publ_section_title
;
Charge-transfer interactions in the square-planar chalcogen cations, 
M4(2+), preparation and crystal structures of the compounds (Se4) 
(Sb2 F4) (Sb2 F5) (Sb F6)5, (Se4) (Al Cl4)2 and (Te4) (Sb F6)2
;
loop_
_citation_id
_citation_journal_abbrev
_citation_year
_citation_journal_volume
_citation_page_first
_citation_page_last
_citation_journal_id_ASTM
primary
;
Journal of the Chemical Society. Dalton Transactions, Inorganic 
Chemistry (1972-)
;
 1982 1982 765 779 JCDTBI
_publ_author_name
;
Cardinal, G.;Gillespie, R.J.;Sawyer, J.F.;Vekris, J.E.
;
_cell_length_a                     13.245(3)
_cell_length_b                     13.223(3)
_cell_length_c                     9.266(2)
_cell_angle_alpha                  90.
_cell_angle_beta                   90.
_cell_angle_gamma                  90.
_cell_volume                       1622.83
_cell_formula_units_Z              4
_symmetry_space_group_name_H-M     'P b a m'
_symmetry_Int_Tables_number        55
_refine_ls_R_factor_all            .042
loop_
_symmetry_equiv_pos_site_id
_symmetry_equiv_pos_as_xyz
  1	'x+.5, -y+.5, z'
  2	'-x+.5, y+.5, z'
  3	'x, y, -z'
  4	'-x, -y, -z'
  5	'-x+.5, y+.5, -z'
  6	'x+.5, -y+.5, -z'
  7	'-x, -y, z'
  8	'x, y, z'
loop_
_atom_type_symbol
_atom_type_oxidation_number
Al3+	3
Cl1-	-1
Se.5+	.5
loop_
_atom_site_label
_atom_site_type_symbol
_atom_site_symmetry_multiplicity
_atom_site_Wyckoff_symbol
_atom_site_fract_x
_atom_site_fract_y
_atom_site_fract_z
_atom_site_occupancy
_atom_site_attached_hydrogens
Se1 Se.5+ 4 e 0 0 0.1741(2) 1. 0 
Se2 Se.5+ 4 g 0.1213(1) 0.0126(1) 0 1. 0 
Se3 Se.5+ 4 f 0 0.5 0.3254(2) 1. 0 
Se4 Se.5+ 4 h 0.0253(1) 0.3803(1) 0.5 1. 0 
Al1 Al3+ 4 h 0.1757(3) 0.1000(4) 0.5 1. 0 
Al2 Al3+ 4 g 0.1164(4) 0.3329(3) 0 1. 0 
Cl1 Cl1- 8 i 0.2118(3) 0.0092(3) 0.6838(3) 1. 0 
Cl2 Cl1- 4 h 0.0191(3) 0.1319(3) 0.5 1. 0 
Cl3 Cl1- 4 h 0.2630(5) 0.2324(5) 0.5 1. 0 
Cl4 Cl1- 8 i 0.0295(3) 0.2887(2) 0.1841(3) 1. 0 
Cl5 Cl1- 4 g 0.1321(3) 0.4934(3) 0 1. 0 
Cl6 Cl1- 4 g 0.2560(5) 0.2593(5) 0 1. 0 

loop_
_atom_site_aniso_label
_atom_site_aniso_type_symbol
_atom_site_aniso_U_11
_atom_site_aniso_U_22
_atom_site_aniso_U_33
_atom_site_aniso_U_12
_atom_site_aniso_U_13
_atom_site_aniso_U_23
Se1 Se.5+ 0.0472(8) 0.0603(9) 0.0270(7) 0.0009(7) 0 0
Se2 Se.5+ 0.0364(8) 0.0556(10) 0.0403(8) -.0012(7) 0 0
Se3 Se.5+ 0.066(1) 0.0389(7) 0.0297(7) 0.0025(7) 0 0
Se4 Se.5+ 0.0667(11) 0.0279(7) 0.0413(8) 0.0070(7) 0 0
Al1 Al3+ 0.038(2) 0.051(3) 0.031(2) 0.000(2) 0 0
Al2 Al3+ 0.055(3) 0.038(2) 0.035(2) 0.004(2) 0 0
Cl1 Cl1- 0.056(2) 0.112(3) 0.035(1) 0.025(2) -.003(1) 0.015(2)
Cl2 Cl1- 0.042(2) 0.035(2) 0.044(2) 0.004(2) 0 0
Cl3 Cl1- 0.070(4) 0.077(4) 0.175(8) -.032(3) 0 0
Cl4 Cl1- 0.125(3) 0.044(1) 0.038(1) -.016(2) 0.105(2) 0.003(1)
Cl5 Cl1- 0.041(2) 0.038(2) 0.049(2) -.004(2) 0 0
Cl6 Cl1- 0.074(4) 0.074(4) 0.178(8) 0.033(3) 0 0
#End of data_201221-ICSD


