data_66995-ICSD
#?2014 by Fachinformationszentrum Karlsruhe, and the U.S. Secretary of 
#Commerce on behalf of the United States.  All rights reserved.
_database_code_ICSD                66995
_audit_creation_date               1999/01/19
_chemical_name_systematic
;
Tripotassium Dioxoneptunium(V) Bis(molybdate(VI))
;
_chemical_formula_structural       'K3 (Np O2) (Mo O4)2'
_chemical_formula_sum              'K3 Mo2 Np1 O10'
_publ_section_title
;
Crystal and molecular structure of neptunium(V) complex molybdate K3 
Np O2 (Mo O4)2
;
loop_
_citation_id
_citation_journal_abbrev
_citation_year
_citation_journal_volume
_citation_journal_issue
_citation_page_first
_citation_page_last
_citation_journal_id_ASTM
primary Radiokhimiya 1992 34 5 7 12 RADKAU
_publ_author_name
;
Grigor'ev, M.S.;Charushnikova, I.A.;Fedoseev, A.M.;Budantseva, 
N.A.;Yanovskii, A.I.;Struchkov, Yu.T.
;
_cell_length_a                     7.363(1)
_cell_length_b                     7.885(1)
_cell_length_c                     10.287(2)
_cell_angle_alpha                  91.40(1)
_cell_angle_beta                   94.30(1)
_cell_angle_gamma                  109.24(2)
_cell_volume                       561.52
_cell_formula_units_Z              2
_symmetry_space_group_name_H-M     'P -1'
_symmetry_Int_Tables_number        2
_refine_ls_R_factor_all            .025
loop_
_symmetry_equiv_pos_site_id
_symmetry_equiv_pos_as_xyz
  1	'-x, -y, -z'
  2	'x, y, z'
loop_
_atom_type_symbol
_atom_type_oxidation_number
K1+	1
Mo6+	6
Np5+	5
O2-	-2
loop_
_atom_site_label
_atom_site_type_symbol
_atom_site_symmetry_multiplicity
_atom_site_Wyckoff_symbol
_atom_site_fract_x
_atom_site_fract_y
_atom_site_fract_z
_atom_site_occupancy
_atom_site_attached_hydrogens
_atom_site_B_iso_or_equiv
Np1 Np5+ 2 i 0.14551(3) 0.29604(3) 0.26013(2) 1. 0 0.680(4) 
Mo1 Mo6+ 2 i 0.30143(7) 0.62839(7) 0.57482(5) 1. 0 0.939(9) 
Mo2 Mo6+ 2 i 0.25000(8) 0.10877(7) -.06388(5) 1. 0 1.015(9) 
K1 K1+ 2 i 0.7188(2) 0.3855(2) 0.0712(2) 1. 0 1.89(3) 
K2 K1+ 2 i 0.2124(2) -.1633(2) 0.2334(2) 1. 0 1.83(3) 
K3 K1+ 2 i -.2676(2) -.1181(3) 0.4056(2) 1. 0 2.29(3) 
O1 O2- 2 i 0.1765(7) 0.4999(6) 0.1702(5) 1. 0 1.56(9) 
O2 O2- 2 i 0.1003(7) 0.0835(6) 0.3451(5) 1. 0 1.33(9) 
O3 O2- 2 i 0.1706(7) 0.4242(7) 0.4868(5) 1. 0 1.67(9) 
O4 O2- 2 i 0.3662(9) 0.8022(8) 0.4679(6) 1. 0 2.7(1) 
O5 O2- 2 i 0.5123(7) 0.6048(8) 0.6546(6) 1. 0 2.2(1) 
O6 O2- 2 i 0.1667(7) 0.6892(7) 0.6929(5) 1. 0 1.8(1) 
O7 O2- 2 i 0.0870(7) -.1191(6) -.0781(5) 1. 0 1.46(9) 
O8 O2- 2 i 0.3199(7) 0.1943(7) 0.1010(5) 1. 0 1.51(9) 
O9 O2- 2 i 0.1624(8) 0.2530(7) -.1569(5) 1. 0 1.9(1) 
O10 O2- 2 i 0.4592(8) 0.1101(8) -.1313(6) 1. 0 2.3(1) 

#End of data_66995-ICSD


