data_169481-ICSD
#?2014 by Fachinformationszentrum Karlsruhe, and the U.S. Secretary of 
#Commerce on behalf of the United States.  All rights reserved.
_database_code_ICSD                169481
_audit_creation_date               2011/08/01
_chemical_name_systematic          'Potassium Aluminate'
_chemical_formula_structural       'K (Al O2)'
_chemical_formula_sum              'Al1 K1 O2'
_publ_section_title
;
Conduction mechanism in the low-temperature phase of K Al O2
;
loop_
_citation_id
_citation_journal_abbrev
_citation_year
_citation_journal_volume
_citation_journal_issue
_citation_page_first
_citation_page_last
_citation_journal_id_ASTM
primary 'Neorganicheskie Materialy' 2010 46 11 1360 1367 NMATEI
2 'Inorganic Materials' 2010 46 11 1234 1241 INOMAF
_publ_author_name
;
Voronin, V.I.;Surkova, M.G.;Shekhtman, G.Sh.;Anurova, N.A.;Blatov, 
V.A.
;
_cell_length_a                     5.4389(1)
_cell_length_b                     10.9235(2)
_cell_length_c                     15.4563(2)
_cell_angle_alpha                  90.
_cell_angle_beta                   90.
_cell_angle_gamma                  90.
_cell_volume                       918.29
_cell_formula_units_Z              16
_symmetry_space_group_name_H-M     'P b c a'
_symmetry_Int_Tables_number        61
loop_
_symmetry_equiv_pos_site_id
_symmetry_equiv_pos_as_xyz
  1	'x+.5, y, -z+.5'
  2	'x, -y+.5, z+.5'
  3	'-x+.5, y+.5, z'
  4	'-x, -y, -z'
  5	'-x+.5, -y, z+.5'
  6	'-x, y+.5, -z+.5'
  7	'x+.5, -y+.5, -z'
  8	'x, y, z'
loop_
_atom_type_symbol
_atom_type_oxidation_number
Al3+	3
K1+	1
O2-	-2
loop_
_atom_site_label
_atom_site_type_symbol
_atom_site_symmetry_multiplicity
_atom_site_Wyckoff_symbol
_atom_site_fract_x
_atom_site_fract_y
_atom_site_fract_z
_atom_site_occupancy
_atom_site_attached_hydrogens
_atom_site_B_iso_or_equiv
K1 K1+ 8 c 0.7482(9) 0.0079(5) 0.0596(6) 1. 0 1.07(6) 
K2 K1+ 8 c 0.7945(8) 0.2595(4) 0.1849(4) 1. 0 1.07(6) 
Al1 Al3+ 8 c 0.2603(9) 0.0068(4) 0.1867(6) 1. 0 0.48(4) 
Al2 Al3+ 8 c 0.2788(7) 0.2612(5) 0.0648(5) 1. 0 0.48(4) 
O1 O2- 8 c 0.5694(6) 0.2846(3) 0.0166(2) 1. 0 0.95(6) 
O2 O2- 8 c 0.1784(7) 0.4017(3) 0.1061(2) 1. 0 0.45(6) 
O3 O2- 8 c 0.2993(6) 0.1557(3) 0.1479(2) 1. 0 1.04(6) 
O4 O2- 8 c 0.0516(7) 0.4862(3) 0.2782(3) 1. 0 0.71(6) 

#End of data_169481-ICSD


