data_154791-ICSD
#?2014 by Fachinformationszentrum Karlsruhe, and the U.S. Secretary of 
#Commerce on behalf of the United States.  All rights reserved.
_database_code_ICSD                154791
_audit_creation_date               2007/04/01
_chemical_name_systematic          'Erbium Silver Telluride'
_chemical_formula_structural       'Er Ag Te2'
_chemical_formula_sum              'Ag1 Er1 Te2'
_publ_section_title
;
Crystal structure of the R Ag Te2 (R = Y, Tb, Dy, Ho and Er) 
compounds
;
loop_
_citation_id
_citation_journal_abbrev
_citation_year
_citation_journal_volume
_citation_page_first
_citation_page_last
_citation_journal_id_ASTM
primary 'Journal of Alloys and Compounds' 2006 424 159 163 JALCEU
_publ_author_name
;
Gulay, L.D.;Olekseyuk, I.D.;Pietraszko, A.
;
_cell_length_a                     7.091(1)
_cell_length_b                     7.091(1)
_cell_length_c                     4.5650(9)
_cell_angle_alpha                  90.
_cell_angle_beta                   90.
_cell_angle_gamma                  90.
_cell_volume                       229.54
_cell_formula_units_Z              2
_symmetry_space_group_name_H-M     'P -4 21 m'
_symmetry_Int_Tables_number        113
_refine_ls_R_factor_all            .0366
loop_
_symmetry_equiv_pos_site_id
_symmetry_equiv_pos_as_xyz
  1	'-y+.5, -x+.5, z'
  2	'y, -x, -z'
  3	'y+.5, x+.5, z'
  4	'-y, x, -z'
  5	'x+.5, -y+.5, -z'
  6	'-x, -y, z'
  7	'-x+.5, y+.5, -z'
  8	'x, y, z'
loop_
_atom_type_symbol
_atom_type_oxidation_number
Ag1+	1
Er3+	3
Te2-	-2
loop_
_atom_site_label
_atom_site_type_symbol
_atom_site_symmetry_multiplicity
_atom_site_Wyckoff_symbol
_atom_site_fract_x
_atom_site_fract_y
_atom_site_fract_z
_atom_site_occupancy
_atom_site_attached_hydrogens
_atom_site_U_iso_or_equiv
Er1 Er3+ 2 c 0 0.5 0.7971(3) 1. 0 0.0191(6) 
Ag1 Ag1+ 2 a 0 0 0 1. 0 0.0352(8) 
Te1 Te2- 4 e 0.7972(1) 0.2972(1) 0.2873(4) 1. 0 0.0204(6) 

loop_
_atom_site_aniso_label
_atom_site_aniso_type_symbol
_atom_site_aniso_U_11
_atom_site_aniso_U_22
_atom_site_aniso_U_33
_atom_site_aniso_U_12
_atom_site_aniso_U_13
_atom_site_aniso_U_23
Er1 Er3+ 0.0205(6) 0.0205(6) 0.0165(9) 0.0006(5) 0.0000 0.0000
Ag1 Ag1+ 0.036(1) 0.036(1) 0.033(1) 0.000 0.000 0.000
Te1 Te2- 0.0215(6) 0.0215(6) 0.0183(9) -0.0038(6) -0.0006(4) -0.0006(4)
#End of data_154791-ICSD


