data_246363-ICSD
#?2014 by Fachinformationszentrum Karlsruhe, and the U.S. Secretary of 
#Commerce on behalf of the United States.  All rights reserved.
_database_code_ICSD                246363
_audit_creation_date               2009/08/01
_chemical_name_systematic          'Tribarium Sodium Diiridate(V/VI)'
_chemical_formula_structural       'Ba3 Na (Ir2 O9)'
_chemical_formula_sum              'Ba3 Ir2 Na1 O9'
_publ_section_title
;
Low temperature structural phase transition of Ba3 Na Ir2 O9
;
loop_
_citation_id
_citation_journal_abbrev
_citation_year
_citation_journal_volume
_citation_journal_issue
_citation_page_first
_citation_page_last
_citation_journal_id_ASTM
primary 'Solid State Sciences' 2009 11 3 608 613 SSSCFJ
_publ_author_name
;
zur Loye, H.C.;Kim Seung-Joo;Macquart, R.;Smith, M.D.;Lee Yong 
Jae;Vogt, T.
;
_cell_length_a                     5.8613(2)
_cell_length_b                     10.1365(4)
_cell_length_c                     14.5917(2)
_cell_angle_alpha                  90.
_cell_angle_beta                   91.114(3)
_cell_angle_gamma                  90.
_cell_volume                       866.77
_cell_formula_units_Z              4
_symmetry_space_group_name_H-M     'C 1 2/c 1'
_symmetry_Int_Tables_number        15
_refine_ls_R_factor_all            .0456
loop_
_symmetry_equiv_pos_site_id
_symmetry_equiv_pos_as_xyz
  1	'x, -y, z+.5'
  2	'-x, -y, -z'
  3	'-x, y, -z+.5'
  4	'x, y, z'
  5	'x+.5, -y+.5, z+.5'
  6	'-x+.5, -y+.5, -z'
  7	'-x+.5, y+.5, -z+.5'
  8	'x+.5, y+.5, z'
loop_
_atom_type_symbol
_atom_type_oxidation_number
Ba2+	2
Ir5.5+	5.5
Na1+	1
O2-	-2
loop_
_atom_site_label
_atom_site_type_symbol
_atom_site_symmetry_multiplicity
_atom_site_Wyckoff_symbol
_atom_site_fract_x
_atom_site_fract_y
_atom_site_fract_z
_atom_site_occupancy
_atom_site_attached_hydrogens
_atom_site_B_iso_or_equiv
Ba1 Ba2+ 8 f 0.9944(8) 0.6694(8) 0.9142(3) 1. 0 0.46(8) 
Ba2 Ba2+ 4 e 0 0.9974(8) 0.25 1. 0 0.3(1) 
Ir1 Ir5.5+ 8 f 0.0107(5) 0.6656(5) 0.1569(2) 1. 0 0.20(4) 
Na1 Na1+ 4 a 0 0 0 1. 0 0.5 
O1 O2- 8 f 0.249(8) 0.226(5) 0.239(3) 1. 0 0.5 
O2 O2- 4 e 0 0.533(7) 0.25 1. 0 0.5 
O3 O2- 8 f 0.725(9) 0.101(5) 0.414(3) 1. 0 0.5 
O4 O2- 8 f 0.966(9) 0.843(5) 0.412(3) 1. 0 0.5 
O5 O2- 8 f 0.227(9) 0.898(5) 0.895(3) 1. 0 0.5 

#End of data_246363-ICSD


