data_94227-ICSD
#?2014 by Fachinformationszentrum Karlsruhe, and the U.S. Secretary of 
#Commerce on behalf of the United States.  All rights reserved.
_database_code_ICSD                94227
_audit_creation_date               2003/10/01
_chemical_name_systematic
;
Barium Thulium Zinc Oxide (5/8/4/21)
;
_chemical_formula_structural       'Ba5 Tm8 Zn4 O21'
_chemical_formula_sum              'Ba5 O21 Tm8 Zn4'
_publ_section_title
;
Crystallographic studies and X-ray diffraction patterns of Ba5 R8 Zn4 
O21 by Rietveld refinements
;
loop_
_citation_id
_citation_journal_abbrev
_citation_year
_citation_journal_volume
_citation_journal_issue
_citation_page_first
_citation_page_last
_citation_journal_id_ASTM
primary 'Powder Diffraction' 2001 16 3 131 143 PODIE2
_publ_author_name
;
Wong-Ng, W.;Kaduk, J.A.;Dillingham, J.
;
_cell_length_a                     13.67323(6)
_cell_length_b                     13.67323(6)
_cell_length_c                     5.67492(4)
_cell_angle_alpha                  90
_cell_angle_beta                   90
_cell_angle_gamma                  90
_cell_volume                       1060.97
_cell_formula_units_Z              2
_symmetry_space_group_name_H-M     'I 4/m'
_symmetry_Int_Tables_number        87
_refine_ls_R_factor_all            .0233
loop_
_symmetry_equiv_pos_site_id
_symmetry_equiv_pos_as_xyz
  1	'-y, x, -z'
  2	'y, -x, -z'
  3	'x, y, -z'
  4	'-x, -y, -z'
  5	'y, -x, z'
  6	'-y, x, z'
  7	'-x, -y, z'
  8	'x, y, z'
  9	'-y+.5, x+.5, -z+.5'
 10	'y+.5, -x+.5, -z+.5'
 11	'x+.5, y+.5, -z+.5'
 12	'-x+.5, -y+.5, -z+.5'
 13	'y+.5, -x+.5, z+.5'
 14	'-y+.5, x+.5, z+.5'
 15	'-x+.5, -y+.5, z+.5'
 16	'x+.5, y+.5, z+.5'
loop_
_atom_type_symbol
_atom_type_oxidation_number
Ba2+	2
O2-	-2
Tm3+	3
Zn2+	2
loop_
_atom_site_label
_atom_site_type_symbol
_atom_site_symmetry_multiplicity
_atom_site_Wyckoff_symbol
_atom_site_fract_x
_atom_site_fract_y
_atom_site_fract_z
_atom_site_occupancy
_atom_site_attached_hydrogens
_atom_site_U_iso_or_equiv
Tm1 Tm3+ 8 h 0.2483(1) 0.1682(1) 0 1. 0 0.0013(3) 
Tm2 Tm3+ 8 h 0.4119(1) 0.3577(1) 0 1. 0 0.0013(3) 
Ba1 Ba2+ 2 a 0 0 0 1. 0 0.0044(4) 
Ba2 Ba2+ 8 h 0.5357(1) 0.1403(1) 0 1. 0 0.0044(4) 
Zn1 Zn2+ 8 h 0.0402(3) 0.2504(3) 0 1. 0 0.0010(8) 
O1 O2- 2 b 0.5 0.5 0 1. 0 0.0065(15) 
O2 O2- 8 h 0.6319(12) 0.9621(12) 0 1. 0 0.0065(15) 
O3 O2- 16 i 0.6770(12) 0.5490(7) 0.7456(24) 1. 0 0.0065(15) 
O4 O2- 16 i 0.3523(9) 0.2439(7) 0.2451(22) 1. 0 0.0065(15) 

#End of data_94227-ICSD


