data_401203-ICSD
#?2014 by Fachinformationszentrum Karlsruhe, and the U.S. Secretary of 
#Commerce on behalf of the United States.  All rights reserved.
_database_code_ICSD                401203
_audit_creation_date               1995/10/17
_audit_update_record               2000/07/15
_chemical_name_systematic          'Tripotassium Calcium Pentavanadate'
_chemical_formula_structural       'K3 Ca (V5 O15)'
_chemical_formula_sum              'Ca1 K3 O15 V5'
_publ_section_title
;
Ein Beitrag zur Kristallchemie der Alkali-Erdalkali-Oxovanadate: 
Synthese und Struktur von K3 Ca V5 O15
;
loop_
_citation_id
_citation_journal_abbrev
_citation_year
_citation_journal_volume
_citation_page_first
_citation_page_last
_citation_journal_id_ASTM
primary 'Zeitschrift fuer Naturforschung, B: Chemical Sciences'
 1995 50 243 246 ZNBSEN
_publ_author_name                  'Martin, F.D.;Mueller Buschbaum, H.'
_cell_length_a                     25.9530(50)
_cell_length_b                     15.688(3)
_cell_length_c                     7.804(4)
_cell_angle_alpha                  90.
_cell_angle_beta                   90.
_cell_angle_gamma                  90.
_cell_volume                       3177.4
_cell_formula_units_Z              8
_symmetry_space_group_name_H-M     'C m m a'
_symmetry_Int_Tables_number        67
_refine_ls_R_factor_all            .039
loop_
_symmetry_equiv_pos_site_id
_symmetry_equiv_pos_as_xyz
  1	'x+.5, y, -z'
  2	'x+.5, -y, z'
  3	'-x, y, z'
  4	'-x, -y, -z'
  5	'-x+.5, -y, z'
  6	'-x+.5, y, -z'
  7	'x, -y, -z'
  8	'x, y, z'
  9	'x, y+.5, -z'
 10	'x, -y+.5, z'
 11	'-x+.5, y+.5, z'
 12	'-x+.5, -y+.5, -z'
 13	'-x, -y+.5, z'
 14	'-x, y+.5, -z'
 15	'x+.5, -y+.5, -z'
 16	'x+.5, y+.5, z'
loop_
_atom_type_symbol
_atom_type_oxidation_number
Ca2+	2
K1+	1
O2-	-2
V5+	5
loop_
_atom_site_label
_atom_site_type_symbol
_atom_site_symmetry_multiplicity
_atom_site_Wyckoff_symbol
_atom_site_fract_x
_atom_site_fract_y
_atom_site_fract_z
_atom_site_occupancy
_atom_site_attached_hydrogens
K1 K1+ 8 m 0 0.38167(3) 0.20997(7) 1. 0 
K2 K1+ 8 n 0.15353(2) 0.75 0.94447(6) 1. 0 
K3 K1+ 8 i 0.836790(14) 0.5 0.5 1. 0 
Ca1 Ca2+ 8 h 0.15481(1) 0.5 0 1. 0 
V1 V5+ 16 o 0.248580(7) 0.639660(9) 0.27576(2) 1. 0 
V2 V5+ 16 o 0.933220(6) 0.589870(11) 0.22403(2) 1. 0 
V3 V5+ 8 n 0.902830(11) 0.75 0.51762(3) 1. 0 
O1 O2- 8 k 0.25 0.11423(7) 0.5 1. 0 
O2 O2- 16 o 0.19765(3) 0.59217(5) 0.19647(10) 1. 0 
O3 O2- 16 o 0.30044(3) 0.59859(5) 0.18629(10) 1. 0 
O4 O2- 8 n 0.24484(4) 0.75 0.21995(13) 1. 0 
O5 O2- 8 m 0 0.57083(11) 0.1905(3) 1. 0 
O6 O2- 16 o 0.90562(3) 0.49595(5) 0.24807(11) 1. 0 
O7 O2- 16 o 0.90852(4) 0.62657(6) 0.04503(12) 1. 0 
O8 O2- 16 o 0.92065(5) 0.65435(7) 0.40316(14) 1. 0 
O9 O2- 8 n 0.93340(6) 0.75 0.7017(2) 1. 0 
O10 O2- 8 n 0.84195(6) 0.75 0.5570(2) 1. 0 

#End of data_401203-ICSD


