data_247317-ICSD
#?2014 by Fachinformationszentrum Karlsruhe, and the U.S. Secretary of 
#Commerce on behalf of the United States.  All rights reserved.
_database_code_ICSD                247317
_audit_creation_date               2011/02/01
_chemical_name_systematic          'Sodium Niobate(V)'
_chemical_formula_structural       'Na (Nb O3)'
_chemical_formula_sum              'Na1 Nb1 O3'
_publ_section_title
;
The polar phase of Na Nb O3: A combined study by powder diffraction, 
solid-state NMR, and first-principles calculations
;
loop_
_citation_id
_citation_journal_abbrev
_citation_year
_citation_journal_volume
_citation_journal_issue
_citation_page_first
_citation_page_last
_citation_journal_id_ASTM
primary 'Journal of the American Chemical Society' 2010 132 25 8732 8746 JACSAT
_publ_author_name
;
Johnston, K.E.;Tang, C.C.;Parker, J.E.;Knight, K.S.;Lightfoot, 
P.;Ashbrook, S.E.
;
_cell_length_a                     5.570(1)
_cell_length_b                     7.766(1)
_cell_length_c                     5.513(1)
_cell_angle_alpha                  90.
_cell_angle_beta                   90.
_cell_angle_gamma                  90.
_cell_volume                       238.47
_cell_formula_units_Z              4
_symmetry_space_group_name_H-M     'P n m 21'
_symmetry_Int_Tables_number        31
_refine_ls_R_factor_all            .078
loop_
_symmetry_equiv_pos_site_id
_symmetry_equiv_pos_as_xyz
  1	'-x, y+.5, z+.5'
  2	'-x, -y+.5, z+.5'
  3	'x, -y, z'
  4	'x, y, z'
loop_
_atom_type_symbol
_atom_type_oxidation_number
Na1+	1
Nb5+	5
O2-	-2
loop_
_atom_site_label
_atom_site_type_symbol
_atom_site_symmetry_multiplicity
_atom_site_Wyckoff_symbol
_atom_site_fract_x
_atom_site_fract_y
_atom_site_fract_z
_atom_site_occupancy
_atom_site_attached_hydrogens
_atom_site_U_iso_or_equiv
Nb1 Nb5+ 4 b 0.2462(8) 0.2513(5) -0.0015(13) 1. 0 0.0202(6) 
Na1 Na1+ 2 a 0.7550(13) 0.5 0.0015(11) 1. 0 0.0034(9) 
Na2 Na1+ 2 a -0.2259(26) 0 -0.0053(28) 1. 0 0.0702(31) 
O1 O2- 2 a 0.7724(15) 0.5 0.5516(16) 1. 0 0.0483(21) 
O2 O2- 2 a -0.2528(10) 0 -0.5666(10) 1. 0 0.0091(8) 
O3 O2- 4 b 0.4572(7) 0.2802(6) 0.2927(9) 1. 0 0.0240(9) 
O4 O2- 4 b 0.0178(9) 0.2198(8) -0.2626(10) 1. 0 0.0474(17) 

#End of data_247317-ICSD


