data_710008-ICSD
#?2014 by Fachinformationszentrum Karlsruhe, and the U.S. Secretary of 
#Commerce on behalf of the United States.  All rights reserved.
_database_code_ICSD                710008
_audit_creation_date               2010/02/01
_chemical_name_systematic
;
Dithallium Hexaaquamagnesium(II) Bis(selenate(VI))
;
_chemical_formula_structural       'Tl2 (Mg (H2 O)6) (Se O4)2'
_chemical_formula_sum              'H12 Mg1 O14 Se2 Tl2'
_publ_section_title
;
Crystal structure of Tutton¡§s salts Tl2 [M(II) (H2 O)6] (Se O4)2, 
M(II) = Mg, Mn, Co, Ni, Cu, Zn
;
loop_
_citation_id
_citation_journal_abbrev
_citation_year
_citation_journal_volume
_citation_journal_issue
_citation_page_first
_citation_page_last
_citation_journal_id_ASTM
primary 'Zeitschrift fuer Kristallographie - New Crystal Structures'
 2009 224 3 360 364 ZKNSFT
_publ_author_name
;
Euler, H.;Barbier, B.;Meents, A.;Kirfel, A.
;
_cell_length_a                     9.434(2)
_cell_length_b                     12.634(2)
_cell_length_c                     6.2924(14)
_cell_angle_alpha                  90.00
_cell_angle_beta                   105.719(17)
_cell_angle_gamma                  90.00
_cell_volume                       721.94
_cell_formula_units_Z              2
_symmetry_space_group_name_H-M     'P 1 21/a 1'
_symmetry_Int_Tables_number        14
_refine_ls_R_factor_all            .0284
loop_
_symmetry_equiv_pos_site_id
_symmetry_equiv_pos_as_xyz
  1	'x+.5, -y+.5, z'
  2	'-x, -y, -z'
  3	'-x+.5, y+.5, -z'
  4	'x, y, z'
loop_
_atom_type_symbol
_atom_type_oxidation_number
H1+	1
Mg2+	2
O2-	-2
Se6+	6
Tl1+	1
loop_
_atom_site_label
_atom_site_type_symbol
_atom_site_symmetry_multiplicity
_atom_site_Wyckoff_symbol
_atom_site_fract_x
_atom_site_fract_y
_atom_site_fract_z
_atom_site_occupancy
_atom_site_attached_hydrogens
_atom_site_U_iso_or_equiv
Mg1 Mg2+ 2 a 0.0000 0.0000 0.0000 1 0 0.0215(7) 
Se1 Se6+ 4 e 0.40864(7) 0.13604(5) 0.73849(12) 1 0 0.02396(17) 
O1 O2- 4 e 0.4142(6) 0.2354(4) 0.5736(10) 1 0 0.0415(14) 
O2 O2- 4 e 0.5615(6) 0.0704(5) 0.7843(11) 1 0 0.0519(17) 
O3 O2- 4 e 0.2743(5) 0.0590(4) 0.6108(9) 1 0 0.0304(11) 
O4 O2- 4 e 0.3796(6) 0.1795(4) 0.9694(9) 1 0 0.0370(13) 
O5 O2- 4 e 0.1638(5) 0.1025(4) 0.1655(9) 1 0 0.0303(12) 
O6 O2- 4 e -0.1603(5) 0.1096(4) 0.0260(9) 1 0 0.0291(12) 
O7 O2- 4 e -0.0078(5) -0.0667(4) 0.2915(9) 1 0 0.0304(12) 
Tl1 Tl1+ 4 e 0.13099(3) 0.34841(2) 0.35091(6) 1 0 0.03840(12) 
H1 H1+ 4 e 0.2005 0.0891 0.2837 1 0 0.047(12) 
H2 H1+ 4 e 0.2173 0.1207 0.1119 1 0 0.047(12) 
H3 H1+ 4 e -0.2442 0.0999 -0.0470 1 0 0.047(12) 
H4 H1+ 4 e -0.1464 0.1653 0.0056 1 0 0.047(12) 
H5 H1+ 4 e -0.0725 -0.0588 0.3285 1 0 0.047(12) 
H6 H1+ 4 e 0.0215 -0.1266 0.3350 1 0 0.047(12) 

loop_
_atom_site_aniso_label
_atom_site_aniso_type_symbol
_atom_site_aniso_U_11
_atom_site_aniso_U_22
_atom_site_aniso_U_33
_atom_site_aniso_U_12
_atom_site_aniso_U_13
_atom_site_aniso_U_23
Mg1 Mg2+ 0.0156(17) 0.0232(15) 0.025(2) 0.0006(12) 0.0043(15) 0.0008(13)
Se1 Se6+ 0.0206(3) 0.0253(3) 0.0261(4) -0.0029(3) 0.0065(3) -0.0030(3)
O1 O2- 0.053(3) 0.038(3) 0.033(3) -0.010(3) 0.009(3) 0.005(3)
O2 O2- 0.027(3) 0.062(4) 0.062(5) 0.002(3) 0.003(3) -0.012(4)
O3 O2- 0.024(3) 0.036(3) 0.031(3) -0.007(2) 0.008(2) -0.006(3)
O4 O2- 0.051(3) 0.038(3) 0.022(3) -0.005(3) 0.010(3) -0.005(2)
O5 O2- 0.030(3) 0.037(3) 0.025(3) -0.012(2) 0.010(2) -0.009(2)
O6 O2- 0.025(3) 0.027(2) 0.039(3) 0.005(2) 0.015(2) 0.003(2)
O7 O2- 0.037(3) 0.026(2) 0.033(3) 0.004(2) 0.018(3) 0.004(2)
Tl1 Tl1+ 0.03941(18) 0.03915(18) 0.03845(19) -0.00136(16) 0.01367(14) 
0.00130(16)
#End of data_710008-ICSD


