data_79493-ICSD
#?2014 by Fachinformationszentrum Karlsruhe, and the U.S. Secretary of 
#Commerce on behalf of the United States.  All rights reserved.
_database_code_ICSD                79493
_audit_creation_date               1996/10/14
_chemical_name_systematic          'Dilanthanum Irido(IV)zincate'
_chemical_formula_structural       'La2 (Ir Zn O6)'
_chemical_formula_sum              'Ir1 La2 O6 Zn1'
_publ_section_title
;
The structure and magnetic properties of La2 M Ir O6 with M=Mg,Co,Ni, 
and Zn
;
loop_
_citation_id
_citation_journal_abbrev
_citation_year
_citation_journal_volume
_citation_page_first
_citation_page_last
_citation_journal_id_ASTM
primary 'Journal of Solid State Chemistry' 1995 116 199 204 JSSCBI
2 'Materials Research Bulletin' 1987 22 535 542 MRBUAC
_publ_author_name
;
Currie, R.C.;Vente, J.F.;Frikkee, E.;Ijdo, D.J.W.
;
_cell_length_a                     5.5986(4)
_cell_length_b                     5.6869(4)
_cell_length_c                     7.9405(6)
_cell_angle_alpha                  90.
_cell_angle_beta                   89.99(5)
_cell_angle_gamma                  90.
_cell_volume                       252.82
_cell_formula_units_Z              2
_symmetry_space_group_name_H-M     'P 1 21/n 1'
_symmetry_Int_Tables_number        14
_refine_ls_R_factor_all            .116
loop_
_symmetry_equiv_pos_site_id
_symmetry_equiv_pos_as_xyz
  1	'-x+.5, y+.5, -z+.5'
  2	'-x, -y, -z'
  3	'x+.5, -y+.5, z+.5'
  4	'x, y, z'
loop_
_atom_type_symbol
_atom_type_oxidation_number
Ir4+	4
La3+	3
O2-	-2
Zn2+	2
loop_
_atom_site_label
_atom_site_type_symbol
_atom_site_symmetry_multiplicity
_atom_site_Wyckoff_symbol
_atom_site_fract_x
_atom_site_fract_y
_atom_site_fract_z
_atom_site_occupancy
_atom_site_attached_hydrogens
_atom_site_U_iso_or_equiv
La1 La3+ 4 e 0.505(1) 0.5467(4) 0.2504(6) 1. 0 0.0046(7) 
Zn1 Zn2+ 2 c 0 0.5 0 1. 0 0.0046(7) 
Ir1 Ir4+ 2 d 0.5 0 0 1. 0 0.0046(7) 
O1 O2- 4 e 0.22 0.195 0.96 1. 0 0.004(5) 
O2 O2- 4 e 0.3 0.716 0.96 1. 0 0.004(5) 
O3 O2- 4 e 0.42 0.98 0.24 1. 0 0.004(5) 

#End of data_79493-ICSD


