data_72193-ICSD
#?2014 by Fachinformationszentrum Karlsruhe, and the U.S. Secretary of 
#Commerce on behalf of the United States.  All rights reserved.
_database_code_ICSD                72193
_audit_creation_date               1994/01/19
_chemical_name_systematic          'Barium Dizinc Bis(borate)'
_chemical_formula_structural       'Ba Zn2 (B O3)2'
_chemical_formula_sum              'B2 Ba1 O6 Zn2'
_publ_section_title
;
The noncentrosymmetric orthoborate BaZn2(BO3)2
;
loop_
_citation_id
_citation_journal_abbrev
_citation_year
_citation_journal_volume
_citation_page_first
_citation_page_last
_citation_journal_id_ASTM
primary 'Journal of Solid State Chemistry' 1992 100 325 330 JSSCBI
_publ_author_name                  'Smith, R.W.;Keszler, D.A.'
_cell_length_a                     9.305(3)
_cell_length_b                     12.128(1)
_cell_length_c                     4.9255(8)
_cell_angle_alpha                  90.
_cell_angle_beta                   90.
_cell_angle_gamma                  90.
_cell_volume                       555.85
_cell_formula_units_Z              4
_symmetry_space_group_name_H-M     'P 21 21 21'
_symmetry_Int_Tables_number        19
_refine_ls_R_factor_all            .024
loop_
_symmetry_equiv_pos_site_id
_symmetry_equiv_pos_as_xyz
  1	'-x, y+.5, -z+.5'
  2	'x+.5, -y+.5, -z'
  3	'-x+.5, -y, z+.5'
  4	'x, y, z'
loop_
_atom_type_symbol
_atom_type_oxidation_number
B3+	3
Ba2+	2
O2-	-2
Zn2+	2
loop_
_atom_site_label
_atom_site_type_symbol
_atom_site_symmetry_multiplicity
_atom_site_Wyckoff_symbol
_atom_site_fract_x
_atom_site_fract_y
_atom_site_fract_z
_atom_site_occupancy
_atom_site_attached_hydrogens
_atom_site_B_iso_or_equiv
Ba1 Ba2+ 4 a 0.39607(5) 0.22892(3) 0.0310(1) 1. 0 1.04(2) 
Zn1 Zn2+ 4 a 0.36945(8) 0.89488(6) 0.0452(2) 1. 0 0.89(3) 
Zn2 Zn2+ 4 a 0.6588(1) 0.03145(7) 0.9474(2) 1. 0 0.99(3) 
B1 B3+ 4 a 0.4098(8) 0.0059(6) 0.558(2) 1. 0 0.7(2) 
B2 B3+ 4 a 0.6663(8) 0.1669(6) 0.464(2) 1. 0 0.9(3) 
O1 O2- 4 a 0.5931(6) 0.2475(4) 0.595(1) 1. 0 1.3(2) 
O2 O2- 4 a 0.3335(5) 0.0932(4) 0.460(1) 1. 0 1.3(2) 
O3 O2- 4 a 0.2513(6) 0.4061(5) 0.380(1) 1. 0 1.1(2) 
O4 O2- 4 a 0.4602(6) 0.0113(5) 0.827(1) 1. 0 1.2(2) 
O5 O2- 4 a 0.5653(7) 0.4128(5) 0.086(1) 1. 0 1.9(2) 
O6 O2- 4 a 0.6683(6) 0.1569(5) 0.192(1) 1. 0 1.1(2) 

#End of data_72193-ICSD


