data_290223-ICSD
#?2014 by Fachinformationszentrum Karlsruhe, and the U.S. Secretary of 
#Commerce on behalf of the United States.  All rights reserved.
_database_code_ICSD                290223
_audit_creation_date               2013/08/01
_chemical_name_systematic          'Magnesium Silicate'
_chemical_formula_structural       'Mg Si O3'
_chemical_formula_sum              'Mg1 O3 Si1'
_chemical_name_mineral             Orthoenstatite
_publ_section_title
;
Re-investigation of the crystal structure of enstatite under high-
pressure conditions
;
loop_
_citation_id
_citation_journal_abbrev
_citation_year
_citation_journal_volume
_citation_journal_issue
_citation_page_first
_citation_page_last
_citation_journal_id_ASTM
primary 'American Mineralogist' 2012 97 10 1741 1748 AMMIAY
_publ_author_name
;
Periotto, B.;Balic-Zunic, T.;Nestola, F.;Katerinopoulou, A.;Angel, 
R.J.
;
_cell_length_a                     17.916(3)
_cell_length_b                     8.590(2)
_cell_length_c                     5.0726(4)
_cell_angle_alpha                  90.
_cell_angle_beta                   90.
_cell_angle_gamma                  90.
_cell_volume                       780.67
_cell_formula_units_Z              16
_symmetry_space_group_name_H-M     'P b c a'
_symmetry_Int_Tables_number        61
_refine_ls_R_factor_all            .046
loop_
_symmetry_equiv_pos_site_id
_symmetry_equiv_pos_as_xyz
  1	'x+.5, y, -z+.5'
  2	'x, -y+.5, z+.5'
  3	'-x+.5, y+.5, z'
  4	'-x, -y, -z'
  5	'-x+.5, -y, z+.5'
  6	'-x, y+.5, -z+.5'
  7	'x+.5, -y+.5, -z'
  8	'x, y, z'
loop_
_atom_type_symbol
_atom_type_oxidation_number
Mg2+	2
O2-	-2
Si4+	4
loop_
_atom_site_label
_atom_site_type_symbol
_atom_site_symmetry_multiplicity
_atom_site_Wyckoff_symbol
_atom_site_fract_x
_atom_site_fract_y
_atom_site_fract_z
_atom_site_occupancy
_atom_site_attached_hydrogens
_atom_site_U_iso_or_equiv
Mg1 Mg2+ 8 c 0.3774(1) 0.4828(2) 0.3474(3) 1. 0 0.0087(6) 
Mg2 Mg2+ 8 c 0.3763(1) 0.6571(2) 0.8548(3) 1. 0 0.0063(6) 
Si1 Si4+ 8 c 0.27106(9) 0.3440(2) 0.0386(2) 1. 0 0.0054(5) 
Si2 Si4+ 8 c 0.47249(9) 0.3376(2) 0.0048(5) 1. 0 0.0048(5) 
O1 O2- 8 c 0.1818(2) 0.3400(5) 0.0214(6) 1. 0 0.0063(9) 
O2 O2- 8 c 0.3098(2) 0.5093(5) 0.0312(6) 1. 0 0.007(1) 
O3 O2- 8 c 0.3043(2) 0.2224(5) 0.8210(6) 1. 0 0.0044(9) 
O4 O2- 8 c 0.5618(2) 0.3384(5) 0.8089(6) 1. 0 0.0063(8) 
O5 O2- 8 c 0.4332(2) 0.4849(4) 0.6814(6) 1. 0 0.0066(9) 
O6 O2- 8 c 0.4457(2) 0.1888(5) 0.6164(6) 1. 0 0.0040(8) 

#End of data_290223-ICSD


