data_86648-ICSD
#?2014 by Fachinformationszentrum Karlsruhe, and the U.S. Secretary of 
#Commerce on behalf of the United States.  All rights reserved.
_database_code_ICSD                86648
_audit_creation_date               2000/07/15
_chemical_name_systematic          'Tetracalcium Trimanganate(IV)'
_chemical_formula_structural       'Ca4 (Mn3 O10)'
_chemical_formula_sum              'Ca4 Mn3 O10'
_publ_section_title
;
Structure, magnetism, and properties of Ruddlesden-Popper calcium 
manganates prepared from citrate gels
;
loop_
_citation_id
_citation_journal_abbrev
_citation_year
_citation_journal_volume
_citation_page_first
_citation_page_last
_citation_journal_id_ASTM
primary 'Chemistry of Materials' 1998 10 3643 3651 CMATEX
_publ_author_name
;
Fawcett, I.D.;Sunstrom, J.E.;Greenblatt, M.;Croft, M.;Ramanujachary, 
K.V.
;
_cell_length_a                     5.2492(5)
_cell_length_b                     5.2407(5)
_cell_length_c                     27.1190(20)
_cell_angle_alpha                  90.
_cell_angle_beta                   90.
_cell_angle_gamma                  90.
_cell_volume                       746.03
_cell_formula_units_Z              4
_symmetry_space_group_name_H-M     'P b c a'
_symmetry_Int_Tables_number        61
_refine_ls_R_factor_all            .019
loop_
_symmetry_equiv_pos_site_id
_symmetry_equiv_pos_as_xyz
  1	'x+.5, y, -z+.5'
  2	'x, -y+.5, z+.5'
  3	'-x+.5, y+.5, z'
  4	'-x, -y, -z'
  5	'-x+.5, -y, z+.5'
  6	'-x, y+.5, -z+.5'
  7	'x+.5, -y+.5, -z'
  8	'x, y, z'
loop_
_atom_type_symbol
_atom_type_oxidation_number
Ca2+	2
Mn4+	4
O2-	-2
loop_
_atom_site_label
_atom_site_type_symbol
_atom_site_symmetry_multiplicity
_atom_site_Wyckoff_symbol
_atom_site_fract_x
_atom_site_fract_y
_atom_site_fract_z
_atom_site_occupancy
_atom_site_attached_hydrogens
Ca1 Ca2+ 8 c 0.502(6) 0.499(8) 0.0710(4) 1. 0 
Ca2 Ca2+ 8 c -.003(5) -.009(11) 0.2072(3) 1. 0 
Mn1 Mn4+ 4 b 0 0.5 0 1. 0 
Mn2 Mn4+ 8 c 0.505(5) -.005(8) 0.1380(3) 1. 0 
O1 O2- 8 c 0.490(16) 0.007(13) 0.068(1) 1. 0 
O2 O2- 8 c 0.510(12) -.007(13) 0.2272(8) 1. 0 
O3 O2- 8 c 0.807(9) 0.211(4) 0.119(1) 1. 0 
O4 O2- 8 c 0.210(13) 0.789(4) 0.152(1) 1. 0 
O5 O2- 8 c 0.293(13) 0.289(4) -.006(2) 1. 0 

#End of data_86648-ICSD


