data_202860-ICSD
#?2014 by Fachinformationszentrum Karlsruhe, and the U.S. Secretary of 
#Commerce on behalf of the United States.  All rights reserved.
_database_code_ICSD                202860
_audit_creation_date               1990/06/08
_chemical_name_systematic
;
Sodium Dimolybdenum(IV) Triphosphate
;
_chemical_formula_structural       'Na Mo2 (P O4)3'
_chemical_formula_sum              'Mo2 Na1 O12 P3'
_publ_section_title
;
Na Mo2 P3 O12: A New Phosphate of Mo(IV)
;
loop_
_citation_id
_citation_journal_abbrev
_citation_year
_citation_journal_volume
_citation_page_first
_citation_page_last
_citation_journal_id_ASTM
primary 'Journal of Solid State Chemistry' 1989 78 93 97 JSSCBI
_publ_author_name                  'Lii, K.-H.;Chen, J.J.;Wang, S.-L.'
_cell_length_a                     8.6160(7)
_cell_length_b                     8.6160(7)
_cell_length_c                     22.075(3)
_cell_angle_alpha                  90.
_cell_angle_beta                   90.
_cell_angle_gamma                  120.
_cell_volume                       1419.2
_cell_formula_units_Z              6
_symmetry_space_group_name_H-M     'R -3 c H'
_symmetry_Int_Tables_number        167
_refine_ls_R_factor_all            .015
loop_
_symmetry_equiv_pos_site_id
_symmetry_equiv_pos_as_xyz
  1	'x-y, -y, -z+.5'
  2	'-x, -x+y, -z+.5'
  3	'y, x, -z+.5'
  4	'x-y, x, -z'
  5	'y, -x+y, -z'
  6	'-x, -y, -z'
  7	'-x+y, y, z+.5'
  8	'x, x-y, z+.5'
  9	'-y, -x, z+.5'
 10	'-x+y, -x, z'
 11	'-y, x-y, z'
 12	'x, y, z'
 13	'x-y+.6666, -y+.3333, -z+.8333'
 14	'x-y+.3333, -y+.6666, -z+.1666'
 15	'-x+.6666, -x+y+.3333, -z+.8333'
 16	'-x+.3333, -x+y+.6666, -z+.1666'
 17	'y+.6666, x+.3333, -z+.8333'
 18	'y+.3333, x+.6666, -z+.1666'
 19	'x-y+.6666, x+.3333, -z+.3333'
 20	'x-y+.3333, x+.6666, -z+.6666'
 21	'y+.6666, -x+y+.3333, -z+.3333'
 22	'y+.3333, -x+y+.6666, -z+.6666'
 23	'-x+.6666, -y+.3333, -z+.3333'
 24	'-x+.3333, -y+.6666, -z+.6666'
 25	'-x+y+.6666, y+.3333, z+.8333'
 26	'-x+y+.3333, y+.6666, z+.1666'
 27	'x+.6666, x-y+.3333, z+.8333'
 28	'x+.3333, x-y+.6666, z+.1666'
 29	'-y+.6666, -x+.3333, z+.8333'
 30	'-y+.3333, -x+.6666, z+.1666'
 31	'-x+y+.6666, -x+.3333, z+.3333'
 32	'-x+y+.3333, -x+.6666, z+.6666'
 33	'-y+.6666, x-y+.3333, z+.3333'
 34	'-y+.3333, x-y+.6666, z+.6666'
 35	'x+.6666, y+.3333, z+.3333'
 36	'x+.3333, y+.6666, z+.6666'
loop_
_atom_type_symbol
_atom_type_oxidation_number
Mo4+	4
Na1+	1
O2-	-2
P5+	5
loop_
_atom_site_label
_atom_site_type_symbol
_atom_site_symmetry_multiplicity
_atom_site_Wyckoff_symbol
_atom_site_fract_x
_atom_site_fract_y
_atom_site_fract_z
_atom_site_occupancy
_atom_site_attached_hydrogens
Na1 Na1+ 6 b 0 0 0 1. 0 
Mo1 Mo4+ 12 c 0 0 0.14443(1) 1. 0 
P1 P5+ 18 e 0.2891(1) 0.2891(1) 0.25 1. 0 
O1 O2- 36 f 0.1917(2) 0.0250(2) 0.08676(8) 1. 0 
O2 O2- 36 f 0.0201(1) -.1813(3) 0.19315(9) 1. 0 

loop_
_atom_site_aniso_label
_atom_site_aniso_type_symbol
_atom_site_aniso_U_11
_atom_site_aniso_U_22
_atom_site_aniso_U_33
_atom_site_aniso_U_12
_atom_site_aniso_U_13
_atom_site_aniso_U_23
Na1 Na1+ 0.034(1) 0.034(1) 0.010(1) 0.017 0 0
Mo1 Mo4+ 0.0050(2) 0.0050(2) 0.0041(2) 0.0025 0 0
P1 P5+ 0.0050(3) 0.0050(3) 0.0063(4) 0.0021(3) 0.0008(1) -.0008(1)
O1 O2- 0.0083(9) 0.0163(9) 0.0114(8) 0.0070(7) 0.0020(7) -.0002(7)
O2 O2- 0.020(1) 0.0143(9) 0.0136(9) 0.0106(8) -.0012(7) 0.0064(7)
#End of data_202860-ICSD


