data_281195-ICSD
#?2014 by Fachinformationszentrum Karlsruhe, and the U.S. Secretary of 
#Commerce on behalf of the United States.  All rights reserved.
_database_code_ICSD                281195
_audit_creation_date               2003/10/01
_audit_update_record               2013/02/01
_chemical_name_systematic
;
Dipotassium Hexaselenocupro(I)trigallate
;
_chemical_formula_structural       'K2 (Cu Ga3 Se6)'
_chemical_formula_sum              'Cu1 Ga3 K2 Se6'
_publ_section_title
;
K2 M M'3 Se6 (M = Cu, Ag; M' = Ga, In), a new series of metal 
chalcogenides with chain-sublayer-chain slabs: (infty 1)(M' Se4) - 
(infty 2)((M Se4) (M' Se4)) - (infty 1)(M' Se4)
;
loop_
_citation_id
_citation_journal_abbrev
_citation_year
_citation_journal_volume
_citation_page_first
_citation_page_last
_citation_journal_id_ASTM
primary 'Inorganic Chemistry' 2003 42 1366 1370 INOCAJ
_publ_author_name
;
Ma, H.-W.;Guo, G.-C.;Wang, M.-S.;Zhou, G.-W.;Lin, S.-H.;Dong 
Zhenchao;Huang, J.-S.
;
_cell_length_a                     11.0312(17)
_cell_length_b                     11.050(4)
_cell_length_c                     20.808(7)
_cell_angle_alpha                  90.
_cell_angle_beta                   97.710(19)
_cell_angle_gamma                  90.
_cell_volume                       2513.46
_cell_formula_units_Z              8
_symmetry_space_group_name_H-M     'C 1 2/c 1'
_symmetry_Int_Tables_number        15
_refine_ls_R_factor_all            .0301
loop_
_symmetry_equiv_pos_site_id
_symmetry_equiv_pos_as_xyz
  1	'x, -y, z+.5'
  2	'-x, -y, -z'
  3	'-x, y, -z+.5'
  4	'x, y, z'
  5	'x+.5, -y+.5, z+.5'
  6	'-x+.5, -y+.5, -z'
  7	'-x+.5, y+.5, -z+.5'
  8	'x+.5, y+.5, z'
loop_
_atom_type_symbol
_atom_type_oxidation_number
Cu1+	1
Ga3+	3
K1+	1
Se2-	-2
loop_
_atom_site_label
_atom_site_type_symbol
_atom_site_symmetry_multiplicity
_atom_site_Wyckoff_symbol
_atom_site_fract_x
_atom_site_fract_y
_atom_site_fract_z
_atom_site_occupancy
_atom_site_attached_hydrogens
_atom_site_U_iso_or_equiv
Ga1 Ga3+ 4 e 0 0.06780(3) 0.75 1. 0 0.00447(7) 
Ga2 Ga3+ 4 e 0.5 0.056913(9) 0.75 1. 0 0.00305(7) 
Ga3 Ga3+ 8 f 0.53225(3) -.187085(7) 0.880917(4) 1. 0 0.00183(6) 
Ga4 Ga3+ 8 f 0.21744(3) 0.061892(10) 0.620237(5) 1. 0 0.00102(5) 
Cu1 Cu1+ 8 f 0.24989(3) -.18711(4) 0.750354(6) 1. 0 0.00373(9) 
Se1 Se2- 8 f 0.36445(2) 0.190309(7) 0.681557(6) 1. 0 0.00105(5) 
Se2 Se2- 8 f 0.64794(3) -.316761(9) 0.820430(12) 1. 0 0.00250(6) 
Se3 Se2- 8 f 0.08539(3) 0.19799(2) 0.549938(5) 1. 0 0.00745(6) 
Se4 Se2- 8 f 0.38710(3) -.058154(18) 0.820456(6) 1. 0 0.00273(5) 
Se5 Se2- 8 f 0.31380(3) -.07252(3) 0.549516(9) 1. 0 0.00713(5) 
Se6 Se2- 8 f 0.10098(2) -.06566(3) 0.680843(6) 1. 0 0.00146(5) 
K1 K1+ 8 f -.16671(6) -.06292(7) 0.58037(2) 1. 0 0.01512(14) 
K2 K1+ 8 f 0.08471(6) -.30936(6) 0.57975(3) 1. 0 0.01468(18) 

loop_
_atom_site_aniso_label
_atom_site_aniso_type_symbol
_atom_site_aniso_U_11
_atom_site_aniso_U_22
_atom_site_aniso_U_33
_atom_site_aniso_U_12
_atom_site_aniso_U_13
_atom_site_aniso_U_23
Ga1 Ga3+ 0.00334(19) 0.00434(3) 0.00571(2) 0 0.00055(7) 0
Ga2 Ga3+ 0.00261(19) 0.00329(4) 0.00328(2) 0 0.00057(9) 0
Ga3 Ga3+ 0.00237(13) 0.00123(9) 0.00202(6) -0.00052(8) 0.00073(10) 
0.00038(1)
Ga4 Ga3+ 0.00109(13) 0.00172(3) 0.00107(2) 0.00003(13) 0.00015(7) 
0.00016(6)
Cu1 Cu1+ 0.00302(14) 0.00485(18) 0.00329(17) -0.00152(10) 0.00036(12) 
-0.00017(1)
Se1 Se2- 0.00105(11) 0.00106(6) 0.00167(4) -0.00011(11) 0.00020(9) 
-0.00047(2)
Se2 Se2- 0.00183(11) 0.00256(11) 0.00305(10) 0.00004(11) 0.00002(9) 
0.00043(2)
Se3 Se2- 0.00834(13) 0.00820(11) 0.00578(8) 0.00107(13) 0.00089(10) 
-0.00034(3)
Se4 Se2- 0.00335(12) 0.00245(7) 0.00226(5) -0.00102(12) -0.00008(9) 
-0.00076(5)
Se5 Se2- 0.00683(13) 0.00764(7) 0.00699(4) -0.00027(13) 0.00124(10) 
-0.00030(14)
Se6 Se2- 0.00173(12) 0.00133(9) 0.00131(6) 0.00015(12) 0.00019(10) 
0.00006(9)
K1 K1+ 0.0119(3) 0.0182(3) 0.01533(17) 0.0019(3) 0.0021(3) 0.0005(3)
K2 K1+ 0.0140(3) 0.0139(3) 0.0160(3) 0.0002(3) 0.0017(3) 0.00046(13)
#End of data_281195-ICSD


