data_107377-ICSD
#?2014 by Fachinformationszentrum Karlsruhe, and the U.S. Secretary of 
#Commerce on behalf of the United States.  All rights reserved.
_database_code_ICSD                107377
_audit_creation_date               2013/08/01
_chemical_name_systematic          'Aluminium Silicate Hydroxide *'
_chemical_formula_structural       'Al4 (O H)8 (Si4 O10)'
_chemical_formula_sum              'H8 Al4 O18 Si4'
_chemical_name_mineral             'Kaolinite 1A'
_publ_section_title
;
What is the Structure of Kaolinite? Reconciling Theory and Experiment
;
loop_
_citation_id
_citation_journal_abbrev
_citation_year
_citation_journal_volume
_citation_page_first
_citation_page_last
_citation_journal_id_ASTM
primary 'Clays and Clay Minerals (-28,1980)' 1988 36 225 232 CCMPA7
_publ_author_name
;
White, C.E.;Provis, J.L.;Riley, D.P.;Kearley, G.J.;van Deventer, 
J,S.J.
;
_cell_length_a                     5.149
_cell_length_b                     8.9335(1)
_cell_length_c                     7.3844(1)
_cell_angle_alpha                  91.930(1)
_cell_angle_beta                   105.042(1)
_cell_angle_gamma                  89.791(1)
_cell_volume                       327.84
_cell_formula_units_Z              1
_symmetry_space_group_name_H-M     'P 1'
_symmetry_Int_Tables_number        1
loop_
_symmetry_equiv_pos_site_id
_symmetry_equiv_pos_as_xyz
  1	'x, y, z'
loop_
_atom_type_symbol
_atom_type_oxidation_number
Al3+	3
H1+	1
O2-	-2
Si4+	4
loop_
_atom_site_label
_atom_site_type_symbol
_atom_site_symmetry_multiplicity
_atom_site_Wyckoff_symbol
_atom_site_fract_x
_atom_site_fract_y
_atom_site_fract_z
_atom_site_occupancy
_atom_site_attached_hydrogens
Al1 Al3+ 1 a 0.36119 0.49216 0.45879 1. 0 
Al2 Al3+ 1 a 0.35153 0.82839 0.456 1. 0 
Al3 Al3+ 1 a 0.86066 0.99205 0.45879 1. 0 
Al4 Al3+ 1 a 0.85252 0.3284 0.45603 1. 0 
Si1 Si4+ 1 a 0.05782 0.33682 0.0698 1. 0 
Si2 Si4+ 1 a 0.07099 0.66544 0.07115 1. 0 
Si3 Si4+ 1 a 0.55725 0.83678 0.06963 1. 0 
Si4 Si4+ 1 a 0.5714 0.16527 0.07135 1. 0 
O1 O2- 1 a 0.11134 0.35116 0.29406 1. 0 
O2 O2- 1 a 0.181 0.66117 0.29508 1. 0 
O3 O2- 1 a 0.06956 0.49794 -.02619 1. 0 
O4 O2- 1 a 0.26383 0.22545 -.00386 1. 0 
O5 O2- 1 a 0.25684 0.7674 -.02625 1. 0 
O6 O2- 1 a 0.61052 0.85133 0.29382 1. 0 
O7 O2- 1 a 0.68078 0.16097 0.29532 1. 0 
O8 O2- 1 a 0.56902 -.00211 -.02646 1. 0 
O9 O2- 1 a 0.76319 0.72521 -.00391 1. 0 
O10 O2- 1 a 0.75756 0.2673 -.02555 1. 0 
O11 O2- 1 a 0.11108 0.96817 0.30733 1. 0 
O12 O2- 1 a 0.01966 0.1649 0.5846 1. 0 
O13 O2- 1 a 0.09746 0.47108 0.58441 1. 0 
O14 O2- 1 a 0.09798 0.85431 0.59196 1. 0 
O15 O2- 1 a 0.61238 0.46831 0.30787 1. 0 
O16 O2- 1 a 0.52032 0.66522 0.58395 1. 0 
O17 O2- 1 a 0.59564 0.97164 0.58396 1. 0 
O18 O2- 1 a 0.60069 0.35565 0.59317 1. 0 
H1 H1+ 1 a 0.21015 0.06319 0.31904 1. 0 
H2 H1+ 1 a 0.11834 0.17073 0.71695 1. 0 
H3 H1+ 1 a 0.10814 0.4987 0.71559 1. 0 
H4 H1+ 1 a 0.11282 0.81654 0.71707 1. 0 
H5 H1+ 1 a 0.71139 0.56341 0.32007 1. 0 
H6 H1+ 1 a 0.61874 0.67056 0.71637 1. 0 
H7 H1+ 1 a 0.60665 0.99931 0.71516 1. 0 
H8 H1+ 1 a 0.61257 0.31615 0.71694 1. 0 

#End of data_107377-ICSD


