data_90079-ICSD
#?2014 by Fachinformationszentrum Karlsruhe, and the U.S. Secretary of 
#Commerce on behalf of the United States.  All rights reserved.
_database_code_ICSD                90079
_audit_creation_date               2002/04/01
_chemical_name_systematic
;
Tricesium Phyllo-octaselenidoargentotetraarsenate(III)
;
_chemical_formula_structural       'Cs3 (Ag As4 Se8)'
_chemical_formula_sum              'Ag1 As4 Cs3 Se8'
_publ_section_title
;
Cs3 Ag As4 Se8 and Cs Ag As2 Se4 : selenoarsenates with infinite (1 
infty)(As Se2)(-) chains in different Ag(+) coordination environments
;
loop_
_citation_id
_citation_journal_abbrev
_citation_year
_citation_journal_volume
_citation_page_first
_citation_page_last
_citation_journal_id_ASTM
primary 'Inorganic Chemistry' 2000 39 2337 2343 INOCAJ
_publ_author_name                  'Wachhold, M.;Kanatzidis, M.G.'
_cell_length_a                     25.2120(20)
_cell_length_b                     8.0748(7)
_cell_length_c                     22.8030(20)
_cell_angle_alpha                  90.
_cell_angle_beta                   116.272(1)
_cell_angle_gamma                  90.
_cell_volume                       4162.74
_cell_formula_units_Z              8
_symmetry_space_group_name_H-M     'C 1 2/c 1'
_symmetry_Int_Tables_number        15
_refine_ls_R_factor_all            .076
loop_
_symmetry_equiv_pos_site_id
_symmetry_equiv_pos_as_xyz
  1	'x, -y, z+.5'
  2	'-x, -y, -z'
  3	'-x, y, -z+.5'
  4	'x, y, z'
  5	'x+.5, -y+.5, z+.5'
  6	'-x+.5, -y+.5, -z'
  7	'-x+.5, y+.5, -z+.5'
  8	'x+.5, y+.5, z'
loop_
_atom_type_symbol
_atom_type_oxidation_number
Ag1+	1
As3+	3
Cs1+	1
Se2-	-2
loop_
_atom_site_label
_atom_site_type_symbol
_atom_site_symmetry_multiplicity
_atom_site_Wyckoff_symbol
_atom_site_fract_x
_atom_site_fract_y
_atom_site_fract_z
_atom_site_occupancy
_atom_site_attached_hydrogens
_atom_site_U_iso_or_equiv
Cs1 Cs1+ 4 d 0.25 0.25 0.5 1. 0 0.038(1) 
Cs2 Cs1+ 8 f 0.1952(1) 0.6425(2) 0.2330(1) 1. 0 0.040(1) 
Cs3 Cs1+ 8 f 0.4284(1) 0.1882(2) 0.4970(1) 1. 0 0.049(1) 
Cs4 Cs1+ 4 e 0 0.7378(2) 0.25 1. 0 0.051(1) 
Ag1 Ag1+ 8 f 0.2431(1) 0.6493(2) 0.4115(1) 1. 0 0.038(1) 
As1 As3+ 8 f 0.1352(1) 0.1688(2) 0.1179(1) 1. 0 0.028(1) 
As2 As3+ 8 f 0.1535(1) -.0200(2) 0.3198(1) 1. 0 0.030(1) 
As3 As3+ 8 f 0.1548(1) 0.7994(2) 0.4673(1) 1. 0 0.026(1) 
As4 As3+ 8 f 0.0459(1) 0.2489(2) 0.1989(1) 1. 0 0.036(1) 
Se1 Se2- 8 f 0.0556(1) 0.0311(2) 0.1299(1) 1. 0 0.039(1) 
Se2 Se2- 8 f 0.3066(1) 0.4410(2) 0.3818(1) 1. 0 0.032(1) 
Se3 Se2- 8 f 0.0770(1) 0.2180(3) 0.0014(1) 1. 0 0.043(1) 
Se4 Se2- 8 f 0.1389(1) 0.5717(2) 0.3986(1) 1. 0 0.032(1) 
Se5 Se2- 8 f 0.1083(1) 0.0296(2) 0.3929(1) 1. 0 0.033(1) 
Se6 Se2- 8 f 0.2560(1) -.0398(2) 0.3827(1) 1. 0 0.036(1) 
Se7 Se2- 8 f 0.1481(1) 0.2589(2) 0.2829(1) 1. 0 0.041(1) 
Se8 Se2- 8 f 0.0458(1) 0.4904(2) 0.1446(1) 1. 0 0.044(1) 

#End of data_90079-ICSD


