data_35762-ICSD
#?2014 by Fachinformationszentrum Karlsruhe, and the U.S. Secretary of 
#Commerce on behalf of the United States.  All rights reserved.
_database_code_ICSD                35762
_audit_creation_date               1983/12/31
_chemical_name_systematic          'Silver Manganate'
_chemical_formula_structural       'Ag2 Mn O4'
_chemical_formula_sum              'Ag2 Mn1 O4'
_publ_section_title
;
Darstellung und Kristallstruktur von Ag2 Mn O4
;
loop_
_citation_id
_citation_journal_abbrev
_citation_year
_citation_journal_volume
_citation_page_first
_citation_page_last
_citation_journal_id_ASTM
primary 'Zeitschrift fuer Anorganische und Allgemeine Chemie (1950) (DE)'
 1983 507 59 65 ZAACAB
_publ_author_name                  'Chang, F.M.;Jansen, M.'
_cell_length_a                     9.998(2)
_cell_length_b                     6.989(1)
_cell_length_c                     5.474(2)
_cell_angle_alpha                  90.
_cell_angle_beta                   90.
_cell_angle_gamma                  90.
_cell_volume                       382.5
_cell_formula_units_Z              4
_symmetry_space_group_name_H-M     'P n m a'
_symmetry_Int_Tables_number        62
_refine_ls_R_factor_all            .028
loop_
_symmetry_equiv_pos_site_id
_symmetry_equiv_pos_as_xyz
  1	'x+.5, y, -z+.5'
  2	'x, -y+.5, z'
  3	'-x+.5, y+.5, z+.5'
  4	'-x, -y, -z'
  5	'-x+.5, -y, z+.5'
  6	'-x, y+.5, -z'
  7	'x+.5, -y+.5, -z+.5'
  8	'x, y, z'
loop_
_atom_type_symbol
_atom_type_oxidation_number
Ag1+	1
Mn6+	6
O2-	-2
loop_
_atom_site_label
_atom_site_type_symbol
_atom_site_symmetry_multiplicity
_atom_site_Wyckoff_symbol
_atom_site_fract_x
_atom_site_fract_y
_atom_site_fract_z
_atom_site_occupancy
_atom_site_attached_hydrogens
Mn1 Mn6+ 4 c 0.31969(16) 0.25 0.01211(48) 1. 0 
Ag1 Ag1+ 4 a 0.5 0.5 0.5 1. 0 
Ag2 Ag1+ 4 c 0.64029(11) 0.25 0.00439(29) 1. 0 
O1 O2- 4 c 0.65313(82) 0.25 0.4385(16) 1. 0 
O2 O2- 4 c 0.86008(98) 0.25 -0.2150(16) 1. 0 
O3 O2- 8 d 0.8442(64) 0.44239(99) 0.3552(12) 1. 0 

loop_
_atom_site_aniso_label
_atom_site_aniso_type_symbol
_atom_site_aniso_U_11
_atom_site_aniso_U_22
_atom_site_aniso_U_33
_atom_site_aniso_U_12
_atom_site_aniso_U_13
_atom_site_aniso_U_23
Mn1 Mn6+ 0.0285(7) 0.0307(8) 0.0280(9) 0 -.0003(13) 0
Ag1 Ag1+ 0.0359(4) 0.0349(5) 0.0340(5) 0.0036(3) -.0048(9) -.0020(5)
Ag2 Ag1+ 0.0521(6) 0.0444(6) 0.0387(5) 0 0.0063(8) 0
O1 O2- 0.0320(4) 0.0356(7) 0.0380(59) 0 -.0052(53) 0
O2 O2- 0.0426(48) 0.0523(57) 0.0281(49) 0 -.0071(41) 0
O3 O2- 0.0476(35) 0.0369(32) 0.0363(33) -.0051(35) 0.0071(32) 0.0035(34)
#End of data_35762-ICSD


