data_260148-ICSD
#?2014 by Fachinformationszentrum Karlsruhe, and the U.S. Secretary of 
#Commerce on behalf of the United States.  All rights reserved.
_database_code_ICSD                260148
_audit_creation_date               2009/08/01
_audit_update_record               2013/02/01
_chemical_name_systematic          'Disilver Selenide - Lt'
_chemical_formula_structural       'Ag2 Se'
_chemical_formula_sum              'Ag2 Se1'
_chemical_name_mineral             Naumannite
_publ_section_title
;
Structural phase transitions in Ag2 Se (Naumannite)
;
loop_
_citation_id
_citation_journal_abbrev
_citation_year
_citation_journal_volume
_citation_journal_issue
_citation_page_first
_citation_page_last
_citation_journal_id_ASTM
primary 'Zeitschrift fuer Anorganische und Allgemeine Chemie (1950) (DE)'
 2008 634 2 241 246 ZAACAB
2 'Physica Status Solidi A - Applications and Materials'
 1972 12- K13 K16 PSSABA
_publ_author_name                  'Billetter, H.;Ruschewitz, U.'
_cell_length_a                     4.3373(2)
_cell_length_b                     7.0702(3)
_cell_length_c                     7.7730(4)
_cell_angle_alpha                  90.
_cell_angle_beta                   90.
_cell_angle_gamma                  90.
_cell_volume                       238.36
_cell_formula_units_Z              4
_symmetry_space_group_name_H-M     'P 21 21 21'
_symmetry_Int_Tables_number        19
loop_
_symmetry_equiv_pos_site_id
_symmetry_equiv_pos_as_xyz
  1	'-x, y+.5, -z+.5'
  2	'x+.5, -y+.5, -z'
  3	'-x+.5, -y, z+.5'
  4	'x, y, z'
loop_
_atom_type_symbol
_atom_type_oxidation_number
Ag1+	1
Se2-	-2
loop_
_atom_site_label
_atom_site_type_symbol
_atom_site_symmetry_multiplicity
_atom_site_Wyckoff_symbol
_atom_site_fract_x
_atom_site_fract_y
_atom_site_fract_z
_atom_site_occupancy
_atom_site_attached_hydrogens
Ag1 Ag1+ 4 a 0.8556(7) 0.1121(4) 0.4504(4) 1. 0 
Ag2 Ag1+ 4 a 0.4745(6) 0.7770(5) 0.3592(4) 1. 0 
Se1 Se2- 4 a 0.1029(8) 0.9996(6) 0.1532(5) 1. 0 

#End of data_260148-ICSD


