data_97382-ICSD
#?2014 by Fachinformationszentrum Karlsruhe, and the U.S. Secretary of 
#Commerce on behalf of the United States.  All rights reserved.
_database_code_ICSD                97382
_audit_creation_date               2004/10/01
_chemical_name_systematic
;
Tristrontium Germanium Magnesium Tetranitride
;
_chemical_formula_structural       'Sr3 Ge Mg N4'
_chemical_formula_sum              'Ge1 Mg1 N4 Sr3'
_publ_section_title
;
Sr3 Ge Mg N4 : new quaternary nitride containing Mg
;
loop_
_citation_id
_citation_journal_abbrev
_citation_year
_citation_journal_volume
_citation_page_first
_citation_page_last
_citation_journal_id_ASTM
primary 'Journal of Alloys and Compounds' 2003 360 85 89 JALCEU
_publ_author_name
;
Park Dong Gon;Gal, Z.A.;DiSalvo, F.J.
;
_cell_length_a                     5.939(1)
_cell_length_b                     10.320(2)
_cell_length_c                     9.618(2)
_cell_angle_alpha                  90
_cell_angle_beta                   90
_cell_angle_gamma                  90
_cell_volume                       589.49
_cell_formula_units_Z              4
_symmetry_space_group_name_H-M     'P n n a'
_symmetry_Int_Tables_number        52
_refine_ls_R_factor_all            .0535
loop_
_symmetry_equiv_pos_site_id
_symmetry_equiv_pos_as_xyz
  1	'x+.5, -y+.5, z+.5'
  2	'-x, y+.5, z+.5'
  3	'x+.5, y, -z'
  4	'-x, -y, -z'
  5	'-x+.5, y+.5, -z+.5'
  6	'x, -y+.5, -z+.5'
  7	'-x+.5, -y, z'
  8	'x, y, z'
loop_
_atom_type_symbol
_atom_type_oxidation_number
Ge4+	4
Mg2+	2
N3-	-3
Sr2+	2
loop_
_atom_site_label
_atom_site_type_symbol
_atom_site_symmetry_multiplicity
_atom_site_Wyckoff_symbol
_atom_site_fract_x
_atom_site_fract_y
_atom_site_fract_z
_atom_site_occupancy
_atom_site_attached_hydrogens
_atom_site_U_iso_or_equiv
Sr1 Sr2+ 8 e 0.6126(2) 0.1537(1) 0.0900(1) 1. 0 0.006(1) 
Sr2 Sr2+ 4 c 0.250 0 0.5942(1) 1. 0 0.007(1) 
Ge1 Ge4+ 4 c 0.250 0 0.2688(1) 1. 0 0.005(1) 
Mg1 Mg2+ 4 d 0.1575(8) 0.250 0.250 1. 0 0.005(1) 
N1 N3- 8 e 0.0166(14) 0.0837(7) 0.1638(8) 1. 0 0.009(2) 
N2 N3- 8 e 0.3819(4) 0.3635(7) 0.1282(8) 1. 0 0.009(2) 

loop_
_atom_site_aniso_label
_atom_site_aniso_type_symbol
_atom_site_aniso_U_11
_atom_site_aniso_U_22
_atom_site_aniso_U_33
_atom_site_aniso_U_12
_atom_site_aniso_U_13
_atom_site_aniso_U_23
Sr1 Sr2+ 0.006(1) 0.009(1) 0.005(1) 0.001(1) 0.000(1) -.001(1)
Sr2 Sr2+ 0.007(1) 0.010(1) 0.004(1) 0.001(1) 0. 0.
Ge1 Ge4+ 0.006(1) 0.007(1) 0.004(1) -.001(1) 0. 0.
Mg1 Mg2+ 0.005(2) 0.007(2) 0.004(2) 0. 0. -.001(2)
#End of data_97382-ICSD


