data_280176-ICSD
#?2014 by Fachinformationszentrum Karlsruhe, and the U.S. Secretary of 
#Commerce on behalf of the United States.  All rights reserved.
_database_code_ICSD                280176
_audit_creation_date               2000/07/15
_audit_update_record               2012/02/01
_chemical_name_systematic
;
Potassium Zinc Hydrogenphosphate(V) Dihydrogenphosphate(V) Hydrate
;
_chemical_formula_structural       'K Zn (H P O4) (H2 P O4) (H2 O)'
_chemical_formula_sum              'H5 K1 O9 P2 Zn1'
_publ_section_title
;
A potassium zinc phosphate hydrate, K Zn (H P O4) (H2 P O4) . (H2 O)
;
loop_
_citation_id
_citation_journal_abbrev
_citation_year
_citation_journal_volume
_citation_journal_issue
_citation_page_first
_citation_page_last
_citation_journal_id_ASTM
primary 'Acta Crystallographica, Section C: Crystal Structure Communications'
 1999 55 10 1 1 ACSCEE
_publ_author_name                  'Harrison, W.T.A.'
_cell_length_a                     7.6438(13)
_cell_length_b                     7.8480(9)
_cell_length_c                     7.9642(15)
_cell_angle_alpha                  64.561(14)
_cell_angle_beta                   84.822(14)
_cell_angle_gamma                  72.443(13)
_cell_volume                       410.91
_cell_formula_units_Z              2
_symmetry_space_group_name_H-M     'P -1'
_symmetry_Int_Tables_number        2
_refine_ls_R_factor_all            .024
loop_
_symmetry_equiv_pos_site_id
_symmetry_equiv_pos_as_xyz
  1	'-x, -y, -z'
  2	'x, y, z'
loop_
_atom_type_symbol
_atom_type_oxidation_number
H1+	1
K1+	1
O2-	-2
P5+	5
Zn2+	2
loop_
_atom_site_label
_atom_site_type_symbol
_atom_site_symmetry_multiplicity
_atom_site_Wyckoff_symbol
_atom_site_fract_x
_atom_site_fract_y
_atom_site_fract_z
_atom_site_occupancy
_atom_site_attached_hydrogens
_atom_site_U_iso_or_equiv
K1 K1+ 2 i 0.13396(7) 0.77837(7) 0.22224(7) 1. 0 0 
Zn1 Zn2+ 2 i 0.25968(3) 0.23196(3) 0.03166(3) 1. 0 0 
P1 P5+ 2 i 0.07916(6) 0.67916(6) -.25893(6) 1. 0 0 
P2 P5+ 2 i 0.37796(6) 0.04800(6) -.25202(6) 1. 0 0 
O1 O2- 2 i 0.2600(2) 0.0829(2) -.41399(19) 1. 0 0 
O2 O2- 2 i 0.4799(2) 0.2129(2) -.3178(2) 1. 0 0 
O3 O2- 2 i 0.2603(2) 0.0657(2) -.0915(2) 1. 0 0 
O4 O2- 2 i 0.22950(19) 0.5044(2) -.1355(2) 1. 0 0 
O5 O2- 2 i 0.16387(19) 0.80880(19) -.43469(18) 1. 0 0 
O6 O2- 2 i 0.4765(2) 0.1525(2) 0.1846(2) 1. 0 0 
O7 O2- 2 i 0.0341(2) 0.1974(2) 0.1623(2) 1. 0 0 
O8 O2- 2 i -.0455(2) 0.5999(2) -.3363(2) 1. 0 0 
O9 O2- 2 i 0.4321(2) 0.4389(2) 0.3156(2) 1. 0 0 
H1 H1+ 2 i 0.4705 0.2786 -.4319 1. 0 0.047(4) 
H2 H1+ 2 i 0.19544 0.89594 -.43182 1. 0 0.047(4) 
H3 H1+ 2 i -.1275 0.6983 -.414 1. 0 0.047(4) 
H4 H1+ 2 i 0.4458 0.346 0.2849 1. 0 0.047(4) 
H5 H1+ 2 i 0.525 0.481 0.2682 1. 0 0.047(4) 

loop_
_atom_site_aniso_label
_atom_site_aniso_type_symbol
_atom_site_aniso_U_11
_atom_site_aniso_U_22
_atom_site_aniso_U_33
_atom_site_aniso_U_12
_atom_site_aniso_U_13
_atom_site_aniso_U_23
K1 K1+ 0.0300(2) 0.0248(2) 0.0328(2) -.00740(16) -.00078(17) -.00790(17)
Zn1 Zn2+ 0.0132(1) 0.0139(1) 0.0163(1) -.00343(6) 0.00088(6) -.00575(7)
P1 P5+ 0.01187(18) 0.01166(17) 0.01507(17) -.00331(13) 0.00090(13) 
-.00357(13)
P2 P5+ 0.01294(18) 0.01433(18) 0.01299(17) -.00404(13) -.00084(13) 
-.00622(13)
O1 O2- 0.0261(7) 0.0198(6) 0.0181(6) -.0082(5) -.0098(5) -.0039(5)
O2 O2- 0.0304(7) 0.0294(7) 0.0212(6) -.0196(6) 0.0038(5) -.0105(5)
O3 O2- 0.0257(7) 0.0262(7) 0.0245(6) -.0128(5) 0.0109(5) -.0167(5)
O4 O2- 0.0180(6) 0.0152(6) 0.0255(6) -.0031(4) -.0052(5) 0.0004(5)
O5 O2- 0.0215(6) 0.0171(6) 0.0168(5) -.0084(5) 0.0048(4) -.0054(4)
O6 O2- 0.0199(6) 0.0205(6) 0.0287(7) 0.0034(5) -.0088(5) -.0137(5)
O7 O2- 0.0212(6) 0.0227(6) 0.0301(7) -.0089(5) 0.0126(5) -.0143(5)
O8 O2- 0.0237(7) 0.0211(6) 0.0298(7) -.0102(5) -.0078(5) -.0061(5)
O9 O2- 0.0195(6) 0.0252(7) 0.0312(7) -.0096(5) 0.0045(5) -.0140(6)
#End of data_280176-ICSD


