data_165780-ICSD
#?2014 by Fachinformationszentrum Karlsruhe, and the U.S. Secretary of 
#Commerce on behalf of the United States.  All rights reserved.
_database_code_ICSD                165780
_audit_creation_date               2010/08/01
_chemical_name_systematic          'Lithium Chromium Bis(tungstate)'
_chemical_formula_structural       'Li Cr (W O4)2'
_chemical_formula_sum              'Cr1 Li1 O8 W2'
_publ_section_title
;
Preparation and photocatalytic property of Li Cr (W O4)2
;
loop_
_citation_id
_citation_journal_abbrev
_citation_year
_citation_journal_volume
_citation_page_first
_citation_page_last
_citation_journal_id_ASTM
primary 'Journal of Alloys and Compounds' 2009 485 346 350 JALCEU
_publ_author_name
;
Lv Jun;Zhao Zongyan;Li Zhaosheng;Ye Jinhua;Zou Zhigang
;
_cell_length_a                     9.1950
_cell_length_b                     11.3147
_cell_length_c                     4.8712
_cell_angle_alpha                  90.
_cell_angle_beta                   90.49
_cell_angle_gamma                  90.
_cell_volume                       506.77
_cell_formula_units_Z              4
_symmetry_space_group_name_H-M     'C 1 2/c 1'
_symmetry_Int_Tables_number        15
_refine_ls_R_factor_all            .0755
loop_
_symmetry_equiv_pos_site_id
_symmetry_equiv_pos_as_xyz
  1	'x, -y, z+.5'
  2	'-x, -y, -z'
  3	'-x, y, -z+.5'
  4	'x, y, z'
  5	'x+.5, -y+.5, z+.5'
  6	'-x+.5, -y+.5, -z'
  7	'-x+.5, y+.5, -z+.5'
  8	'x+.5, y+.5, z'
loop_
_atom_type_symbol
_atom_type_oxidation_number
Cr3+	3
Li1+	1
O2-	-2
W6+	6
loop_
_atom_site_label
_atom_site_type_symbol
_atom_site_symmetry_multiplicity
_atom_site_Wyckoff_symbol
_atom_site_fract_x
_atom_site_fract_y
_atom_site_fract_z
_atom_site_occupancy
_atom_site_attached_hydrogens
W1 W6+ 8 f 0.2515 0.0901 0.2403 1. 0 
Cr1 Cr3+ 4 e 0 0.3233 0.250 1. 0 
Li1 Li1+ 4 e 0.5 0.3353 0.250 1. 0 
O1 O2- 8 f 0.3699 0.0639 0.9249 1. 0 
O2 O2- 8 f 0.3848 0.1772 0.4282 1. 0 
O3 O2- 8 f 0.3504 0.5479 0.9407 1. 0 
O4 O2- 8 f 0.3761 0.6981 0.3884 1. 0 

#End of data_165780-ICSD


