data_189096-ICSD
#?2014 by Fachinformationszentrum Karlsruhe, and the U.S. Secretary of 
#Commerce on behalf of the United States.  All rights reserved.
_database_code_ICSD                189096
_audit_creation_date               2014/02/01
_chemical_name_systematic          'Lithium Manganese Phosphate'
_chemical_formula_structural       'Li Mn (P O4)'
_chemical_formula_sum              'Li1 Mn1 O4 P1'
_chemical_name_mineral             Lithiophilite
_publ_section_title
;
Topotactic formation of ferrisicklerite from natural triphylite under 
hydrothermal conditions
;
loop_
_citation_id
_citation_journal_abbrev
_citation_year
_citation_journal_volume
_citation_journal_issue
_citation_page_first
_citation_page_last
_citation_journal_id_ASTM
primary 'Mineralogy and Petrology' 2013 107 4 501 515 MIPEE9
_publ_author_name
;
Schmid-Beurmann, Peter;Ottolini, Luisa;Hatert, Frederic;Geisler, 
Thorsten;Huyskens, Magdalena;Kahlenberg, Volker
;
_cell_length_a                     4.7438(4)
_cell_length_b                     10.4476(8)
_cell_length_c                     6.1037(4)
_cell_angle_alpha                  90.
_cell_angle_beta                   90.
_cell_angle_gamma                  90.
_cell_volume                       302.51
_cell_formula_units_Z              4
_symmetry_space_group_name_H-M     'P b n m'
_symmetry_Int_Tables_number        62
_refine_ls_R_factor_all            .0115
loop_
_symmetry_equiv_pos_site_id
_symmetry_equiv_pos_as_xyz
  1	'-x+.5, y+.5, z'
  2	'x, y, -z+.5'
  3	'x+.5, -y+.5, z+.5'
  4	'-x, -y, -z'
  5	'x+.5, -y+.5, -z'
  6	'-x, -y, z+.5'
  7	'-x+.5, y+.5, -z+.5'
  8	'x, y, z'
loop_
_atom_type_symbol
_atom_type_oxidation_number
Li1+	1
Mn2+	2
O2-	-2
P5+	5
loop_
_atom_site_label
_atom_site_type_symbol
_atom_site_symmetry_multiplicity
_atom_site_Wyckoff_symbol
_atom_site_fract_x
_atom_site_fract_y
_atom_site_fract_z
_atom_site_occupancy
_atom_site_attached_hydrogens
_atom_site_B_iso_or_equiv
Li1 Li1+ 4 a 0 0 0 1. 0 0.41(6) 
Mn1 Mn2+ 4 c 0.9700(9) 0.2817(3) 0.250 1. 0 0.41(6) 
P1 P5+ 4 c 0.411(1) 0.0916(6) 0.250 1. 0 0.41(6) 
O1 O2- 4 c 0.724(3) 0.096(2) 0.250 1. 0 0.41(6) 
O2 O2- 4 c 0.219(2) 0.455(2) 0.250 1. 0 0.41(6) 
O3 O2- 8 d 0.280(2) 0.161(1) 0.049(2) 1. 0 0.41(6) 

#End of data_189096-ICSD


