data_167187-ICSD
#?2014 by Fachinformationszentrum Karlsruhe, and the U.S. Secretary of 
#Commerce on behalf of the United States.  All rights reserved.
_database_code_ICSD                167187
_audit_creation_date               2010/08/01
_chemical_name_systematic          'Dizinc Silicate - R'
_chemical_formula_structural       'Zn2 (Si O4)'
_chemical_formula_sum              'O4 Si1 Zn2'
_publ_section_title
;
Phase stability and pressure-induced structural transitions at zero 
temperature in Zn Si O3 and Zn2 Si O4
;
loop_
_citation_id
_citation_journal_abbrev
_citation_year
_citation_journal_volume
_citation_page_first
_citation_page_last
_citation_journal_id_ASTM
primary 'Journal of Physics: Condensed Matter' 2009 21 485801-01 485801-09 JCOMEL
_publ_author_name
;
Karazhanov, S.Z.;Ravindran, P.;Vajeeston, P.;Ulyashin, A.G.;Fjellvag, 
H.;Svensson, B.G.
;
_cell_length_a                     13.8469
_cell_length_b                     13.8469
_cell_length_c                     9.1781
_cell_angle_alpha                  90.
_cell_angle_beta                   90.
_cell_angle_gamma                  120.
_cell_volume                       1524.01
_cell_formula_units_Z              18
_symmetry_space_group_name_H-M     'R -3 H'
_symmetry_Int_Tables_number        148
loop_
_symmetry_equiv_pos_site_id
_symmetry_equiv_pos_as_xyz
  1	'x-y, x, -z'
  2	'y, -x+y, -z'
  3	'-x, -y, -z'
  4	'-x+y, -x, z'
  5	'-y, x-y, z'
  6	'x, y, z'
  7	'x-y+.6666, x+.3333, -z+.3333'
  8	'x-y+.3333, x+.6666, -z+.6666'
  9	'y+.6666, -x+y+.3333, -z+.3333'
 10	'y+.3333, -x+y+.6666, -z+.6666'
 11	'-x+.6666, -y+.3333, -z+.3333'
 12	'-x+.3333, -y+.6666, -z+.6666'
 13	'-x+y+.6666, -x+.3333, z+.3333'
 14	'-x+y+.3333, -x+.6666, z+.6666'
 15	'-y+.6666, x-y+.3333, z+.3333'
 16	'-y+.3333, x-y+.6666, z+.6666'
 17	'x+.6666, y+.3333, z+.3333'
 18	'x+.3333, y+.6666, z+.6666'
loop_
_atom_type_symbol
_atom_type_oxidation_number
O2-	-2
Si4+	4
Zn2+	2
loop_
_atom_site_label
_atom_site_type_symbol
_atom_site_symmetry_multiplicity
_atom_site_Wyckoff_symbol
_atom_site_fract_x
_atom_site_fract_y
_atom_site_fract_z
_atom_site_occupancy
_atom_site_attached_hydrogens
Zn1 Zn2+ 18 f 0.1908 0.2098 0.5843 1. 0 
Zn2 Zn2+ 18 f 0.5264 0.8818 0.5841 1. 0 
Si1 Si4+ 18 f 0.1951 0.2127 0.2499 1. 0 
O1 O2- 18 f 0.7924 0.5435 0.4376 1. 0 
O2 O2- 18 f 0.1271 0.2063 0.3974 1. 0 
O3 O2- 18 f 0.1083 0.2127 0.7507 1. 0 
O4 O2- 18 f 0.9854 0.6568 0.5838 1. 0 

#End of data_167187-ICSD


