data_410084-ICSD
#?2014 by Fachinformationszentrum Karlsruhe, and the U.S. Secretary of 
#Commerce on behalf of the United States.  All rights reserved.
_database_code_ICSD                410084
_audit_creation_date               2005/10/01
_audit_update_record               2006/10/01
_chemical_name_systematic          'Potassium Dihydrogenphosphate(V)'
_chemical_formula_structural       'K (H2 P O4)'
_chemical_formula_sum              'H2 K1 O4 P1'
_publ_section_title
;
Polymorphism of potassium dihydrogen phosphate
;
loop_
_citation_id
_citation_journal_abbrev
_citation_year
_citation_journal_volume
_citation_page_first
_citation_page_last
_citation_journal_id_ASTM
primary 'Chemistry of Materials' 1998 10 2053 2057 CMATEX
_publ_author_name
;
Subramony, J. A.;Lovell, S.;Kahr, B.
;
_cell_length_a                     6.1413(3)
_cell_length_b                     4.4990(2)
_cell_length_c                     14.2725(6)
_cell_angle_alpha                  90
_cell_angle_beta                   91.552(2)
_cell_angle_gamma                  90
_cell_volume                       394.2
_cell_formula_units_Z              4
_symmetry_space_group_name_H-M     'P 1 21/c 1'
_symmetry_Int_Tables_number        14
_refine_ls_R_factor_all            .0581
loop_
_symmetry_equiv_pos_site_id
_symmetry_equiv_pos_as_xyz
  1	'x, -y+.5, z+.5'
  2	'-x, -y, -z'
  3	'-x, y+.5, -z+.5'
  4	'x, y, z'
loop_
_atom_type_symbol
_atom_type_oxidation_number
H1+	1
K1+	1
O2-	-2
P5+	5
loop_
_atom_site_label
_atom_site_type_symbol
_atom_site_symmetry_multiplicity
_atom_site_Wyckoff_symbol
_atom_site_fract_x
_atom_site_fract_y
_atom_site_fract_z
_atom_site_occupancy
_atom_site_attached_hydrogens
_atom_site_U_iso_or_equiv
K1 K1+ 4 e 0.76312(15) 0.4893(2) 0.62961(7) 1 0 0.0346(5) 
P1 P5+ 4 e 0.73851(17) 0.4619(3) 0.87264(7) 1 0 0.0261(4) 
O1 O2- 4 e 0.6649(6) 0.2074(7) 0.8066(2) 1 0 0.0409(9) 
H1 H1+ 4 e 0.7158 -0.0413 0.8196 1 0 0.045 
O2 O2- 4 e 0.8379(5) 0.7074(7) 0.8158(2) 1 0 0.0343(8) 
O3 O2- 4 e 0.5388(7) 0.5821(11) 0.9224(2) 1 0 0.0615(13) 
H2 H1+ 2 d 0.5 0.5 0 1. 0 0.068 
O4 O2- 4 e 0.9017(6) 0.3300(7) 0.9445(2) 1 0 0.0391(9) 
H3 H1+ 2 c 0 0.5 0 1. 0 0.043 

loop_
_atom_site_aniso_label
_atom_site_aniso_type_symbol
_atom_site_aniso_U_11
_atom_site_aniso_U_22
_atom_site_aniso_U_33
_atom_site_aniso_U_12
_atom_site_aniso_U_13
_atom_site_aniso_U_23
K1 K1+ 0.0284(7) 0.0338(7) 0.0414(7) -0.0051(4) 0.0000(5) 0.0010(4)
P1 P5+ 0.0252(8) 0.0249(6) 0.0282(7) 0.0066(4) 0.0015(5) 0.0015(4)
O1 O2- 0.043(2) 0.0244(15) 0.0539(19) -0.0044(15) -0.0204(15) 0.0050(15)
O2 O2- 0.0355(19) 0.0267(15) 0.0410(17) -0.0014(14) 0.0052(14) -0.0034(14)
O3 O2- 0.053(2) 0.086(3) 0.047(2) 0.044(2) 0.0227(17) 0.030(2)
O4 O2- 0.041(2) 0.0369(17) 0.0390(17) 0.0145(15) -0.0125(14) -0.0067(15)
#End of data_410084-ICSD


