data_261427-ICSD
#?2014 by Fachinformationszentrum Karlsruhe, and the U.S. Secretary of 
#Commerce on behalf of the United States.  All rights reserved.
_database_code_ICSD                261427
_audit_creation_date               2011/08/01
_chemical_name_systematic
;
Barium Aluminium Fluoride (20/12/76)
;
_chemical_formula_structural       'Ba20 Al12 F76'
_chemical_formula_sum              'Al12 Ba20 F76'
_publ_section_title
;
Structure resolution of Ba5 Al3 F19 and investigation of fluorine ion 
dynamics by synchrotron powder diffraction, variable-temperature 
solid-state NMR, and quantum computations
;
loop_
_citation_id
_citation_journal_abbrev
_citation_year
_citation_journal_volume
_citation_journal_issue
_citation_page_first
_citation_page_last
_citation_journal_id_ASTM
primary 'Inorganic Chemistry' 2011 50 6 2644 2653 INOCAJ
_publ_author_name
;
Martineau, C.;Fayon, F.;Suchomel, M.R.;Allix, M.;Massiot, 
D.;Taulelle, F.
;
_cell_length_a                     14.5758
_cell_length_b                     14.5758
_cell_length_c                     7.4597
_cell_angle_alpha                  90.000
_cell_angle_beta                   90.000
_cell_angle_gamma                  90.000
_cell_volume                       1584.84
_cell_formula_units_Z              1
_symmetry_space_group_name_H-M     'I 4/m'
_symmetry_Int_Tables_number        87
loop_
_symmetry_equiv_pos_site_id
_symmetry_equiv_pos_as_xyz
  1	'-y, x, -z'
  2	'y, -x, -z'
  3	'x, y, -z'
  4	'-x, -y, -z'
  5	'y, -x, z'
  6	'-y, x, z'
  7	'-x, -y, z'
  8	'x, y, z'
  9	'-y+.5, x+.5, -z+.5'
 10	'y+.5, -x+.5, -z+.5'
 11	'x+.5, y+.5, -z+.5'
 12	'-x+.5, -y+.5, -z+.5'
 13	'y+.5, -x+.5, z+.5'
 14	'-y+.5, x+.5, z+.5'
 15	'-x+.5, -y+.5, z+.5'
 16	'x+.5, y+.5, z+.5'
loop_
_atom_type_symbol
_atom_type_oxidation_number
Al3+	3
Ba2+	2
F1-	-1
loop_
_atom_site_label
_atom_site_type_symbol
_atom_site_symmetry_multiplicity
_atom_site_Wyckoff_symbol
_atom_site_fract_x
_atom_site_fract_y
_atom_site_fract_z
_atom_site_occupancy
_atom_site_attached_hydrogens
Ba1 Ba2+ 8 h 0.08643 -0.23976 0.00000 1.000 0 
Ba2 Ba2+ 8 h -0.05384 -0.21335 0.50000 1.000 0 
Ba3 Ba2+ 4 d 0.00000 0.50000 0.25000 1.000 0 
Al1 Al3+ 8 h 0.15835 0.32195 0.00000 1.000 0 
Al2 Al3+ 4 e 0.00000 0.00000 0.24641 1.000 0 
F1 F1- 16 i 0.38849 0.44957 0.24144 1.000 0 
F2 F1- 16 i 0.19622 0.40474 0.16933 1.000 0 
F3 F1- 16 i 0.38578 0.25768 0.66682 1.000 0 
F4 F1- 8 h 0.26760 0.26560 0.00000 1.000 0 
F5 F1- 8 h 0.45260 0.12378 0.50000 1.000 0 
F6 F1- 8 h 0.42498 0.11649 0.00000 1.000 0 
F7 F1- 2 a 0.00000 0.00000 0.00000 1.000 0 
F8 F1- 2 b 0.00000 0.00000 0.50000 1.000 0 

#End of data_261427-ICSD


