data_245608-ICSD
#?2014 by Fachinformationszentrum Karlsruhe, and the U.S. Secretary of 
#Commerce on behalf of the United States.  All rights reserved.
_database_code_ICSD                245608
_audit_creation_date               2008/08/01
_chemical_name_systematic          'Sodium Tripalladium Tetraoxide'
_chemical_formula_structural       'Na Pd3 O4'
_chemical_formula_sum              'Na1 O4 Pd3'
_publ_section_title
;
Synthesis and crystal structure of the palladium oxides Na Pd3 O4, 
Na2 Pd O3 and K3 Pd2 O4
;
loop_
_citation_id
_citation_journal_abbrev
_citation_year
_citation_journal_volume
_citation_journal_issue
_citation_page_first
_citation_page_last
_citation_journal_id_ASTM
primary 'Journal of Solid State Chemistry' 2007 180 5 1566 1574 JSSCBI
_publ_author_name
;
Panin, R.V.;Khasanova, N.R.;Abakumov, A.M.;Antipov, E.V.;van 
Tendeloo, G.;Schnelle, W.
;
_cell_length_a                     5.64979(6)
_cell_length_b                     5.64979(6)
_cell_length_c                     5.64979(6)
_cell_angle_alpha                  90.
_cell_angle_beta                   90.
_cell_angle_gamma                  90.
_cell_volume                       180.34
_cell_formula_units_Z              2
_symmetry_space_group_name_H-M     'P m -3 n'
_symmetry_Int_Tables_number        223
_refine_ls_R_factor_all            .022
loop_
_symmetry_equiv_pos_site_id
_symmetry_equiv_pos_as_xyz
  1	'z+.5, -y+.5, x+.5'
  2	'y+.5, -x+.5, z+.5'
  3	'x+.5, -z+.5, y+.5'
  4	'-z+.5, y+.5, -x+.5'
  5	'-y+.5, x+.5, -z+.5'
  6	'-x+.5, z+.5, -y+.5'
  7	'z+.5, y+.5, -x+.5'
  8	'y+.5, x+.5, -z+.5'
  9	'x+.5, z+.5, -y+.5'
 10	'-z+.5, -y+.5, x+.5'
 11	'-y+.5, -x+.5, z+.5'
 12	'-x+.5, -z+.5, y+.5'
 13	'-z+.5, y+.5, x+.5'
 14	'-y+.5, x+.5, z+.5'
 15	'-x+.5, z+.5, y+.5'
 16	'z+.5, -y+.5, -x+.5'
 17	'y+.5, -x+.5, -z+.5'
 18	'x+.5, -z+.5, -y+.5'
 19	'-z+.5, -y+.5, -x+.5'
 20	'-y+.5, -x+.5, -z+.5'
 21	'-x+.5, -z+.5, -y+.5'
 22	'z+.5, y+.5, x+.5'
 23	'y+.5, x+.5, z+.5'
 24	'x+.5, z+.5, y+.5'
 25	'z, x, -y'
 26	'y, z, -x'
 27	'x, y, -z'
 28	'-z, -x, y'
 29	'-y, -z, x'
 30	'-x, -y, z'
 31	'z, -x, y'
 32	'y, -z, x'
 33	'x, -y, z'
 34	'-z, x, -y'
 35	'-y, z, -x'
 36	'-x, y, -z'
 37	'-z, x, y'
 38	'-y, z, x'
 39	'-x, y, z'
 40	'z, -x, -y'
 41	'y, -z, -x'
 42	'x, -y, -z'
 43	'-z, -x, -y'
 44	'-y, -z, -x'
 45	'-x, -y, -z'
 46	'z, x, y'
 47	'y, z, x'
 48	'x, y, z'
loop_
_atom_type_symbol
_atom_type_oxidation_number
Na1+	1
O2-	-2
Pd2.333+	2.333
loop_
_atom_site_label
_atom_site_type_symbol
_atom_site_symmetry_multiplicity
_atom_site_Wyckoff_symbol
_atom_site_fract_x
_atom_site_fract_y
_atom_site_fract_z
_atom_site_occupancy
_atom_site_attached_hydrogens
_atom_site_U_iso_or_equiv
Na1 Na1+ 2 a 0 0 0 1. 0 0.0187(6) 
Pd1 Pd2.333+ 6 c 0.25 0 0.5 1. 0 0.0134(1) 
O1 O2- 8 e 0.25 0.25 0.25 1. 0 0.0154(6) 

#End of data_245608-ICSD


