data_83656-ICSD
#?2014 by Fachinformationszentrum Karlsruhe, and the U.S. Secretary of 
#Commerce on behalf of the United States.  All rights reserved.
_database_code_ICSD                83656
_audit_creation_date               1998/06/26
_chemical_name_systematic
;
Dipotassium Dioxomolybdenum Bis(dioxomolybdodiarsenate)
;
_chemical_formula_structural       'K2 (Mo O2) ((Mo O2) As2 O7)2'
_chemical_formula_sum              'As4 K2 Mo3 O20'
_publ_section_title                'K2 Mo O2 (Mo O2 As2 O7)2'
loop_
_citation_id
_citation_journal_abbrev
_citation_year
_citation_journal_volume
_citation_page_first
_citation_page_last
_citation_journal_id_ASTM
primary 'Acta Crystallographica, Section C: Crystal Structure Communications'
 1996 52 2947 2949 ACSCEE
_publ_author_name                  'Faouzi Zid, M.;Jouini, T.'
_cell_length_a                     17.4790(40)
_cell_length_b                     8.929(2)
_cell_length_c                     11.959(3)
_cell_angle_alpha                  90.
_cell_angle_beta                   113.1(2)
_cell_angle_gamma                  90.
_cell_volume                       1716.79
_cell_formula_units_Z              4
_symmetry_space_group_name_H-M     'C 1 2/c 1'
_symmetry_Int_Tables_number        15
_refine_ls_R_factor_all            .03
loop_
_symmetry_equiv_pos_site_id
_symmetry_equiv_pos_as_xyz
  1	'x, -y, z+.5'
  2	'-x, -y, -z'
  3	'-x, y, -z+.5'
  4	'x, y, z'
  5	'x+.5, -y+.5, z+.5'
  6	'-x+.5, -y+.5, -z'
  7	'-x+.5, y+.5, -z+.5'
  8	'x+.5, y+.5, z'
loop_
_atom_type_symbol
_atom_type_oxidation_number
As5+	5
K1+	1
Mo6+	6
O2-	-2
loop_
_atom_site_label
_atom_site_type_symbol
_atom_site_symmetry_multiplicity
_atom_site_Wyckoff_symbol
_atom_site_fract_x
_atom_site_fract_y
_atom_site_fract_z
_atom_site_occupancy
_atom_site_attached_hydrogens
Mo1 Mo6+ 4 e 0 0.07625(9) 0.25 1. 0 
Mo2 Mo6+ 8 f 0.33253(3) 0.00224(6) 0.63929(5) 1. 0 
As1 As5+ 8 f 0.14033(4) 0.15230(7) 0.96064(6) 1. 0 
As2 As5+ 8 f 0.18233(4) 0.15611(7) 0.23339(5) 1. 0 
K1 K1+ 8 f 0.4003(1) 0.2572(2) 0.3932(1) 1. 0 
O1 O2- 8 f 0.0341(3) 0.1966(6) 0.3682(4) 1. 0 
O2 O2- 8 f 0.1094(3) 0.0333(5) 0.2354(4) 1. 0 
O3 O2- 8 f 0.0413(3) 0.1134(5) 0.8769(4) 1. 0 
O4 O2- 8 f 0.3665(3) 0.0402(6) 0.5291(4) 1. 0 
O5 O2- 8 f 0.4208(3) -.0054(6) 0.7655(4) 1. 0 
O6 O2- 8 f 0.2021(3) 0.2893(5) 0.3368(4) 1. 0 
O7 O2- 8 f 0.2010(3) 0.0027(5) 0.0103(4) 1. 0 
O8 O2- 8 f 0.1769(3) 0.2772(5) 0.8891(4) 1. 0 
O9 O2- 8 f 0.1393(3) 0.2430(5) 0.0912(4) 1. 0 
O10 O2- 8 f 0.2688(3) 0.0670(5) 0.2560(4) 1. 0 

loop_
_atom_site_aniso_label
_atom_site_aniso_type_symbol
_atom_site_aniso_U_11
_atom_site_aniso_U_22
_atom_site_aniso_U_33
_atom_site_aniso_U_12
_atom_site_aniso_U_13
_atom_site_aniso_U_23
Mo1 Mo6+ 0.0069(4) 0.0099(4) 0.0085(4) 0 0.0014(3) 0
Mo2 Mo6+ 0.0101(3) 0.0097(3) 0.0094(3) -.0017(2) 0.0038(2) -.0013(2)
As1 As5+ 0.0072(3) 0.0085(3) 0.0074(3) -.0005(3) 0.0006(2) 0.0009(3)
As2 As5+ 0.0079(3) 0.0087(3) 0.0075(3) -.0007(2) 0.0027(3) -.0009(3)
K1 K1+ 0.034(1) 0.031(1) 0.0176(8) -.0160(8) 0.0065(7) -.0021(7)
O1 O2- 0.020(3) 0.024(3) 0.020(3) -.005(2) 0.008(2) -.006(2)
O2 O2- 0.014(2) 0.008(2) 0.016(2) -.002(2) 0.008(2) -.003(2)
O3 O2- 0.009(2) 0.018(3) 0.013(2) -.003(2) 0.001(2) -.006(2)
O4 O2- 0.031(3) 0.025(3) 0.019(3) -.007(2) 0.015(2) 0.000(2)
O5 O2- 0.011(2) 0.028(3) 0.016(3) -.003(2) 0.002(2) -.002(2)
O6 O2- 0.025(3) 0.013(2) 0.010(2) -.001(2) 0.003(2) -.004(2)
O7 O2- 0.015(2) 0.011(2) 0.013(2) 0.003(2) 0.000(2) 0.000(2)
O8 O2- 0.016(2) 0.012(2) 0.013(2) -.001(2) 0.007(2) 0.005(2)
O9 O2- 0.018(2) 0.013(2) 0.006(2) 0.003(2) 0.003(2) -.001(2)
O10 O2- 0.007(2) 0.021(2) 0.010(2) 0.005(2) 0.002(2) 0.004(2)
#End of data_83656-ICSD


