data_184562-ICSD
#?2014 by Fachinformationszentrum Karlsruhe, and the U.S. Secretary of 
#Commerce on behalf of the United States.  All rights reserved.
_database_code_ICSD                184562
_audit_creation_date               2012/08/01
_chemical_name_systematic          'Sodium Hexafluoroarsenate(V)'
_chemical_formula_structural       'Na (As F6)'
_chemical_formula_sum              'As1 F6 Na1'
_publ_section_title
;
Structural Investigation of alpha- and beta-sodium 
haxafluoroarsenate, NaAsF6, by variable temperature X-ray powder 
diffraction and multinuclear solid state NMR, and DFT calculations
;
loop_
_citation_id
_citation_journal_abbrev
_citation_year
_citation_journal_volume
_citation_journal_issue
_citation_page_first
_citation_page_last
_citation_journal_id_ASTM
primary 'Journal of Physical Chemistry C' 2012 116 21 11682 11693 JPCCCK
_publ_author_name
;
Biswal, M.;Body, M.;Legein, C.;Corbel, G.;Sadoc, A.;Boucher, F.
;
_cell_length_a                     5.3375(5)
_cell_length_b                     5.3375(5)
_cell_length_c                     13.9645(12)
_cell_angle_alpha                  90.
_cell_angle_beta                   90.
_cell_angle_gamma                  120.
_cell_volume                       344.53
_cell_formula_units_Z              3
_symmetry_space_group_name_H-M     'R -3 H'
_symmetry_Int_Tables_number        148
_refine_ls_R_factor_all            .028
loop_
_symmetry_equiv_pos_site_id
_symmetry_equiv_pos_as_xyz
  1	'x-y, x, -z'
  2	'y, -x+y, -z'
  3	'-x, -y, -z'
  4	'-x+y, -x, z'
  5	'-y, x-y, z'
  6	'x, y, z'
  7	'x-y+.6666, x+.3333, -z+.3333'
  8	'x-y+.3333, x+.6666, -z+.6666'
  9	'y+.6666, -x+y+.3333, -z+.3333'
 10	'y+.3333, -x+y+.6666, -z+.6666'
 11	'-x+.6666, -y+.3333, -z+.3333'
 12	'-x+.3333, -y+.6666, -z+.6666'
 13	'-x+y+.6666, -x+.3333, z+.3333'
 14	'-x+y+.3333, -x+.6666, z+.6666'
 15	'-y+.6666, x-y+.3333, z+.3333'
 16	'-y+.3333, x-y+.6666, z+.6666'
 17	'x+.6666, y+.3333, z+.3333'
 18	'x+.3333, y+.6666, z+.6666'
loop_
_atom_type_symbol
_atom_type_oxidation_number
As5+	5
F1-	-1
Na1+	1
loop_
_atom_site_label
_atom_site_type_symbol
_atom_site_symmetry_multiplicity
_atom_site_Wyckoff_symbol
_atom_site_fract_x
_atom_site_fract_y
_atom_site_fract_z
_atom_site_occupancy
_atom_site_attached_hydrogens
_atom_site_U_iso_or_equiv
F1 F1- 18 f 0.0402(8) 0.2763(9) 0.0713(4) 1. 0 0.053(3) 
As1 As5+ 3 a 0 0 0 1. 0 0.035(1) 
Na1 Na1+ 3 b 0 0 0.5 1. 0 0.042(3) 

#End of data_184562-ICSD


