data_412135-ICSD
#?2014 by Fachinformationszentrum Karlsruhe, and the U.S. Secretary of 
#Commerce on behalf of the United States.  All rights reserved.
_database_code_ICSD                412135
_audit_creation_date               2004/04/01
_chemical_name_systematic          'Tetrapotassium Germanate - Beta'
_chemical_formula_structural       'K4 (Ge O4)'
_chemical_formula_sum              'Ge1 K4 O4'
_publ_section_title
;
Neue Oxogermanate(IV) der schweren Alkalimetalle. Synthese und 
Kristallstrukturen
;
loop_
_citation_id
_citation_journal_abbrev
_citation_year
_citation_journal_volume
_citation_page_first
_citation_page_last
_citation_journal_id_ASTM
primary 'Zeitschrift fuer Naturforschung, B: Chemical Sciences'
 2001 56 1245 1256 ZNBSEN
_publ_author_name                  'Hoch, C.;Roehr, C.'
_cell_length_a                     10.476(3)
_cell_length_b                     6.460(2)
_cell_length_c                     10.481(3)
_cell_angle_alpha                  90.
_cell_angle_beta                   112.291(5)
_cell_angle_gamma                  90.
_cell_volume                       656.29
_cell_formula_units_Z              4
_symmetry_space_group_name_H-M     'P 1 21/c 1'
_symmetry_Int_Tables_number        14
_refine_ls_R_factor_all            .0562
loop_
_symmetry_equiv_pos_site_id
_symmetry_equiv_pos_as_xyz
  1	'x, -y+.5, z+.5'
  2	'-x, -y, -z'
  3	'-x, y+.5, -z+.5'
  4	'x, y, z'
loop_
_atom_type_symbol
_atom_type_oxidation_number
Ge4+	4
K1+	1
O2-	-2
loop_
_atom_site_label
_atom_site_type_symbol
_atom_site_symmetry_multiplicity
_atom_site_Wyckoff_symbol
_atom_site_fract_x
_atom_site_fract_y
_atom_site_fract_z
_atom_site_occupancy
_atom_site_attached_hydrogens
_atom_site_U_iso_or_equiv
K1 K1+ 4 e 0.6603(4) 0.3893(5) 0.0873(4) 1. 0 0.0283(5) 
K2 K1+ 4 e 0.1346(4) 0.6565(5) 0.1066(5) 1. 0 0.0415(9) 
K3 K1+ 4 e 0.4428(4) 0.4051(5) 0.3049(4) 1. 0 0.0331(6) 
K4 K1+ 4 e 0.0604(4) 0.1745(5) 0.1932(4) 1. 0 0.0414(8) 
Ge1 Ge4+ 4 e 0.25385(12) 0.1318(3) 0.00384(12) 1. 0 0.0192(3) 
O1 O2- 4 e 0.1295(9) 0.1693(16) 0.4785(9) 1. 0 0.045(3) 
O2 O2- 4 e 0.2005(8) 0.5285(16) 0.3584(9) 1. 0 0.036(2) 
O3 O2- 4 e 0.4163(8) 0.2507(12) 0.0350(9) 1. 0 0.0279(19) 
O4 O2- 4 e 0.2736(10) 0.516(2) 0.6503(10) 1. 0 0.055(3) 

loop_
_atom_site_aniso_label
_atom_site_aniso_type_symbol
_atom_site_aniso_U_11
_atom_site_aniso_U_22
_atom_site_aniso_U_33
_atom_site_aniso_U_12
_atom_site_aniso_U_13
_atom_site_aniso_U_23
K1 K1+ 0.0281(18) 0.0331(13) 0.0244(19) -0.0015(11) 0.0108(9) -0.0031(11)
K2 K1+ 0.033(2) 0.050(2) 0.037(2) 0.0026(18) 0.0082(12) 0.001(2)
K3 K1+ 0.033(2) 0.0460(16) 0.025(2) -0.0072(15) 0.0159(10) -0.0079(15)
K4 K1+ 0.0334(18) 0.070(2) 0.0264(19) 0.009(2) 0.0178(11) 0.009(2)
Ge1 Ge4+ 0.0150(11) 0.0295(5) 0.0158(11) -0.0008(6) 0.0089(3) 0.0013(6)
O1 O2- 0.043(6) 0.068(7) 0.021(5) -0.028(5) 0.010(4) -0.001(5)
O2 O2- 0.017(4) 0.051(6) 0.037(5) 0.003(4) 0.008(4) 0.017(5)
O3 O2- 0.026(4) 0.029(5) 0.036(5) -0.009(4) 0.019(4) -0.005(4)
O4 O2- 0.040(6) 0.100(9) 0.028(5) 0.013(6) 0.016(4) -0.017(6)
#End of data_412135-ICSD


