data_173102-ICSD
#?2014 by Fachinformationszentrum Karlsruhe, and the U.S. Secretary of 
#Commerce on behalf of the United States.  All rights reserved.
_database_code_ICSD                173102
_audit_creation_date               2008/08/01
_chemical_name_systematic
;
Lithium Tetrahydridoborate - Phase Ii
;
_chemical_formula_structural       'Li B H4'
_chemical_formula_sum              'H4 B1 Li1'
_publ_section_title
;
High-pressure polymorphism as a step towards destabilization of Li B 
H4
;
loop_
_citation_id
_citation_journal_abbrev
_citation_year
_citation_journal_volume
_citation_journal_issue
_citation_page_first
_citation_page_last
_citation_journal_id_ASTM
primary 'Angewandte Chemie. International Edition' 2008 47 3 529 532 ACIEF5
_publ_author_name
;
Filinchuk, Ya.;Chernyshov, D.;Nevidomskyy, A.;Dmitriev, V.
;
_cell_length_a                     6.4494(9)
_cell_length_b                     5.3070(13)
_cell_length_c                     5.2919(9)
_cell_angle_alpha                  90.00000
_cell_angle_beta                   90.00000
_cell_angle_gamma                  90.00000
_cell_volume                       181.13
_cell_formula_units_Z              4
_symmetry_space_group_name_H-M     'A m a 2'
_symmetry_Int_Tables_number        40
_refine_ls_R_factor_all            .043
loop_
_symmetry_equiv_pos_site_id
_symmetry_equiv_pos_as_xyz
  1	'x+.5, -y, z'
  2	'-x+.5, y, z'
  3	'-x, -y, z'
  4	'x, y, z'
  5	'x+.5, -y+.5, z+.5'
  6	'-x+.5, y+.5, z+.5'
  7	'-x, -y+.5, z+.5'
  8	'x, y+.5, z+.5'
loop_
_atom_type_symbol
_atom_type_oxidation_number
B3+	3
H1-	-1
Li1+	1
loop_
_atom_site_label
_atom_site_type_symbol
_atom_site_symmetry_multiplicity
_atom_site_Wyckoff_symbol
_atom_site_fract_x
_atom_site_fract_y
_atom_site_fract_z
_atom_site_occupancy
_atom_site_attached_hydrogens
_atom_site_U_iso_or_equiv
Li1 Li1+ 4 a 0.00000 0.00000 0.00000 1.00000 0 0.0246(12) 
B1 B3+ 4 b 0.25000 0.2711(4) 0.1730(5) 1.00000 0 0.0528(18) 
H1 H1- 8 c 0.0954(10) 0.3338(13) 0.0743(15) 1.00000 0 0.0528(18) 
H2 H1- 4 b 0.25000 0.0497(5) 0.1831(9) 1.00000 0 0.0528(18) 
H3 H1- 4 b 0.25000 0.3513(13) 0.3803(8) 1.00000 0 0.0528(18) 

#End of data_173102-ICSD


