data_172062-ICSD
#?2014 by Fachinformationszentrum Karlsruhe, and the U.S. Secretary of 
#Commerce on behalf of the United States.  All rights reserved.
_database_code_ICSD                172062
_audit_creation_date               2007/04/01
_chemical_name_systematic
;
Dipotassium Hexaaquairon(II) Bis(sulfate)
;
_chemical_formula_structural       'K2 (Fe (H2 O)6) (S O4)2'
_chemical_formula_sum              'H12 Fe1 K2 O14 S2'
_publ_section_title
;
Rietveld refinement of the Tutton salt K2 [Fe (H2 O)6] (S O4)2
;
loop_
_citation_id
_citation_journal_abbrev
_citation_year
_citation_journal_volume
_citation_journal_issue
_citation_page_first
_citation_page_last
_citation_journal_id_ASTM
primary 'Acta Crystallographica, Section E. Structure Reports Online'
 2006 62 3 i58 i60 ACSEBH
_publ_author_name                  'Ballirano, P.;Belardi, G.'
_cell_length_a                     9.0766(3)
_cell_length_b                     12.2646(4)
_cell_length_c                     6.1689(2)
_cell_angle_alpha                  90
_cell_angle_beta                   104.5478(16)
_cell_angle_gamma                  90
_cell_volume                       664.71
_cell_formula_units_Z              2
_symmetry_space_group_name_H-M     'P 1 21/a 1'
_symmetry_Int_Tables_number        14
_refine_ls_R_factor_all            .0504
loop_
_symmetry_equiv_pos_site_id
_symmetry_equiv_pos_as_xyz
  1	'x+.5, -y+.5, z'
  2	'-x, -y, -z'
  3	'-x+.5, y+.5, -z'
  4	'x, y, z'
loop_
_atom_type_symbol
_atom_type_oxidation_number
Fe2+	2
H1+	1
K1+	1
O2-	-2
S6+	6
loop_
_atom_site_label
_atom_site_type_symbol
_atom_site_symmetry_multiplicity
_atom_site_Wyckoff_symbol
_atom_site_fract_x
_atom_site_fract_y
_atom_site_fract_z
_atom_site_occupancy
_atom_site_attached_hydrogens
_atom_site_U_iso_or_equiv
Fe1 Fe2+ 2 a 0 0 0 1 0 0.016(3) 
K1 K1+ 4 e 0.1325(5) 0.3470(4) 0.3443(8) 1 0 0.033(3) 
S1 S6+ 4 e 0.4114(7) 0.1356(5) -0.2731(10) 1 0 0.022(3) 
O1 O2- 4 e 0.2832(14) 0.0612(11) -0.379(2) 1 0 0.026(3) 
O2 O2- 4 e 0.4111(16) 0.2300(11) -0.427(2) 1 0 0.026(3) 
O3 O2- 4 e 0.3916(16) 0.1690(11) -0.051(2) 1 0 0.026(3) 
O4 O2- 4 e 0.5533(14) 0.0746(10) -0.248(2) 1 0 0.026(3) 
O5 O2- 4 e 0.1769(14) 0.1134(9) 0.1698(18) 1 0 0.017(4) 
O6 O2- 4 e -0.1717(13) 0.1144(10) 0.0302(18) 1 0 0.017(4) 
O7 O2- 4 e 0.0021(14) 0.0695(9) -0.3069(19) 1 0 0.017(4) 
H1 H1+ 4 e 0.25 0.109 0.077 1 0 0.05 
H2 H1+ 4 e 0.234 0.096 0.319 1 0 0.05 
H3 H1+ 4 e -0.132 0.185 0.073 1 0 0.05 
H4 H1+ 4 e -0.281 0.114 0.001 1 0 0.05 
H5 H1+ 4 e -0.032 0.141 -0.273 1 0 0.05 
H6 H1+ 4 e 0.113 0.071 -0.262 1 0 0.05 

#End of data_172062-ICSD


