data_280261-ICSD
#?2014 by Fachinformationszentrum Karlsruhe, and the U.S. Secretary of 
#Commerce on behalf of the United States.  All rights reserved.
_database_code_ICSD                280261
_audit_creation_date               2001/07/16
_audit_update_record               2010/08/01
_chemical_name_systematic
;
Dipotassium Undecathiononamolybdate
;
_chemical_formula_structural       'K2 (Mo9 S11)'
_chemical_formula_sum              'K2 Mo9 S11'
_publ_section_title
;
Synthesis, structural evolution and theoretical and physical studies 
of the novel compounds M2 Mo9 S11 (M= K, Rb) and related metastable 
materials Cu(x) K1.8 Mo9 S11 (x= 0 or 2) containing bioctahedral Mo9 
clusters
;
loop_
_citation_id
_citation_journal_abbrev
_citation_year
_citation_journal_volume
_citation_page_first
_citation_page_last
_citation_journal_id_ASTM
primary 'Inorganic Chemistry' 1999 38 4422 4429 INOCAJ
_publ_author_name
;
Picard, S.;Halet, J.F.;Gougeon, P.;Potel, M.
;
_cell_length_a                     9.271(1)
_cell_length_b                     9.271(1)
_cell_length_c                     35.9850(90)
_cell_angle_alpha                  90.
_cell_angle_beta                   90.
_cell_angle_gamma                  120.
_cell_volume                       2678.58
_cell_formula_units_Z              6
_symmetry_space_group_name_H-M     'R -3 c H'
_symmetry_Int_Tables_number        167
_refine_ls_R_factor_all            .0237
loop_
_symmetry_equiv_pos_site_id
_symmetry_equiv_pos_as_xyz
  1	'x-y, -y, -z+.5'
  2	'-x, -x+y, -z+.5'
  3	'y, x, -z+.5'
  4	'x-y, x, -z'
  5	'y, -x+y, -z'
  6	'-x, -y, -z'
  7	'-x+y, y, z+.5'
  8	'x, x-y, z+.5'
  9	'-y, -x, z+.5'
 10	'-x+y, -x, z'
 11	'-y, x-y, z'
 12	'x, y, z'
 13	'x-y+.6666, -y+.3333, -z+.8333'
 14	'x-y+.3333, -y+.6666, -z+.1666'
 15	'-x+.6666, -x+y+.3333, -z+.8333'
 16	'-x+.3333, -x+y+.6666, -z+.1666'
 17	'y+.6666, x+.3333, -z+.8333'
 18	'y+.3333, x+.6666, -z+.1666'
 19	'x-y+.6666, x+.3333, -z+.3333'
 20	'x-y+.3333, x+.6666, -z+.6666'
 21	'y+.6666, -x+y+.3333, -z+.3333'
 22	'y+.3333, -x+y+.6666, -z+.6666'
 23	'-x+.6666, -y+.3333, -z+.3333'
 24	'-x+.3333, -y+.6666, -z+.6666'
 25	'-x+y+.6666, y+.3333, z+.8333'
 26	'-x+y+.3333, y+.6666, z+.1666'
 27	'x+.6666, x-y+.3333, z+.8333'
 28	'x+.3333, x-y+.6666, z+.1666'
 29	'-y+.6666, -x+.3333, z+.8333'
 30	'-y+.3333, -x+.6666, z+.1666'
 31	'-x+y+.6666, -x+.3333, z+.3333'
 32	'-x+y+.3333, -x+.6666, z+.6666'
 33	'-y+.6666, x-y+.3333, z+.3333'
 34	'-y+.3333, x-y+.6666, z+.6666'
 35	'x+.6666, y+.3333, z+.3333'
 36	'x+.3333, y+.6666, z+.6666'
loop_
_atom_type_symbol
_atom_type_oxidation_number
K1+	1
Mo2.22+	2.22
S2-	-2
loop_
_atom_site_label
_atom_site_type_symbol
_atom_site_symmetry_multiplicity
_atom_site_Wyckoff_symbol
_atom_site_fract_x
_atom_site_fract_y
_atom_site_fract_z
_atom_site_occupancy
_atom_site_attached_hydrogens
Mo1 Mo2.22+ 18 e 0 0.16807(1) 0.25 1. 0 
Mo2 Mo2.22+ 36 f 0.16978(1) 0.15935(1) 0.187210(3) 1. 0 
S1 S2- 18 e 0.30717(5) 0.30717(5) 0.25 1. 0 
S2 S2- 36 f 0.02395(4) 0.31745(4) 0.192220(8) 1. 0 
S3 S2- 12 c 0 1 0.13603(1) 1. 0 
K1 K1+ 12 c 0 1 0.05303(1) 1. 0 

loop_
_atom_site_aniso_label
_atom_site_aniso_type_symbol
_atom_site_aniso_U_11
_atom_site_aniso_U_22
_atom_site_aniso_U_33
_atom_site_aniso_U_12
_atom_site_aniso_U_13
_atom_site_aniso_U_23
Mo1 Mo2.22+ 0.00705(6) 0.00715(4) 0.00549(5) 0.00353(3) -.00091(4) 
-.00046(2)
Mo2 Mo2.22+ 0.00764(4) 0.00734(4) 0.00599(4) 0.00391(3) 0.00005(3) 
0.00073(3)
S1 S2- 0.0086(1) 0.0086(1) 0.0110(2) 0.0027(1) -.00088(7) 0.00088(7)
S2 S2- 0.0101(1) 0.0085(1) 0.0090(1) 0.0052(1) -.00211(9) 0.00034(9)
S3 S2- 0.0128(1) 0.0128(1) 0.0054(2) 0.00642(7) 0 0
K1 K1+ 0.0269(2) 0.0269(2) 0.0154(2) 0.01347(9) 0 0
#End of data_280261-ICSD


