data_30931-ICSD
#?2014 by Fachinformationszentrum Karlsruhe, and the U.S. Secretary of 
#Commerce on behalf of the United States.  All rights reserved.
_database_code_ICSD                30931
_audit_creation_date               1986/04/14
_audit_update_record               2010/08/01
_chemical_name_systematic          'Silver Manganate(VII)'
_chemical_formula_structural       'Ag (Mn O4)'
_chemical_formula_sum              'Ag1 Mn1 O4'
_publ_section_title
;
Crystal structure refinement of silver permanganate
;
loop_
_citation_id
_citation_journal_abbrev
_citation_year
_citation_journal_volume
_citation_page_first
_citation_page_last
_citation_journal_id_ASTM
primary 'Zeitschrift fuer Kristallographie (1979-2010)' 1984 169 295 298 ZEKRDZ
_publ_author_name                  'Chang, F.M.;Jansen, M.'
_cell_length_a                     5.623(4)
_cell_length_b                     8.349(5)
_cell_length_c                     7.140(5)
_cell_angle_alpha                  90.
_cell_angle_beta                   92.44(5)
_cell_angle_gamma                  90.
_cell_volume                       334.89
_cell_formula_units_Z              4
_symmetry_space_group_name_H-M     'P 1 21/n 1'
_symmetry_Int_Tables_number        14
_refine_ls_R_factor_all            .04
loop_
_symmetry_equiv_pos_site_id
_symmetry_equiv_pos_as_xyz
  1	'-x+.5, y+.5, -z+.5'
  2	'-x, -y, -z'
  3	'x+.5, -y+.5, z+.5'
  4	'x, y, z'
loop_
_atom_type_symbol
_atom_type_oxidation_number
Ag1+	1
Mn7+	7
O2-	-2
loop_
_atom_site_label
_atom_site_type_symbol
_atom_site_symmetry_multiplicity
_atom_site_Wyckoff_symbol
_atom_site_fract_x
_atom_site_fract_y
_atom_site_fract_z
_atom_site_occupancy
_atom_site_attached_hydrogens
Ag1 Ag1+ 4 e 0.2495(1) 0.0327(1) 0.1648(1) 1. 0 
Mn1 Mn7+ 4 e 0.2572(1) 0.1869(1) 0.6613(1) 1. 0 
O1 O2- 4 e 0.3864(5) 0.3504(4) 0.5918(4) 1. 0 
O2 O2- 4 e -.0138(5) 0.2239(4) 0.7168(4) 1. 0 
O3 O2- 4 e 0.4058(5) 0.1185(4) 0.8456(4) 1. 0 
O4 O2- 4 e 0.2526(7) 0.0564(4) 0.4963(5) 1. 0 

loop_
_atom_site_aniso_label
_atom_site_aniso_type_symbol
_atom_site_aniso_U_11
_atom_site_aniso_U_22
_atom_site_aniso_U_33
_atom_site_aniso_U_12
_atom_site_aniso_U_13
_atom_site_aniso_U_23
Ag1 Ag1+ 0.0227(1) 0.0337(2) 0.0292(2) 0.0030(1) -.0013(1) -.0046(1)
Mn1 Mn7+ 0.0170(2) 0.0214(3) 0.0204(2) -.0002(2) 0.0007(21) 0.0008(2)
O1 O2- 0.0267(13) 0.0309(18) 0.0347(14) -.0062(13) 0.0000(11) 0.0083(13)
O2 O2- 0.0213(12) 0.0374(21) 0.0343(15) 0.0042(12) 0.0061(10) 0.0027(13)
O3 O2- 0.0275(13) 0.0374(19) 0.0279(13) 0.0039(13) -.0039(10) 0.0069(13)
O4 O2- 0.0392(16) 0.0329(20) 0.0333(15) -.0059(15) 0.0042(12) -.0104(14)
#End of data_30931-ICSD


