data_248044-ICSD
#?2014 by Fachinformationszentrum Karlsruhe, and the U.S. Secretary of 
#Commerce on behalf of the United States.  All rights reserved.
_database_code_ICSD                248044
_audit_creation_date               2010/08/01
_chemical_name_systematic
;
Potassium Manganese(II) Hexacyanomanganate(II)
;
_chemical_formula_structural       'K2 Mn (Mn (C N)6)'
_chemical_formula_sum              'C6 K2 Mn2 N6'
_publ_section_title
;
Anomalous non-prussian blue structures and magnetic ordering of K2 
Mn(II) [Mn(II) (C N)6] and Rb2 Mn(II) [Mn(II) (C N)6]
;
loop_
_citation_id
_citation_journal_abbrev
_citation_year
_citation_journal_volume
_citation_journal_issue
_citation_page_first
_citation_page_last
_citation_journal_id_ASTM
primary 'Inorganic Chemistry' 2010 49 4 1524 1534 INOCAJ
_publ_author_name
;
Her Jae-Hyuk;Stephens, P.W.;Kareis, C.M.;Moore, J.G.;Min Kil Sik;Park 
Jong-Won;Bali, G.;Kennon, B.S.;Miller, J.S.
;
_cell_length_a                     10.17855(13)
_cell_length_b                     7.41244(10)
_cell_length_c                     6.97575(11)
_cell_angle_alpha                  90
_cell_angle_beta                   90.2058(11)
_cell_angle_gamma                  90
_cell_volume                       526.3
_cell_formula_units_Z              2
_symmetry_space_group_name_H-M     'P 1 21/n 1'
_symmetry_Int_Tables_number        14
_refine_ls_R_factor_all            .06
loop_
_symmetry_equiv_pos_site_id
_symmetry_equiv_pos_as_xyz
  1	'-x+.5, y+.5, -z+.5'
  2	'-x, -y, -z'
  3	'x+.5, -y+.5, z+.5'
  4	'x, y, z'
loop_
_atom_type_symbol
_atom_type_oxidation_number
C2+	2
K1+	1
Mn2+	2
N3-	-3
loop_
_atom_site_label
_atom_site_type_symbol
_atom_site_symmetry_multiplicity
_atom_site_Wyckoff_symbol
_atom_site_fract_x
_atom_site_fract_y
_atom_site_fract_z
_atom_site_occupancy
_atom_site_attached_hydrogens
_atom_site_B_iso_or_equiv
Mn1 Mn2+ 2 a 0 0 0 1 0 1.433(93) 
Mn2 Mn2+ 2 d 0 0.5 0.5 1 0 1.058(90) 
N1 N3- 4 e 0.45151(72) 0.25827(98) 0.8528(12) 1 0 1.25(16) 
C1 C2+ 4 e 0.53490(91) 0.6329(14) 0.2734(14) 1 0 1.25(16) 
N2 N3- 4 e 0.05809(71) 0.3424(10) 0.7626(11) 1 0 1.12(16) 
C2 C2+ 4 e 0.96115(89) 0.7817(12) 0.1367(15) 1 0 1.12(16) 
N3 N3- 4 e 0.19932(76) 0.4750(12) 0.3899(10) 1 0 1.20(12) 
C3 C2+ 4 e 0.69047(95) 0.5167(15) 0.5736(13) 1 0 1.20(12) 
K1 K1+ 4 e 0.75043(35) 0.93212(16) 0.47965(25) 1 0 3.458(55) 

#End of data_248044-ICSD


