data_50144-ICSD
#?2014 by Fachinformationszentrum Karlsruhe, and the U.S. Secretary of 
#Commerce on behalf of the United States.  All rights reserved.
_database_code_ICSD                50144
_audit_creation_date               1999/01/19
_audit_update_record               2012/08/01
_chemical_name_systematic          'Calcium Titanium Oxide Silicate'
_chemical_formula_structural       'Ca Ti O (Si O4)'
_chemical_formula_sum              'Ca1 O5 Si1 Ti1'
_chemical_name_mineral             Titanite
_publ_section_title
;
Structural investigations along the join Ca Ti O Si O4 - Ca Sn O SiO4
;
loop_
_citation_id
_citation_journal_abbrev
_citation_year
_citation_journal_volume
_citation_page_first
_citation_page_last
_citation_journal_id_ASTM
primary 'Schweizerische Mineralogische und Petrographische Mitteilungen'
 1997 77 1 11 SMPTA8
2 'Golden Book of Phase Transitions, Wroclaw' 2002 1 1 123 GBOPT5
_publ_author_name
;
Kunz, M.;Xirouchakis, D.;Wang, Y.-B.;Parise, J.B.;Lindsley, D.H.
;
_cell_length_a                     7.06104(4)
_cell_length_b                     8.71380(5)
_cell_length_c                     6.55853(4)
_cell_angle_alpha                  90.
_cell_angle_beta                   113.8080(5)
_cell_angle_gamma                  90.
_cell_volume                       369.2
_cell_formula_units_Z              4
_symmetry_space_group_name_H-M     'P 1 21/a 1'
_symmetry_Int_Tables_number        14
_refine_ls_R_factor_all            .0388
loop_
_symmetry_equiv_pos_site_id
_symmetry_equiv_pos_as_xyz
  1	'x+.5, -y+.5, z'
  2	'-x, -y, -z'
  3	'-x+.5, y+.5, -z'
  4	'x, y, z'
loop_
_atom_type_symbol
_atom_type_oxidation_number
Ca2+	2
O2-	-2
Si4+	4
Ti4+	4
loop_
_atom_site_label
_atom_site_type_symbol
_atom_site_symmetry_multiplicity
_atom_site_Wyckoff_symbol
_atom_site_fract_x
_atom_site_fract_y
_atom_site_fract_z
_atom_site_occupancy
_atom_site_attached_hydrogens
_atom_site_U_iso_or_equiv
Ca1 Ca2+ 4 e 0.2425(7) 0.4171(2) 0.2517(8) 1. 0 0.0058(5) 
Ti1 Ti4+ 4 e 0.5162(4) 0.2529(5) 0.7488(5) 1. 0 0.0010(3) 
Si1 Si4+ 4 e 0.7517(8) 0.4331(2) 0.2494(1) 1. 0 0.0025(3) 
O1 O2- 4 e 0.751(2) 0.3209(4) 0.743(2) 1. 0 0.005(3) 
O2 O2- 4 e 0.909(1) 0.3152(9) 0.435(1) 1. 0 0.005(3) 
O3 O2- 4 e 0.382(1) 0.462(1) 0.648(2) 1. 0 0.005(3) 
O4 O2- 4 e 0.102(1) 0.187(1) 0.071(2) 1. 0 0.005(3) 
O5 O2- 4 e 0.9132(9) 0.5373(9) 0.154(1) 1. 0 0.005(3) 

#End of data_50144-ICSD


