data_166942-ICSD
#?2014 by Fachinformationszentrum Karlsruhe, and the U.S. Secretary of 
#Commerce on behalf of the United States.  All rights reserved.
_database_code_ICSD                166942
_audit_creation_date               2010/08/01
_chemical_name_systematic
;
Dilithium Dodecahydro-closo-dodecaborate - Ammonia (1/7)
;
_chemical_formula_structural       '(Li2 (B12 H12)) (N H3)7'
_chemical_formula_sum              'H33 B12 Li2 N7'
_publ_section_title
;
Li2 B12 H12 * (NH3)7 : a new ammine complex for ammonia storage or 
indirect hydrogen
;
loop_
_citation_id
_citation_journal_abbrev
_citation_year
_citation_journal_volume
_citation_page_first
_citation_page_last
_citation_journal_id_ASTM
primary 'Journal of Materials Chemistry' 2010 20 2743 2745 JMACEP
_publ_author_name
;
Huang Zhenguo;Gallucci, J.;Chen Xuenian;Yisgedu T.;Kumar Lingam, 
H.;Shore, S.G.;Zhao Jicheng
;
_cell_length_a                     8.3050(17)
_cell_length_b                     14.729(3)
_cell_length_c                     15.728(3)
_cell_angle_alpha                  90.00
_cell_angle_beta                   98.90(3)
_cell_angle_gamma                  90.00
_cell_volume                       1900.75
_cell_formula_units_Z              4
_symmetry_space_group_name_H-M     'P 1 21/n 1'
_symmetry_Int_Tables_number        14
_refine_ls_R_factor_all            .0584
loop_
_symmetry_equiv_pos_site_id
_symmetry_equiv_pos_as_xyz
  1	'-x+.5, y+.5, -z+.5'
  2	'-x, -y, -z'
  3	'x+.5, -y+.5, z+.5'
  4	'x, y, z'
loop_
_atom_type_symbol
_atom_type_oxidation_number
B.833+	.833
H1-	-1
H1+	1
Li1+	1
N3-	-3
loop_
_atom_site_label
_atom_site_type_symbol
_atom_site_symmetry_multiplicity
_atom_site_Wyckoff_symbol
_atom_site_fract_x
_atom_site_fract_y
_atom_site_fract_z
_atom_site_occupancy
_atom_site_attached_hydrogens
_atom_site_U_iso_or_equiv
Li1 Li1+ 4 e -0.1885(5) 0.4997(3) 0.6877(2) 1 0 0.0322(7) 
Li2 Li1+ 4 e -0.1720(4) 0.1488(2) 0.4425(3) 1 0 0.0400(8) 
N1 N3- 4 e -0.2779(2) 0.45187(11) 0.56391(11) 1 0 0.0287(5) 
H1 H1+ 4 e -0.3757 0.4241 0.5643 1 0 0.043 
H2 H1+ 4 e -0.2060 0.4114 0.5473 1 0 0.043 
H3 H1+ 4 e -0.2909 0.4993 0.5264 1 0 0.043 
N2 N3- 4 e -0.2172(2) 0.37780(11) 0.75226(13) 1 0 0.0348(5) 
H4 H1+ 4 e -0.2048 0.3883 0.8099 1 0 0.052 
H5 H1+ 4 e -0.1408 0.3372 0.7409 1 0 0.052 
H6 H1+ 4 e -0.3184 0.3550 0.7340 1 0 0.052 
N3 N3- 4 e -0.2755(2) 0.62030(11) 0.73263(13) 1 0 0.0383(5) 
H7 H1+ 4 e -0.3766 0.6109 0.7465 1 0 0.057 
H8 H1+ 4 e -0.2810 0.6635 0.6909 1 0 0.057 
H9 H1+ 4 e -0.2070 0.6392 0.7801 1 0 0.057 
N4 N3- 4 e 0.0418(2) 0.54692(11) 0.66967(11) 1 0 0.0282(5) 
H10 H1+ 4 e 0.0301 0.5915 0.6292 1 0 0.042 
H11 H1+ 4 e 0.1003 0.5003 0.6518 1 0 0.042 
H12 H1+ 4 e 0.0951 0.5694 0.7202 1 0 0.042 
N5 N3- 4 e -0.31733(15) 0.25457(13) 0.39409(11) 1 0 0.0304(3) 
H13 H1+ 4 e -0.4049 0.2582 0.4223 1 0 0.046 
H14 H1+ 4 e -0.3522 0.2454 0.3370 1 0 0.046 
H15 H1+ 4 e -0.2596 0.3072 0.4014 1 0 0.046 
N6 N3- 4 e -0.2825(2) 0.06982(12) 0.52385(12) 1 0 0.0334(5) 
H16 H1+ 4 e -0.3012 0.0135 0.5007 1 0 0.050 
H17 H1+ 4 e -0.3788 0.0956 0.5315 1 0 0.050 
H18 H1+ 4 e -0.2164 0.0653 0.5755 1 0 0.050 
N7 N3- 4 e -0.1069(2) 0.07099(11) 0.34615(11) 1 0 0.0315(5) 
H19 H1+ 4 e -0.1510 0.0146 0.3481 1 0 0.047 
H20 H1+ 4 e 0.0036 0.0665 0.3529 1 0 0.047 
H21 H1+ 4 e -0.1443 0.0972 0.2944 1 0 0.047 
B1 B.833+ 4 e 0.3551(2) 0.24402(19) 0.68112(13) 1 0 0.0150(4) 
B2 B.833+ 4 e 0.1670(3) 0.18389(17) 0.65577(16) 1 0 0.0159(6) 
B3 B.833+ 4 e 0.1678(3) 0.30439(19) 0.65901(16) 1 0 0.0160(6) 
B4 B.833+ 4 e 0.3419(3) 0.34391(17) 0.61655(16) 1 0 0.0171(6) 
B5 B.833+ 4 e 0.4493(2) 0.2464(2) 0.58677(13) 1 0 0.0168(4) 
B6 B.833+ 4 e 0.3416(3) 0.14823(17) 0.61111(16) 1 0 0.0152(6) 
B7 B.833+ 4 e 0.0385(2) 0.2463(2) 0.57589(13) 1 0 0.0185(4) 
B8 B.833+ 4 e 0.1459(3) 0.34451(17) 0.55104(17) 1 0 0.0189(6) 
B9 B.833+ 4 e 0.3197(3) 0.30943(18) 0.50682(16) 1 0 0.0202(7) 
B10 B.833+ 4 e 0.3204(3) 0.18883(18) 0.50364(16) 1 0 0.0169(6) 
B11 B.833+ 4 e 0.1455(3) 0.14967(16) 0.54636(17) 1 0 0.0167(6) 
B12 B.833+ 4 e 0.1323(2) 0.2492(2) 0.48117(13) 1 0 0.0187(4) 
H22 H1- 4 e 0.371(2) 0.1487(13) 0.4513(13) 1 0 0.031(6) 
H23 H1- 4 e 0.083(2) 0.0815(12) 0.5173(12) 1 0 0.027(5) 
H24 H1- 4 e 0.421(2) 0.2412(13) 0.7468(12) 1 0 0.029(5) 
H25 H1- 4 e 0.120(3) 0.1394(14) 0.7086(13) 1 0 0.039(6) 
H26 H1- 4 e 0.118(2) 0.3418(12) 0.7094(12) 1 0 0.022(5) 
H27 H1- 4 e 0.406(2) 0.4120(12) 0.6405(13) 1 0 0.027(6) 
H28 H1- 4 e 0.578(2) 0.2459(15) 0.5868(12) 1 0 0.037(5) 
H29 H1- 4 e 0.411(2) 0.0865(12) 0.6305(13) 1 0 0.029(6) 
H30 H1- 4 e 0.366(2) 0.3501(13) 0.4579(13) 1 0 0.032(6) 
H31 H1- 4 e 0.066(2) 0.2541(14) 0.4163(12) 1 0 0.030(5) 
H32 H1- 4 e -0.098(2) 0.2449(14) 0.5717(11) 1 0 0.027(5) 
H33 H1- 4 e 0.075(2) 0.4098(12) 0.5292(12) 1 0 0.025(5) 

loop_
_atom_site_aniso_label
_atom_site_aniso_type_symbol
_atom_site_aniso_U_11
_atom_site_aniso_U_22
_atom_site_aniso_U_33
_atom_site_aniso_U_12
_atom_site_aniso_U_13
_atom_site_aniso_U_23
Li1 Li1+ 0.038(2) 0.0284(17) 0.030(2) -0.0049(14) 0.0037(16) -0.0025(18)
Li2 Li1+ 0.040(2) 0.0361(19) 0.044(3) 0.0016(16) 0.0072(17) 0.004(2)
N1 N3- 0.0271(10) 0.0278(11) 0.0321(11) -0.0031(8) 0.0067(8) 0.0027(9)
N2 N3- 0.0348(12) 0.0402(13) 0.0294(12) 0.0031(10) 0.0055(9) 0.0041(10)
N3 N3- 0.0407(13) 0.0424(14) 0.0322(12) 0.0070(10) 0.0074(10) -0.0037(10)
N4 N3- 0.0299(10) 0.0264(11) 0.0267(11) 0.0014(9) -0.0003(8) -0.0057(8)
N5 N3- 0.0314(8) 0.0358(7) 0.0253(9) -0.0040(12) 0.0082(6) -0.0034(11)
N6 N3- 0.0339(11) 0.0304(12) 0.0384(12) 0.0017(9) 0.0134(9) -0.0060(9)
N7 N3- 0.0400(12) 0.0261(11) 0.0270(11) -0.0004(9) 0.0008(9) 0.0076(9)
B1 B.833+ 0.0173(9) 0.0130(11) 0.0144(10) 0.0033(13) 0.0013(7) 0.0016(13)
B2 B.833+ 0.0179(15) 0.0101(13) 0.0194(14) 0.0004(11) 0.0023(11) 0.0016(10)
B3 B.833+ 0.0202(15) 0.0141(14) 0.0152(13) 0.0002(11) 0.0077(11) 0.0019(11)
B4 B.833+ 0.0200(15) 0.0165(14) 0.0147(14) -0.0005(11) 0.0029(11) 
-0.0004(11)
B5 B.833+ 0.0156(9) 0.0176(10) 0.0173(10) 0.0036(16) 0.0030(7) 0.0005(14)
B6 B.833+ 0.0170(15) 0.0126(13) 0.0156(14) 0.0020(11) 0.0009(11) 
-0.0042(11)
B7 B.833+ 0.0164(9) 0.0176(11) 0.0206(11) -0.0109(15) 0.0006(7) 0.0013(14)
B8 B.833+ 0.0202(16) 0.0189(14) 0.0170(14) 0.0079(12) 0.0015(11) 0.0010(12)
B9 B.833+ 0.0257(19) 0.0174(17) 0.0180(15) -0.0021(14) 0.0054(13) 
0.0028(12)
B10 B.833+ 0.0149(16) 0.0223(18) 0.0135(14) 0.0010(13) 0.0021(12) 
-0.0017(12)
B11 B.833+ 0.0173(15) 0.0134(13) 0.0187(14) 0.0048(12) 0.0001(11) 
-0.0031(12)
B12 B.833+ 0.0195(9) 0.0201(10) 0.0154(10) 0.0049(17) -0.0012(8) 
-0.0040(15)
#End of data_166942-ICSD


