data_415156-ICSD
#?2014 by Fachinformationszentrum Karlsruhe, and the U.S. Secretary of 
#Commerce on behalf of the United States.  All rights reserved.
_database_code_ICSD                415156
_audit_creation_date               2006/10/01
_chemical_name_systematic
;
Dicalcium Poly(hydrogenfluoride) Hexafluoroarsenate(V)
;
_chemical_formula_structural       'Ca2 (H2 F3) (H F2)2 (As F6)'
_chemical_formula_sum              'H4 As1 Ca2 F13'
_publ_section_title
;
Alkaline earth metal poly(hydrogen fluorides) hexafluoroarsenates(V) 
and hexafluorophosphates(V): M2(H2F3)(HF2)(AF6) (M = Ca, A = As; M = 
Sr, A = As, P)
;
loop_
_citation_id
_citation_journal_abbrev
_citation_year
_citation_journal_volume
_citation_page_first
_citation_page_last
_citation_journal_id_ASTM
primary 'Journal of Fluorine Chemistry' 2005 126 1088 1094 JFLCAR
_publ_author_name
;
Tramsek, M.;Tavcar, G.;Bunic, T.;Benkic, P.;Zemva, B.
;
_cell_length_a                     7.1467(10)
_cell_length_b                     7.1467(10)
_cell_length_c                     17.548(3)
_cell_angle_alpha                  90.00
_cell_angle_beta                   90.00
_cell_angle_gamma                  90.00
_cell_volume                       896.27
_cell_formula_units_Z              4
_symmetry_space_group_name_H-M     'P 43 2 2'
_symmetry_Int_Tables_number        95
_refine_ls_R_factor_all            .024
loop_
_symmetry_equiv_pos_site_id
_symmetry_equiv_pos_as_xyz
  1	'-y, -x, -z+.75'
  2	'y, x, -z+.25'
  3	'x, -y, -z+.5'
  4	'-x, y, -z'
  5	'y, -x, z+.25'
  6	'-y, x, z+.75'
  7	'-x, -y, z+.5'
  8	'x, y, z'
loop_
_atom_type_symbol
_atom_type_oxidation_number
As5+	5
Ca2+	2
F1-	-1
H1+	1
loop_
_atom_site_label
_atom_site_type_symbol
_atom_site_symmetry_multiplicity
_atom_site_Wyckoff_symbol
_atom_site_fract_x
_atom_site_fract_y
_atom_site_fract_z
_atom_site_occupancy
_atom_site_attached_hydrogens
_atom_site_U_iso_or_equiv
As1 As5+ 4 a 1.0000 0.21882(5) 1.0000 1 0 0.00392(9) 
Ca1 Ca2+ 8 d 0.74011(6) 0.72777(6) 0.96365(2) 1 0 0.00482(11) 
F1 F1- 8 d 0.83424(19) 0.3879(2) 0.98380(8) 1 0 0.0092(3) 
F2 F1- 8 d 1.05338(19) 0.2188(2) 0.90484(7) 1 0 0.0091(3) 
F3 F1- 8 d 0.83329(19) 0.0468(2) 0.98619(7) 1 0 0.0095(3) 
F4 F1- 8 d 0.7093(2) 0.5621(2) 0.85067(8) 1 0 0.0108(3) 
F5 F1- 4 b 0.5000 0.5136(3) 1.0000 1 0 0.0066(3) 
F6 F1- 8 d 0.43806(19) 0.8330(2) 0.92873(8) 1 0 0.0089(3) 
F7 F1- 8 d 1.05581(18) 0.70345(19) 0.92892(7) 1 0 0.0067(3) 
H1 H1+ 8 d 0.624(6) 0.528(8) 0.814(3) 1 0 0.11(2) 
H2 H1+ 8 d 0.375(8) 0.877(8) 0.883(3) 1 0 0.14(3) 

loop_
_atom_site_aniso_label
_atom_site_aniso_type_symbol
_atom_site_aniso_U_11
_atom_site_aniso_U_22
_atom_site_aniso_U_33
_atom_site_aniso_U_12
_atom_site_aniso_U_13
_atom_site_aniso_U_23
As1 As5+ 0.00481(16) 0.00326(16) 0.00368(14) 0.000 -0.00021(12) 0.000
Ca1 Ca2+ 0.0038(2) 0.0056(2) 0.0050(2) -0.0005(2) 0.00013(17) -0.00044(17)
F1 F1- 0.0056(7) 0.0067(7) 0.0152(7) 0.0006(6) -0.0007(6) 0.0030(6)
F2 F1- 0.0108(7) 0.0121(7) 0.0044(5) -0.0017(7) 0.0012(5) 0.0001(5)
F3 F1- 0.0099(7) 0.0078(7) 0.0108(7) -0.0040(6) -0.0003(6) -0.0008(5)
F4 F1- 0.0056(7) 0.0067(7) 0.0152(7) 0.0006(6) -0.0007(6) 0.0030(6)
F5 F1- 0.0067(9) 0.0060(9) 0.0072(8) 0.000 -0.0012(8) 0.000
F6 F1- 0.0073(7) 0.0137(7) 0.0058(6) 0.0029(6) -0.0016(6) 0.0035(6)
F7 F1- 0.0058(6) 0.0089(7) 0.0053(5) 0.0004(6) 0.0015(5) -0.0005(5)
#End of data_415156-ICSD


