data_75516-ICSD
#?2014 by Fachinformationszentrum Karlsruhe, and the U.S. Secretary of 
#Commerce on behalf of the United States.  All rights reserved.
_database_code_ICSD                75516
_audit_creation_date               1996/04/22
_audit_update_record               2008/02/01
_chemical_name_systematic
;
Trilithium Dibarium Niobium Nitride
;
_chemical_formula_structural       'Li3 Ba2 Nb N4'
_chemical_formula_sum              'Ba2 Li3 N4 Nb1'
_publ_section_title
;
A new quaternary nitride, Li3 Ba2 Nb N4
;
loop_
_citation_id
_citation_journal_abbrev
_citation_year
_citation_journal_volume
_citation_page_first
_citation_page_last
_citation_journal_id_ASTM
primary 'Journal of Solid State Chemistry' 1994 113 362 366 JSSCBI
_publ_author_name                  'Chen, X.-Z.;Eick, H.A.'
_cell_length_a                     11.296(2)
_cell_length_b                     5.673(1)
_cell_length_c                     11.347(2)
_cell_angle_alpha                  90.
_cell_angle_beta                   121.456(8)
_cell_angle_gamma                  90.
_cell_volume                       620.28
_cell_formula_units_Z              4
_symmetry_space_group_name_H-M     'C 1 2/c 1'
_symmetry_Int_Tables_number        15
_refine_ls_R_factor_all            .073
loop_
_symmetry_equiv_pos_site_id
_symmetry_equiv_pos_as_xyz
  1	'x, -y, z+.5'
  2	'-x, -y, -z'
  3	'-x, y, -z+.5'
  4	'x, y, z'
  5	'x+.5, -y+.5, z+.5'
  6	'-x+.5, -y+.5, -z'
  7	'-x+.5, y+.5, -z+.5'
  8	'x+.5, y+.5, z'
loop_
_atom_type_symbol
_atom_type_oxidation_number
Ba2+	2
Li1+	1
N3-	-3
Nb5+	5
loop_
_atom_site_label
_atom_site_type_symbol
_atom_site_symmetry_multiplicity
_atom_site_Wyckoff_symbol
_atom_site_fract_x
_atom_site_fract_y
_atom_site_fract_z
_atom_site_occupancy
_atom_site_attached_hydrogens
Nb1 Nb5+ 4 e 0 0.1118(3) 0.25 1. 0 
Ba1 Ba2+ 8 f 0.20933(7) -.0359(1) 0.11209(7) 1. 0 
N1 N3- 8 f 0.164(1) -.088(2) 0.337(1) 1. 0 
N2 N3- 8 f 0.001(1) 0.318(2) 0.113(1) 1. 0 
Li1 Li1+ 4 e 0 0.635(6) 0.25 1. 0 
Li2 Li1+ 8 f 0.384(2) -.052(5) 0.458(2) 1. 0 

loop_
_atom_site_aniso_label
_atom_site_aniso_type_symbol
_atom_site_aniso_U_11
_atom_site_aniso_U_22
_atom_site_aniso_U_33
_atom_site_aniso_U_12
_atom_site_aniso_U_13
_atom_site_aniso_U_23
Nb1 Nb5+ 0.0062(6) 0.0046(6) 0.0071(6) 0 0.0030(5) 0
Ba1 Ba2+ 0.0091(3) 0.0110(4) 0.0108(4) 0.0002(2) 0.0045(2) 0.0010(2)
N1 N3- 0.006(4) 0.014(5) 0.011(4) 0.006(3) 0.003(3) 0.003(3)
N2 N3- 0.016(5) 0.015(5) 0.015(5) -.002(4) 0.009(4) 0.003(4)
Li1 Li1+ 0.01(2) 0.01(2) 0.07(3) 0 0.01(2) 0
Li2 Li1+ 0.01(1) 0.03(1) 0.02(1) 0.010(9) 0.002(8) 0.01(1)
#End of data_75516-ICSD


