data_73971-ICSD
#?2014 by Fachinformationszentrum Karlsruhe, and the U.S. Secretary of 
#Commerce on behalf of the United States.  All rights reserved.
_database_code_ICSD                73971
_audit_creation_date               1995/01/10
_chemical_name_systematic
;
Potassium Lanthanum Germanium Selenide
;
_chemical_formula_structural       'K La Ge Se4'
_chemical_formula_sum              'Ge1 K1 La1 Se4'
_publ_section_title
;
Synthesis and structures of the quaternary chalcogenides of the type 
KLnMQ4 (Ln=La, Nd, Gd, Y; M=Si, Ge; Q=S, Se)
;
loop_
_citation_id
_citation_journal_abbrev
_citation_year
_citation_journal_volume
_citation_page_first
_citation_page_last
_citation_journal_id_ASTM
primary 'Journal of Solid State Chemistry' 1993 107 347 355 JSSCBI
_publ_author_name                  'Wu, P.;Ibers, J.A.'
_cell_length_a                     6.875(3)
_cell_length_b                     7.002(2)
_cell_length_c                     8.942(4)
_cell_angle_alpha                  90.
_cell_angle_beta                   107.84(2)
_cell_angle_gamma                  90.
_cell_volume                       409.76
_cell_formula_units_Z              2
_symmetry_space_group_name_H-M     'P 1 21 1'
_symmetry_Int_Tables_number        4
_refine_ls_R_factor_all            .041
loop_
_symmetry_equiv_pos_site_id
_symmetry_equiv_pos_as_xyz
  1	'-x, y+.5, -z'
  2	'x, y, z'
loop_
_atom_type_symbol
_atom_type_oxidation_number
Ge4+	4
K1+	1
La3+	3
Se2-	-2
loop_
_atom_site_label
_atom_site_type_symbol
_atom_site_symmetry_multiplicity
_atom_site_Wyckoff_symbol
_atom_site_fract_x
_atom_site_fract_y
_atom_site_fract_z
_atom_site_occupancy
_atom_site_attached_hydrogens
_atom_site_U_iso_or_equiv
La1 La3+ 2 a 0.23227(6) 0.00001(5) 0.55461(4) 1. 0 0.0077(2) 
Ge1 Ge4+ 2 a 0.21582(11) 0.52911(10) 0.31393(8) 1. 0 0.0074(3) 
K1 K1+ 2 a 0.2594(3) 0.0091(3) 0.0632(2) 1. 0 0.0164(7) 
Se1 Se2- 2 a 0.00996(12) 0.25633(9) 0.27761(9) 1. 0 0.0086(3) 
Se2 Se2- 2 a 0.02955(11) 0.27369(10) 0.73514(9) 1. 0 0.0083(3) 
Se3 Se2- 2 a 0.41336(11) 0.53303(12) 0.14668(8) 1. 0 0.0112(3) 
Se4 Se2- 2 a 0.58513(12) 0.07535(10) 0.42294(8) 1. 0 0.0094(3) 

#End of data_73971-ICSD


