data_413883-ICSD
#?2014 by Fachinformationszentrum Karlsruhe, and the U.S. Secretary of 
#Commerce on behalf of the United States.  All rights reserved.
_database_code_ICSD                413883
_audit_creation_date               2005/04/01
_chemical_name_systematic
;
Tripotassium Dihydroxooctaoxoerbiotrisilicate
;
_chemical_formula_structural       'K3 (Er Si3 O8 (O H)2)'
_chemical_formula_sum              'H2 Er1 K3 O10 Si3'
_publ_section_title
;
Photoluminescent layered lanthanide silicates
;
loop_
_citation_id
_citation_journal_abbrev
_citation_year
_citation_journal_volume
_citation_page_first
_citation_page_last
_citation_journal_id_ASTM
primary 'Journal of the American Chemical Society' 2004 126 10410 10417 JACSAT
_publ_author_name
;
Ananias, D.;Kostova, M.;Paz, F.A.A.;Ferreira, A.;Carlos, 
L.D.;Klinowski, J.;Rocha, J.
;
_cell_length_a                     13.1526(3)
_cell_length_b                     13.5228(3)
_cell_length_c                     5.8676(2)
_cell_angle_alpha                  90
_cell_angle_beta                   90
_cell_angle_gamma                  90
_cell_volume                       1043.61
_cell_formula_units_Z              4
_symmetry_space_group_name_H-M     'P n m a'
_symmetry_Int_Tables_number        62
_refine_ls_R_factor_all            .0904
loop_
_symmetry_equiv_pos_site_id
_symmetry_equiv_pos_as_xyz
  1	'x+.5, y, -z+.5'
  2	'x, -y+.5, z'
  3	'-x+.5, y+.5, z+.5'
  4	'-x, -y, -z'
  5	'-x+.5, -y, z+.5'
  6	'-x, y+.5, -z'
  7	'x+.5, -y+.5, -z+.5'
  8	'x, y, z'
loop_
_atom_type_symbol
_atom_type_oxidation_number
Er3+	3
H1+	1
K1+	1
O2-	-2
Si4+	4
loop_
_atom_site_label
_atom_site_type_symbol
_atom_site_symmetry_multiplicity
_atom_site_Wyckoff_symbol
_atom_site_fract_x
_atom_site_fract_y
_atom_site_fract_z
_atom_site_occupancy
_atom_site_attached_hydrogens
_atom_site_U_iso_or_equiv
Er1 Er3+ 4 c 0.0410(1) 0.2500 0.0861(3) 1 0 0.011(1) 
Si1 Si4+ 4 c 0.2505(4) 0.2500 0.410(1) 1 0 0.011(2) 
Si2 Si4+ 8 d 0.0971(3) 0.3966(3) 0.588(1) 1 0 0.011(2) 
K1 K1+ 4 c 0.3699(3) 0.2500 -0.082(1) 1 0 0.027(2) 
K2 K1+ 8 d 0.3608(2) 0.4848(2) 0.5913(8) 1 0 0.027(2) 
O1 O2- 4 c 0.2019(8) 0.2500 0.168(2) 1 0 0.009(1) 
O2 O2- 8 d 0.2139(6) 0.3395(5) 0.574(2) 1 0 0.009(1) 
O3 O2- 8 d 0.1277(7) 0.5140(4) 0.589(1) 1 0 0.009(1) 
O4 O2- 8 d 0.0332(7) 0.3643(5) 0.368(1) 1 0 0.009(1) 
O5 O2- 8 d 0.0410(7) 0.3665(5) -0.182(1) 1 0 0.009(1) 
O6 O2- 4 c -0.1275(7) 0.25000 0.081(2) 1 0 0.009(1) 
H1 H1+ 8 d 0.138(8) 0.568(5) 0.69(1) 1 0 0.009 

#End of data_413883-ICSD


