data_28629-ICSD
#?2014 by Fachinformationszentrum Karlsruhe, and the U.S. Secretary of 
#Commerce on behalf of the United States.  All rights reserved.
_database_code_ICSD                28629
_audit_creation_date               1980/01/01
_audit_update_record               2009/02/01
_chemical_name_systematic          'Lanthanum Aluminium Oxide'
_chemical_formula_structural       'La Al O3'
_chemical_formula_sum              'Al1 La1 O3'
_publ_section_title
;
X-ray and electrical studies of the Pb Ti O3 - La Al O3 system
;
loop_
_citation_id
_citation_journal_abbrev
_citation_year
_citation_journal_volume
_citation_page_first
_citation_page_last
_citation_journal_id_ASTM
primary Kristallografiya 1962 7 408 411 KRISAJ
2 'Soviet Physics, Crystallography (= Kristallografiya)'
 1962 7 323 325 SPHCA6
_publ_author_name
;
Fedulov, S.A.;Venevtsev, Yu.N.;Dzhmukhadze, D.F.
;
_cell_length_a                     3.789
_cell_length_b                     3.789
_cell_length_c                     3.789
_cell_angle_alpha                  90.12
_cell_angle_beta                   90.12
_cell_angle_gamma                  90.12
_cell_volume                       54.4
_cell_formula_units_Z              1
_symmetry_space_group_name_H-M     'R 3 m R'
_symmetry_Int_Tables_number        160
loop_
_symmetry_equiv_pos_site_id
_symmetry_equiv_pos_as_xyz
  1	'z, y, x'
  2	'z, x, y'
  3	'x, z, y'
  4	'y, z, x'
  5	'y, x, z'
  6	'x, y, z'
loop_
_atom_type_symbol
_atom_type_oxidation_number
Al3+	3
La3+	3
O2-	-2
loop_
_atom_site_label
_atom_site_type_symbol
_atom_site_symmetry_multiplicity
_atom_site_Wyckoff_symbol
_atom_site_fract_x
_atom_site_fract_y
_atom_site_fract_z
_atom_site_occupancy
_atom_site_attached_hydrogens
La1 La3+ 1 a 0 0 0 1. 0 
Al1 Al3+ 1 a 0.5 0.5 0.5 1. 0 
O1 O2- 3 b 0.5 0.5 0 1. 0 

#End of data_28629-ICSD


