data_81655-ICSD
#?2014 by Fachinformationszentrum Karlsruhe, and the U.S. Secretary of 
#Commerce on behalf of the United States.  All rights reserved.
_database_code_ICSD                81655
_audit_creation_date               1997/05/13
_audit_update_record               2011/02/01
_chemical_name_systematic
;
Dipotassium Phyllo-tetrathiotricadmate
;
_chemical_formula_structural       'K2 (Cd3 S4)'
_chemical_formula_sum              'Cd3 K2 S4'
_publ_section_title
;
Dimensional reduction in II-VI materials: A2 Cd3 Q4 (A = K, Q = S, 
Se, Te; A = Rb, Q = S, Se), novel ternary low-dimensional cadmium 
chalcogenides produced by incorporation of A2 Q in Cd Q
;
loop_
_citation_id
_citation_journal_abbrev
_citation_year
_citation_journal_volume
_citation_journal_issue
_citation_page_first
_citation_page_last
_citation_journal_id_ASTM
primary 'Chemistry - A European Journal' 1996 2 6 656 666 CEUJED
_publ_author_name
;
Axtell, E.A.;Liao, J.-H.;Pikramenou, Z.;Kanatzidis, M.G.
;
_cell_length_a                     13.880(4)
_cell_length_b                     10.247(3)
_cell_length_c                     6.608(1)
_cell_angle_alpha                  90.
_cell_angle_beta                   90.
_cell_angle_gamma                  90.
_cell_volume                       939.85
_cell_formula_units_Z              4
_symmetry_space_group_name_H-M     'P n m a'
_symmetry_Int_Tables_number        62
_refine_ls_R_factor_all            .034
loop_
_symmetry_equiv_pos_site_id
_symmetry_equiv_pos_as_xyz
  1	'x+.5, y, -z+.5'
  2	'x, -y+.5, z'
  3	'-x+.5, y+.5, z+.5'
  4	'-x, -y, -z'
  5	'-x+.5, -y, z+.5'
  6	'-x, y+.5, -z'
  7	'x+.5, -y+.5, -z+.5'
  8	'x, y, z'
loop_
_atom_type_symbol
_atom_type_oxidation_number
Cd2+	2
K1+	1
S2-	-2
loop_
_atom_site_label
_atom_site_type_symbol
_atom_site_symmetry_multiplicity
_atom_site_Wyckoff_symbol
_atom_site_fract_x
_atom_site_fract_y
_atom_site_fract_z
_atom_site_occupancy
_atom_site_attached_hydrogens
_atom_site_B_iso_or_equiv
Cd1 Cd2+ 4 c 0.79603(7) 0.75 0.2236(1) 1. 0 0.86(3) 
Cd2 Cd2+ 8 d 0.75168(4) 0.40831(6) 0.16226(8) 1. 0 0.90(2) 
K1 K1+ 4 a 0 0.5 0 1. 0 1.7(1) 
K2 K1+ 4 c 0.5315(2) 0.75 -.0216(4) 1. 0 1.7(1) 
S1 S2- 4 c 0.8535(2) 0.75 0.8693(4) 1. 0 0.9(1) 
S2 S2- 4 c 0.6417(2) 0.75 0.4321(4) 1. 0 0.8(1) 
S3 S2- 8 d 0.6348(1) 0.4672(2) 0.8819(3) 1. 0 0.74(6) 

#End of data_81655-ICSD


