data_151574-ICSD
#?2014 by Fachinformationszentrum Karlsruhe, and the U.S. Secretary of 
#Commerce on behalf of the United States.  All rights reserved.
_database_code_ICSD                151574
_audit_creation_date               2006/10/01
_chemical_name_systematic          'Calcium Digermanate'
_chemical_formula_structural       'Ca (Ge2 O5)'
_chemical_formula_sum              'Ca1 Ge2 O5'
_publ_section_title
;
Structure and phase transition of Ca Ge2 O5 revisited
;
loop_
_citation_id
_citation_journal_abbrev
_citation_year
_citation_journal_volume
_citation_page_first
_citation_page_last
_citation_journal_id_ASTM
primary 'Physics and Chemistry of Minerals' 2004 31 224 231 PCMIDU
_publ_author_name                  'Malcherek, T.;Bosenick, A.'
_cell_length_a                     6.5658(6)
_cell_length_b                     8.8177(8)
_cell_length_c                     6.8833(6)
_cell_angle_alpha                  89.510(2)
_cell_angle_beta                   112.963(1)
_cell_angle_gamma                  90.255(2)
_cell_volume                       366.92
_cell_formula_units_Z              4
_symmetry_space_group_name_H-M     'C -1'
_symmetry_Int_Tables_number        2
_refine_ls_R_factor_all            .101
loop_
_symmetry_equiv_pos_site_id
_symmetry_equiv_pos_as_xyz
  1	'-x, -y, -z'
  2	'x, y, z'
  3	'-x+.5, -y+.5, -z'
  4	'x+.5, y+.5, z'
loop_
_atom_type_symbol
_atom_type_oxidation_number
Ca2+	2
Ge4+	4
O2-	-2
loop_
_atom_site_label
_atom_site_type_symbol
_atom_site_symmetry_multiplicity
_atom_site_Wyckoff_symbol
_atom_site_fract_x
_atom_site_fract_y
_atom_site_fract_z
_atom_site_occupancy
_atom_site_attached_hydrogens
_atom_site_U_iso_or_equiv
Ca1 Ca2+ 4 i 0.9991(15) 0.6698(7) 0.2580(14) 1. 0 0.0123(23) 
Ge1 Ge4+ 4 i 0.9999(9) 0.3144(4) 0.2486(9) 1. 0 0.0093(14) 
Ge2 Ge4+ 2 a 0 0 0 1. 0 0.0069(21) 
Ge3 Ge4+ 2 b 0 0 0.5 1. 0 0.0041(21) 
O1 O2- 4 i 0.0069(40) 0.9273(16) 0.2487(33) 1. 0 0.0042(23) 
O2 O2- 4 i 0.3949(33) 0.2940(19) 0.9021(29) 1. 0 0.0042(23) 
O3 O2- 4 i 0.8141(30) 0.4404(21) 0.0783(29) 1. 0 0.0042(23) 
O4 O2- 4 i 0.1848(30) 0.4396(21) 0.4250(28) 1. 0 0.0042(23) 
O5 O2- 4 i 0.1173(33) 0.7980(20) 0.6074(31) 1. 0 0.0042(23) 

#End of data_151574-ICSD


