data_76388-ICSD
#?2014 by Fachinformationszentrum Karlsruhe, and the U.S. Secretary of 
#Commerce on behalf of the United States.  All rights reserved.
_database_code_ICSD                76388
_audit_creation_date               2000/12/16
_chemical_name_systematic          'Dimagnesium Silicate'
_chemical_formula_structural       'Mg2 (Si O4)'
_chemical_formula_sum              'Mg2 O4 Si1'
_chemical_name_mineral             Forsterite
_publ_section_title
;
Determination of the parameters in the olivine (forsterite) structure 
with the harmonic three-dimensional synthesis
;
loop_
_citation_id
_citation_journal_abbrev
_citation_year
_citation_journal_volume
_citation_page_first
_citation_page_last
_citation_journal_id_ASTM
primary 'Doklady Akademii Nauk SSSR' 1951 81 399 402 DANKAS
_publ_author_name
;
Belov, N.V.;Belova, E.N.;Andrianova, N.H.;Smirnova, P.F.
;
_cell_length_a                     4.765
_cell_length_b                     10.23
_cell_length_c                     5.997
_cell_angle_alpha                  90.
_cell_angle_beta                   90.
_cell_angle_gamma                  90.
_cell_volume                       292.33
_cell_formula_units_Z              4
_symmetry_space_group_name_H-M     'P b n m'
_symmetry_Int_Tables_number        62
loop_
_symmetry_equiv_pos_site_id
_symmetry_equiv_pos_as_xyz
  1	'-x+.5, y+.5, z'
  2	'x, y, -z+.5'
  3	'x+.5, -y+.5, z+.5'
  4	'-x, -y, -z'
  5	'x+.5, -y+.5, -z'
  6	'-x, -y, z+.5'
  7	'-x+.5, y+.5, -z+.5'
  8	'x, y, z'
loop_
_atom_type_symbol
_atom_type_oxidation_number
Mg2+	2
O2-	-2
Si4+	4
loop_
_atom_site_label
_atom_site_type_symbol
_atom_site_symmetry_multiplicity
_atom_site_Wyckoff_symbol
_atom_site_fract_x
_atom_site_fract_y
_atom_site_fract_z
_atom_site_occupancy
_atom_site_attached_hydrogens
_atom_site_B_iso_or_equiv
Mg1 Mg2+ 4 a 0 0 0 1. 0 0.4 
Mg2 Mg2+ 4 c -.01 0.281 0.25 1. 0 0.4 
Si1 Si4+ 4 c 0.415 0.095 0.25 1. 0 0.25 
O1 O2- 4 c -.229 0.083 0.25 1. 0 0.6 
O2 O2- 4 c 0.221 0.43 0.25 1. 0 0.6 
O3 O2- 8 d 0.262 0.152 0.027 1. 0 0.6 

#End of data_76388-ICSD


