data_10109-ICSD
#?2014 by Fachinformationszentrum Karlsruhe, and the U.S. Secretary of 
#Commerce on behalf of the United States.  All rights reserved.
_database_code_ICSD                10109
_audit_creation_date               1980/01/01
_audit_update_record               2012/02/01
_chemical_name_systematic
;
Hexapotassium Hexatelluroduo-distannate
;
_chemical_formula_structural       'K6 (Sn2 Te6)'
_chemical_formula_sum              'K6 Sn2 Te6'
_publ_section_title
;
Die Kristallstrukturen von K6 (Ge2 Te6) und K6 (Sn2 Te6) und ihre 
kristall-chemische Beziehung zum K6(Si2Te6)-Typ
;
loop_
_citation_id
_citation_journal_abbrev
_citation_year
_citation_journal_volume
_citation_page_first
_citation_page_last
_citation_journal_id_ASTM
primary 'Zeitschrift fuer Anorganische und Allgemeine Chemie (1950) (DE)'
 1979 453 68 78 ZAACAB
_publ_author_name                  'Dittmar, G.'
_cell_length_a                     9.590(5)
_cell_length_b                     13.654(8)
_cell_length_c                     9.606(5)
_cell_angle_alpha                  90.
_cell_angle_beta                   116.84(5)
_cell_angle_gamma                  90.
_cell_volume                       1122.32
_cell_formula_units_Z              2
_symmetry_space_group_name_H-M     'P 1 21/c 1'
_symmetry_Int_Tables_number        14
_refine_ls_R_factor_all            .047
loop_
_symmetry_equiv_pos_site_id
_symmetry_equiv_pos_as_xyz
  1	'x, -y+.5, z+.5'
  2	'-x, -y, -z'
  3	'-x, y+.5, -z+.5'
  4	'x, y, z'
loop_
_atom_type_symbol
_atom_type_oxidation_number
K1+	1
Sn3+	3
Te2-	-2
loop_
_atom_site_label
_atom_site_type_symbol
_atom_site_symmetry_multiplicity
_atom_site_Wyckoff_symbol
_atom_site_fract_x
_atom_site_fract_y
_atom_site_fract_z
_atom_site_occupancy
_atom_site_attached_hydrogens
K1 K1+ 4 e 0.0548(4) 0.2819(2) 0.2033(4) 1. 0 
K2 K1+ 4 e 0.2762(3) 0.9346(2) 0.7929(3) 1. 0 
K3 K1+ 4 e 0.5018(3) 0.3431(2) 0.9891(3) 1. 0 
Sn1 Sn3+ 4 e 0.8474(1) 0.008 0.8778(1) 1. 0 
Te1 Te2- 4 e 0.8553(1) 0.9752(1) 0.6012(1) 1. 0 
Te2 Te2- 4 e 0.7397(1) 0.1921(1) 0.8823(1) 1. 0 
Te3 Te2- 4 e 0.6717(1) 0.8671(1) 0.9252(1) 1. 0 

loop_
_atom_site_aniso_label
_atom_site_aniso_type_symbol
_atom_site_aniso_U_11
_atom_site_aniso_U_22
_atom_site_aniso_U_33
_atom_site_aniso_U_12
_atom_site_aniso_U_13
_atom_site_aniso_U_23
K1 K1+ 0.060(2) 0.042(2) 0.056(1) 0.008(2) -.004(2) -.019(2)
K2 K1+ 0.044(2) 0.050(2) 0.030(1) 0.012(1) 0.019(1) 0.004(1)
K3 K1+ 0.042(1) 0.038(1) 0.031(1) 0.005(1) 0.014(1) 0.005(1)
Sn1 Sn3+ 0.0199(3) 0.0138(3) 0.0137(3) 0.0001(2) 0.0080(2) 0.0009(2)
Te1 Te2- 0.0400(4) 0.0335(4) 0.0210(3) 0.0004(3) 0.0169(3) -.0006(3)
Te2 Te2- 0.0520(5) 0.0230(4) 0.0272(4) 0.0119(3) 0.0167(3) 0.0017(3)
Te3 Te2- 0.0333(4) 0.0325(4) 0.0333(4) -.0087(3) 0.0141(3) 0.0063(3)
#End of data_10109-ICSD


