data_27210-ICSD
#?2014 by Fachinformationszentrum Karlsruhe, and the U.S. Secretary of 
#Commerce on behalf of the United States.  All rights reserved.
_database_code_ICSD                27210
_audit_creation_date               1982/12/31
_chemical_name_systematic
;
Dithionitrogen(V) Tetrachloroaluminate
;
_chemical_formula_structural       'N S2 Al Cl4'
_chemical_formula_sum              'Al1 Cl4 N1 S2'
_publ_section_title                Dithionitryl-tetrachloroaluminat
loop_
_citation_id
_citation_journal_abbrev
_citation_year
_citation_journal_volume
_citation_page_first
_citation_page_last
_citation_journal_id_ASTM
primary 'Acta Crystallographica B (24,1968-38,1982)' 1982 38 1280 1282 ACBCAR
_publ_author_name
;
Thewalt, U.;Berhalter, K.;Mueller, P.
;
_cell_length_a                     10.908(2)
_cell_length_b                     7.291(2)
_cell_length_c                     11.069(2)
_cell_angle_alpha                  90.
_cell_angle_beta                   90.
_cell_angle_gamma                  90.
_cell_volume                       880.32
_cell_formula_units_Z              4
_symmetry_space_group_name_H-M     'P n m a'
_symmetry_Int_Tables_number        62
_refine_ls_R_factor_all            .073
loop_
_symmetry_equiv_pos_site_id
_symmetry_equiv_pos_as_xyz
  1	'x+.5, y, -z+.5'
  2	'x, -y+.5, z'
  3	'-x+.5, y+.5, z+.5'
  4	'-x, -y, -z'
  5	'-x+.5, -y, z+.5'
  6	'-x, y+.5, -z'
  7	'x+.5, -y+.5, -z+.5'
  8	'x, y, z'
loop_
_atom_type_symbol
_atom_type_oxidation_number
Al3+	3
Cl1-	-1
N5+	5
S2-	-2
loop_
_atom_site_label
_atom_site_type_symbol
_atom_site_symmetry_multiplicity
_atom_site_Wyckoff_symbol
_atom_site_fract_x
_atom_site_fract_y
_atom_site_fract_z
_atom_site_occupancy
_atom_site_attached_hydrogens
S1 S2- 4 c 0.3735(2) 0.75 0.1661(2) 1. 0 
S2 S2- 4 c 0.3348(2) 0.75 0.4286(2) 1. 0 
N1 N5+ 4 c 0.3537(4) 0.75 0.2969(5) 1. 0 
Al1 Al3+ 4 c 0.1072(2) 0.25 0.2990(2) 1. 0 
Cl1 Cl1- 8 d 0.1062(1) 0.0143(2) 0.1860(2) 1. 0 
Cl2 Cl1- 4 c 0.2692(2) 0.25 0.4072(2) 1. 0 
Cl3 Cl1- 4 c -.0483(2) 0.25 0.4158(2) 1. 0 

loop_
_atom_site_aniso_label
_atom_site_aniso_type_symbol
_atom_site_aniso_U_11
_atom_site_aniso_U_22
_atom_site_aniso_U_33
_atom_site_aniso_U_12
_atom_site_aniso_U_13
_atom_site_aniso_U_23
S1 S2- 0.0750(13) 0.1102(18) 0.0547(10) 0 -.0057(9) 0
S2 S2- 0.1139(19) 0.1117(19) 0.0573(11) 0 0.0193(11) 0
N1 N5+ 0.0416(26) 0.0535(30) 0.0576(30) 0 -.0025(21) 0
Al1 Al3+ 0.0454(10) 0.0407(9) 0.0463(10) 0 0.0034(7) 0
Cl1 Cl1- 0.0702(8) 0.0445(6) 0.0752(8) -.0024(6) 0.0062(6) -.0125(5)
Cl2 Cl1- 0.0535(10) 0.0980(14) 0.0601(10) 0 -.0092(7) 0
Cl3 Cl1- 0.0548(10) 0.0988(15) 0.0638(11) 0 0.0161(8) 0
#End of data_27210-ICSD


