data_184750-ICSD
#?2014 by Fachinformationszentrum Karlsruhe, and the U.S. Secretary of 
#Commerce on behalf of the United States.  All rights reserved.
_database_code_ICSD                184750
_audit_creation_date               2012/08/01
_chemical_name_systematic          'Barium Calcium Diphosphate(V)'
_chemical_formula_structural       'Ba Ca (P2 O7)'
_chemical_formula_sum              'Ba1 Ca1 O7 P2'
_publ_section_title
;
A simple route to full structural analysis of biophosphates and their 
application to materials discovery
;
loop_
_citation_id
_citation_journal_abbrev
_citation_year
_citation_journal_volume
_citation_page_first
_citation_page_last
_citation_journal_id_ASTM
primary 'Dalton Transactions' 2012 41 5497 5501 DTARAF
_publ_author_name
;
Hill, M.R.;Bastow, T.J.;Bourgeois, L.;Turner, D.R.;Seeber, A.;McBean, 
K.;Whitfield, H.J.
;
_cell_length_a                     12.065(2)
_cell_length_b                     10.583(2)
_cell_length_c                     9.515(2)
_cell_angle_alpha                  90.
_cell_angle_beta                   94.610(5)
_cell_angle_gamma                  90.
_cell_volume                       1210.98
_cell_formula_units_Z              8
_symmetry_space_group_name_H-M     'P 1 21/c 1'
_symmetry_Int_Tables_number        14
_refine_ls_R_factor_all            .057
loop_
_symmetry_equiv_pos_site_id
_symmetry_equiv_pos_as_xyz
  1	'x, -y+.5, z+.5'
  2	'-x, -y, -z'
  3	'-x, y+.5, -z+.5'
  4	'x, y, z'
loop_
_atom_type_symbol
_atom_type_oxidation_number
Ba2+	2
Ca2+	2
O2-	-2
P5+	5
loop_
_atom_site_label
_atom_site_type_symbol
_atom_site_symmetry_multiplicity
_atom_site_Wyckoff_symbol
_atom_site_fract_x
_atom_site_fract_y
_atom_site_fract_z
_atom_site_occupancy
_atom_site_attached_hydrogens
_atom_site_U_iso_or_equiv
Ba1 Ba2+ 4 e 0.34356(5) 0.30840(6) 0.90789(6) 1 0 0.0098(2) 
Ba2 Ba2+ 4 e 0.08429(5) 0.01314(6) 0.72517(6) 1 0 0.0091(2) 
Ca1 Ca2+ 4 e 0.21673(15) 0.6539(2) 0.8270(2) 1 0 0.0081(4) 
Ca2 Ca2+ 4 e 0.65182(16) 0.07652(19) 1.0107(2) 1 0 0.0081(4) 
P1 P5+ 4 e 0.5022(2) 0.5928(3) 0.7568(3) 1 0 0.0076(5) 
P2 P5+ 4 e 0.6568(2) 0.3955(3) 0.8834(3) 1 0 0.0078(5) 
P3 P5+ 4 e 0.1588(2) 0.3610(3) 0.6128(3) 1 0 0.0077(5) 
P4 P5+ 4 e -0.0604(2) 0.2713(3) 0.4705(3) 1 0 0.0077(5) 
O1 O2- 4 e 0.5487(6) 0.7089(7) 0.8278(8) 1 0 0.0126(16) 
O2 O2- 4 e 0.3768(6) 0.5743(7) 0.7437(7) 1 0 0.0102(15) 
O3 O2- 4 e 0.5466(6) 0.5767(7) 0.6105(8) 1 0 0.0104(15) 
O4 O2- 4 e 0.5412(6) 0.4697(7) 0.8513(8) 1 0 0.0104(15) 
O5 O2- 4 e 0.6201(6) 0.2866(7) 0.9684(8) 1 0 0.0121(16) 
O6 O2- 4 e 0.7038(6) 0.3639(7) 0.7439(8) 1 0 0.0113(15) 
O7 O2- 4 e 0.7360(6) 0.4822(7) 0.9697(8) 1 0 0.0109(15) 
O8 O2- 4 e 0.2245(6) 0.4020(7) 0.4909(8) 1 0 0.0120(15) 
O9 O2- 4 e 0.1904(6) 0.2306(7) 0.6617(8) 1 0 0.0114(15) 
O10 O2- 4 e 0.1604(6) 0.4553(7) 0.7332(8) 1 0 0.0112(15) 
O11 O2- 4 e 0.0305(6) 0.3646(7) 0.5482(8) 1 0 0.0103(15) 
O12 O2- 4 e -0.0525(6) 0.2827(7) 0.3129(8) 1 0 0.0107(15) 
O13 O2- 4 e -0.1684(6) 0.3228(8) 0.5196(8) 1 0 0.0121(16) 
O14 O2- 4 e -0.0418(6) 0.1375(7) 0.5218(8) 1 0 0.0130(16) 

loop_
_atom_site_aniso_label
_atom_site_aniso_type_symbol
_atom_site_aniso_U_11
_atom_site_aniso_U_22
_atom_site_aniso_U_33
_atom_site_aniso_U_12
_atom_site_aniso_U_13
_atom_site_aniso_U_23
Ba1 Ba2+ 0.0069(3) 0.0105(4) 0.0121(4) 0.0003(2) -0.0001(2) -0.0008(2)
Ba2 Ba2+ 0.0051(3) 0.0101(4) 0.0120(4) 0.0002(2) -0.0003(2) 0.0000(2)
Ca1 Ca2+ 0.0024(9) 0.0095(10) 0.0124(10) -0.0002(7) 0.0005(7) -0.0005(8)
Ca2 Ca2+ 0.0045(9) 0.0088(10) 0.0109(10) -0.0012(8) 0.0000(7) -0.0006(8)
P1 P5+ 0.0038(11) 0.0099(12) 0.0091(12) -0.0003(10) 0.0001(9) -0.0005(11)
P2 P5+ 0.0034(11) 0.0084(12) 0.0116(13) -0.0006(9) 0.0007(9) 0.0003(11)
P3 P5+ 0.0053(11) 0.0088(13) 0.0087(12) -0.0012(9) -0.0012(9) 0.0007(10)
P4 P5+ 0.0036(11) 0.0097(13) 0.0100(13) -0.0014(9) 0.0014(9) -0.0005(11)
O1 O2- 0.012(4) 0.011(4) 0.016(4) 0.001(3) 0.005(3) 0.004(3)
O2 O2- 0.003(3) 0.017(4) 0.011(4) 0.000(3) 0.000(3) 0.000(3)
O3 O2- 0.006(3) 0.017(4) 0.009(3) -0.003(3) 0.005(3) 0.003(3)
O4 O2- 0.005(3) 0.010(4) 0.017(4) 0.000(3) 0.003(3) -0.001(3)
O5 O2- 0.012(4) 0.009(4) 0.016(4) 0.004(3) 0.001(3) -0.003(3)
O6 O2- 0.005(3) 0.012(4) 0.017(4) 0.000(3) 0.000(3) -0.007(3)
O7 O2- 0.008(4) 0.011(4) 0.013(4) -0.004(3) -0.004(3) 0.001(3)
O8 O2- 0.010(4) 0.011(4) 0.016(4) 0.002(3) 0.005(3) 0.005(3)
O9 O2- 0.004(3) 0.012(4) 0.017(4) -0.002(3) -0.003(3) -0.001(3)
O10 O2- 0.003(3) 0.015(4) 0.014(4) -0.003(3) -0.002(3) 0.001(3)
O11 O2- 0.009(3) 0.010(4) 0.011(4) -0.001(3) -0.005(3) 0.001(3)
O12 O2- 0.007(3) 0.017(4) 0.010(4) -0.004(3) 0.005(3) -0.006(3)
O13 O2- 0.005(3) 0.020(4) 0.012(4) 0.004(3) 0.004(3) 0.003(3)
O14 O2- 0.009(4) 0.010(4) 0.020(4) 0.004(3) 0.001(3) 0.001(3)
#End of data_184750-ICSD


