data_72583-ICSD
#?2014 by Fachinformationszentrum Karlsruhe, and the U.S. Secretary of 
#Commerce on behalf of the United States.  All rights reserved.
_database_code_ICSD                72583
_audit_creation_date               1994/01/19
_audit_update_record               2007/08/01
_chemical_name_systematic          'Potassium Aquapentachlororhodate'
_chemical_formula_structural       'K2 (Rh Cl5 (H2 O))'
_chemical_formula_sum              'H2 Cl5 K2 O1 Rh1'
_publ_section_title
;
Crystal and molecular structure of dipotassium 
aquapentachlororhodate(III): (K2)(2+) (Rh Cl5 (H2 O))(2-)
;
loop_
_citation_id
_citation_journal_abbrev
_citation_year
_citation_journal_volume
_citation_page_first
_citation_page_last
_citation_journal_id_ASTM
primary 'Journal of Crystallographic and Spectroscopic Research'
 1993 23 19 22 JCREDB
_publ_author_name
;
Tavale, S.S.;Puranik, V.G.;Umapathy, P.;Dorai, C.S.
;
_cell_length_a                     7.065(1)
_cell_length_b                     9.453(1)
_cell_length_c                     13.567(1)
_cell_angle_alpha                  90.
_cell_angle_beta                   90.
_cell_angle_gamma                  90.
_cell_volume                       906.08
_cell_formula_units_Z              4
_symmetry_space_group_name_H-M     'P c m n'
_symmetry_Int_Tables_number        62
_refine_ls_R_factor_all            .046
loop_
_symmetry_equiv_pos_site_id
_symmetry_equiv_pos_as_xyz
  1	'-x+.5, y, z+.5'
  2	'x, -y+.5, z'
  3	'x+.5, y+.5, -z+.5'
  4	'-x, -y, -z'
  5	'x+.5, -y, -z+.5'
  6	'-x, y+.5, -z'
  7	'-x+.5, -y+.5, z+.5'
  8	'x, y, z'
loop_
_atom_type_symbol
_atom_type_oxidation_number
Cl1-	-1
H1+	1
K1+	1
O2-	-2
Rh3+	3
loop_
_atom_site_label
_atom_site_type_symbol
_atom_site_symmetry_multiplicity
_atom_site_Wyckoff_symbol
_atom_site_fract_x
_atom_site_fract_y
_atom_site_fract_z
_atom_site_occupancy
_atom_site_attached_hydrogens
_atom_site_B_iso_or_equiv
Rh1 Rh3+ 4 c 0.8015(3) 0.25 0.3913(2) 1. 0 1.89(5) 
Cl1 Cl1- 4 c 0.6118(9) 0.25 0.2550(5) 1. 0 2.59(16) 
Cl2 Cl1- 4 c 0.0717(10) 0.25 0.2909(6) 1. 0 3.59(20) 
Cl3 Cl1- 4 c 0.5389(10) 0.25 0.4939(5) 1. 0 3.05(20) 
Cl4 Cl1- 8 d 0.8050(7) 0.0035(4) 0.3925(4) 1. 0 3.34(12) 
K1 K1+ 8 d 0.6484(6) 0.0030(5) 0.6475(4) 1. 0 3.88(12) 
O1 O2- 4 c 0.9653(24) 0.25 0.5177(13) 1. 0 2.71(49) 
H1 H1+ 8 d 0.1028(13) 0.017(1) 0.0544(7) 1. 0 2.71(49) 

#End of data_72583-ICSD


