data_1314-ICSD
#?2014 by Fachinformationszentrum Karlsruhe, and the U.S. Secretary of 
#Commerce on behalf of the United States.  All rights reserved.
_database_code_ICSD                1314
_audit_creation_date               1980/01/01
_audit_update_record               2010/02/01
_chemical_name_systematic          'Magnesium Dimolybdate'
_chemical_formula_structural       'Mg (Mo2 O7)'
_chemical_formula_sum              'Mg1 Mo2 O7'
_publ_section_title
;
The crystal structure of magnesium dimolybdate
;
loop_
_citation_id
_citation_journal_abbrev
_citation_year
_citation_journal_volume
_citation_page_first
_citation_page_last
_citation_journal_id_ASTM
primary 'Acta Crystallographica B (24,1968-38,1982)' 1977 33 3859 3862 ACBCAR
_publ_author_name
;
Stadnicka, K.;Haber, J.;Kozlowski, R.
;
_cell_length_a                     8.111(2)
_cell_length_b                     5.700(1)
_cell_length_c                     15.002(3)
_cell_angle_alpha                  90.
_cell_angle_beta                   115.26(2)
_cell_angle_gamma                  90.
_cell_volume                       627.26
_cell_formula_units_Z              4
_symmetry_space_group_name_H-M     'P 1 21/c 1'
_symmetry_Int_Tables_number        14
_refine_ls_R_factor_all            .095
loop_
_symmetry_equiv_pos_site_id
_symmetry_equiv_pos_as_xyz
  1	'x, -y+.5, z+.5'
  2	'-x, -y, -z'
  3	'-x, y+.5, -z+.5'
  4	'x, y, z'
loop_
_atom_type_symbol
_atom_type_oxidation_number
Mg2+	2
Mo6+	6
O2-	-2
loop_
_atom_site_label
_atom_site_type_symbol
_atom_site_symmetry_multiplicity
_atom_site_Wyckoff_symbol
_atom_site_fract_x
_atom_site_fract_y
_atom_site_fract_z
_atom_site_occupancy
_atom_site_attached_hydrogens
Mo1 Mo6+ 4 e 0.74741(5) 0.62599(4) 0.36385(3) 1. 0 
Mo2 Mo6+ 4 e 0.20737(5) 0.63402(6) 0.37129(3) 1. 0 
Mg1 Mg2+ 4 e 0.5155(2) 0.1265(2) 0.4103(1) 1. 0 
O1 O2- 4 e 0.6955(5) 0.3913(6) 0.4220(3) 1. 0 
O2 O2- 4 e 0.6090(6) 0.6133(6) 0.2392(3) 1. 0 
O3 O2- 4 e 0.7005(5) 0.8805(5) 0.4102(3) 1. 0 
O4 O2- 4 e 0.9931(5) 0.6245(4) 0.3906(3) 1. 0 
O5 O2- 4 e 0.3208(5) 0.3688(5) 0.4021(3) 1. 0 
O6 O2- 4 e 0.3619(5) 0.8646(5) 0.4335(3) 1. 0 
O7 O2- 4 e 0.1452(6) 0.6777(9) 0.2486(3) 1. 0 

loop_
_atom_site_aniso_label
_atom_site_aniso_type_symbol
_atom_site_aniso_U_11
_atom_site_aniso_U_22
_atom_site_aniso_U_33
_atom_site_aniso_U_12
_atom_site_aniso_U_13
_atom_site_aniso_U_23
Mo1 Mo6+ 0.0025(3) 0.0042(2) 0.0038(3) 0.0002(1) 0.0017(2) 0.0038(3)
Mo2 Mo6+ 0.0040(3) 0.0050(2) 0.0084(3) -.0008(1) 0.0032(2) -.0017(1)
Mg1 Mg2+ 0.0069(7) 0.0037(5) 0.0028(6) -.0025(3) 0.0029(5) -.0001(3)
O1 O2- 0.0120(15) 0.0093(12) 0.0163(16) -.0026(9) 0.0081(11) 0.0029(9)
O2 O2- 0.0173(19) 0.0305(20) 0.0032(14) -.0014(10) 0.0019(12) 0.0016(9)
O3 O2- 0.0111(16) 0.0107(13) 0.0109(16) 0.0048(8) 0.0047(12) -.0010(8)
O4 O2- 0.0062(15) 0.0157(15) 0.0168(17) -.0024(7) 0.0082(11) -.0042(8)
O5 O2- 0.0072(15) 0.0081(13) 0.0228(18) 0.0013(7) 0.0082(12) -.0012(9)
O6 O2- 0.0082(15) 0.0115(13) 0.0048(13) -.0044(7) 0.0019(10) -.0007(7)
O7 O2- 0.0290(19) 0.0306(19) 0.0115(15) -.0080(17) 0.0025(12) -.0067(14)
#End of data_1314-ICSD


