data_262717-ICSD
#?2014 by Fachinformationszentrum Karlsruhe, and the U.S. Secretary of 
#Commerce on behalf of the United States.  All rights reserved.
_database_code_ICSD                262717
_audit_creation_date               2012/08/01
_audit_update_record               2013/08/01
_chemical_name_systematic
;
Disodium Strontium Magnesium Diphosphate
;
_chemical_formula_structural       'Na2 Sr Mg P2 O8'
_chemical_formula_sum              'Mg1 Na2 O8 P2 Sr1'
_publ_section_title
;
Crystal structure of Na2 M Mg P2 O8 (M: Ba, Sr, Ca) orthophosphates 
and their luminescence properties activated by Eu(2+); analogous 
structural behaviors of glaserite-type phosphates and silicates
;
loop_
_citation_id
_citation_journal_abbrev
_citation_year
_citation_journal_volume
_citation_journal_issue
_citation_page_first
_citation_page_last
_citation_journal_id_ASTM
primary 'Journal of Solid State Chemistry' 2011 184 12 3247 3252 JSSCBI
_publ_author_name                  'Yonesaki, Y.;Matsuda, C.'
_cell_length_a                     9.124(3)
_cell_length_b                     5.279(15)
_cell_length_c                     13.499(4)
_cell_angle_alpha                  90.
_cell_angle_beta                   90.013(5)
_cell_angle_gamma                  90.
_cell_volume                       650.19
_cell_formula_units_Z              4
_symmetry_space_group_name_H-M     'P 1 21/c 1'
_symmetry_Int_Tables_number        14
_refine_ls_R_factor_all            .1225
loop_
_symmetry_equiv_pos_site_id
_symmetry_equiv_pos_as_xyz
  1	'x, -y+.5, z+.5'
  2	'-x, -y, -z'
  3	'-x, y+.5, -z+.5'
  4	'x, y, z'
loop_
_atom_type_symbol
_atom_type_oxidation_number
Mg2+	2
Na1+	1
O2-	-2
P5+	5
Sr2+	2
loop_
_atom_site_label
_atom_site_type_symbol
_atom_site_symmetry_multiplicity
_atom_site_Wyckoff_symbol
_atom_site_fract_x
_atom_site_fract_y
_atom_site_fract_z
_atom_site_occupancy
_atom_site_attached_hydrogens
_atom_site_B_iso_or_equiv
Na1 Na1+ 4 e 0.087(2) 0.221(2) 0.4112(8) 1. 0 0.2(13) 
Na2 Na1+ 4 e 0.410(2) 0.313(2) 0.0907(9) 1. 0 0.2(13) 
Sr1 Sr2+ 4 e 0.7538(6) 0.2961(6) 0.2494(4) 1. 0 1.13(6) 
Mg1 Mg2+ 4 e 0.753(2) 0.216(2) 0.004(10) 1. 0 0.2(15) 
P1 P5+ 4 e 0.085(17) 0.279(19) 0.1273(9) 1. 0 0.57(9) 
P2 P5+ 4 e 0.405(19) 0.260(2) 0.3649(8) 1. 0 0.57(9) 
O1 O2- 4 e 0.087(3) 0.797(4) 0.404(18) 1. 0 0.4(12) 
O2 O2- 4 e 0.071(3) 0.222(3) 0.242(16) 1. 0 0.4(12) 
O3 O2- 4 e 0.158(3) 0.545(5) 0.110(12) 1. 0 0.4(12) 
O4 O2- 4 e 0.157(3) 0.066(4) 0.071(12) 1. 0 0.4(12) 
O5 O2- 4 e 0.366(3) 0.007(4) 0.414(13) 1. 0 0.4(12) 
O6 O2- 4 e 0.444(2) 0.206(4) 0.255(16) 1. 0 0.4(12) 
O7 O2- 4 e 0.591(3) 0.289(4) 0.404(18) 1. 0 0.4(12) 
O8 O2- 4 e 0.657(4) -0.018(4) 0.097(13) 1. 0 0.4(12) 

#End of data_262717-ICSD


