data_83454-ICSD
#?2014 by Fachinformationszentrum Karlsruhe, and the U.S. Secretary of 
#Commerce on behalf of the United States.  All rights reserved.
_database_code_ICSD                83454
_audit_creation_date               1998/06/26
_audit_update_record               2002/04/01
_chemical_name_systematic          'Dialuminium Silicate Oxide'
_chemical_formula_structural       'Al2 (Si O4) O'
_chemical_formula_sum              'Al2 O5 Si1'
_chemical_name_mineral             Kyanite
_publ_section_title
;
Compressibility and crystal structure of kyanite, Al2 Si O5, at high 
pressure
;
loop_
_citation_id
_citation_journal_abbrev
_citation_year
_citation_journal_volume
_citation_page_first
_citation_page_last
_citation_journal_id_ASTM
primary 'American Mineralogist' 1997 82 467 474 AMMIAY
_publ_author_name
;
Yang, H.;Downs, R.T.;Finger, L.W.;Hazen, R.M.;Prewitt, C.T.
;
_cell_length_a                     7.0648(5)
_cell_length_b                     7.7926(4)
_cell_length_c                     5.5299(6)
_cell_angle_alpha                  90.089(7)
_cell_angle_beta                   101.085(7)
_cell_angle_gamma                  105.982(5)
_cell_volume                       286.73
_cell_formula_units_Z              4
_symmetry_space_group_name_H-M     'P -1'
_symmetry_Int_Tables_number        2
_refine_ls_R_factor_all            .029
loop_
_symmetry_equiv_pos_site_id
_symmetry_equiv_pos_as_xyz
  1	'-x, -y, -z'
  2	'x, y, z'
loop_
_atom_type_symbol
_atom_type_oxidation_number
Al3+	3
O2-	-2
Si4+	4
loop_
_atom_site_label
_atom_site_type_symbol
_atom_site_symmetry_multiplicity
_atom_site_Wyckoff_symbol
_atom_site_fract_x
_atom_site_fract_y
_atom_site_fract_z
_atom_site_occupancy
_atom_site_attached_hydrogens
_atom_site_B_iso_or_equiv
Al1 Al3+ 2 i 0.3243(6) 0.7035(4) 0.4565(8) 1. 0 0.39(3) 
Al2 Al3+ 2 i 0.2976(6) 0.6988(4) 0.9503(8) 1. 0 0.38(3) 
Al3 Al3+ 2 i 0.0998(6) 0.3861(4) 0.6403(8) 1. 0 0.37(3) 
Al4 Al3+ 2 i 0.1123(5) 0.9178(4) 0.1649(7) 1. 0 0.33(4) 
Si1 Si4+ 2 i 0.2963(5) 0.0651(3) 0.7056(7) 1. 0 0.34(3) 
Si2 Si4+ 2 i 0.2925(5) 0.3326(3) 0.1915(7) 1. 0 0.36(3) 
O1 O2- 2 i 0.1089(12) 0.1477(8) 0.1322(15) 1. 0 0.44(8) 
O2 O2- 2 i 0.1209(12) 0.6825(9) 0.1780(14) 1. 0 0.39(9) 
O3 O2- 2 i 0.2764(14) 0.4546(9) 0.9538(16) 1. 0 0.40(8) 
O4 O2- 2 i 0.2844(11) 0.9355(8) 0.9380(14) 1. 0 0.43(8) 
O5 O2- 2 i 0.1090(11) 0.1524(8) 0.6697(14) 1. 0 0.40(9) 
O6 O2- 2 i 0.1209(15) 0.6309(9) 0.6401(18) 1. 0 0.27(8) 
O7 O2- 2 i 0.2839(12) 0.4463(8) 0.4299(14) 1. 0 0.53(8) 
O8 O2- 2 i 0.2924(12) 0.9476(8) 0.4651(14) 1. 0 0.47(8) 
O9 O2- 2 i 0.5018(12) 0.2729(9) 0.2438(15) 1. 0 0.43(8) 
O10 O2- 2 i 0.5013(13) 0.2339(9) 0.7559(15) 1. 0 0.62(9) 

#End of data_83454-ICSD


