data_159880-ICSD
#?2014 by Fachinformationszentrum Karlsruhe, and the U.S. Secretary of 
#Commerce on behalf of the United States.  All rights reserved.
_database_code_ICSD                159880
_audit_creation_date               2008/08/01
_chemical_name_systematic          'Calcium Selenate(IV)'
_chemical_formula_structural       'Ca (Se O3)'
_chemical_formula_sum              'Ca1 O3 Se1'
_publ_section_title
;
Crystal structures of Sr Se O3 and Ca Se O3 and their respective 
relationships with molybdomenite- and monazite-type compounds - an 
example for stereochemical equivalence of E Se O3 groups (E = lone 
electron pair) with tetrahedral T O4 groups
;
loop_
_citation_id
_citation_journal_abbrev
_citation_year
_citation_journal_volume
_citation_journal_issue
_citation_page_first
_citation_page_last
_citation_journal_id_ASTM
primary 'Neues Jahrbuch fuer Mineralogie. Abhandlungen (Band-Nr) (1950-)'
 2007 184 1 29 37 NJMIAK
_publ_author_name                  'Wildner, M.;Giester, G.'
_cell_length_a                     6.402(1)
_cell_length_b                     6.791(1)
_cell_length_c                     6.681(1)
_cell_angle_alpha                  90.
_cell_angle_beta                   102.78(1)
_cell_angle_gamma                  90.
_cell_volume                       283.27
_cell_formula_units_Z              4
_symmetry_space_group_name_H-M     'P 1 21/n 1'
_symmetry_Int_Tables_number        14
_refine_ls_R_factor_all            .015
loop_
_symmetry_equiv_pos_site_id
_symmetry_equiv_pos_as_xyz
  1	'-x+.5, y+.5, -z+.5'
  2	'-x, -y, -z'
  3	'x+.5, -y+.5, z+.5'
  4	'x, y, z'
loop_
_atom_type_symbol
_atom_type_oxidation_number
Ca2+	2
O2-	-2
Se4+	4
loop_
_atom_site_label
_atom_site_type_symbol
_atom_site_symmetry_multiplicity
_atom_site_Wyckoff_symbol
_atom_site_fract_x
_atom_site_fract_y
_atom_site_fract_z
_atom_site_occupancy
_atom_site_attached_hydrogens
_atom_site_U_iso_or_equiv
Ca1 Ca2+ 4 e 0.27497(3) 0.12918(3) 0.12390(3) 1. 0 0.00879(4) 
Se1 Se4+ 4 e 0.243022(15) 0.162133(14) 0.597084(15) 1. 0 0.00705(3) 
O1 O2- 4 e 0.21897(13) -0.02723(12) 0.43098(12) 1. 0 0.01215(13) 
O2 O2- 4 e 0.39405(12) 0.31403(11) 0.48181(13) 1. 0 0.01160(13) 
O3 O2- 4 e 0.41506(13) 0.08377(12) 0.81181(12) 1. 0 0.01288(13) 

loop_
_atom_site_aniso_label
_atom_site_aniso_type_symbol
_atom_site_aniso_U_11
_atom_site_aniso_U_22
_atom_site_aniso_U_33
_atom_site_aniso_U_12
_atom_site_aniso_U_13
_atom_site_aniso_U_23
Ca1 Ca2+ 0.01035(7) 0.00751(7) 0.00860(7) 0.00015(5) 0.00226(6) 0.00055(5)
Se1 Se4+ 0.00769(4) 0.00650(4) 0.00699(4) 0.00003(2) 0.00167(3) 0.00013(3)
O1 O2- 0.0174(3) 0.0085(3) 0.0111(3) -0.0024(2) 0.0043(3) -0.0032(2)
O2 O2- 0.0103(3) 0.0094(3) 0.0153(3) -0.0012(2) 0.0034(2) 0.0040(2)
O3 O2- 0.0142(3) 0.0157(3) 0.0079(3) 0.0037(2) 0.0005(2) 0.0018(3)
#End of data_159880-ICSD


