data_419658-ICSD
#?2014 by Fachinformationszentrum Karlsruhe, and the U.S. Secretary of 
#Commerce on behalf of the United States.  All rights reserved.
_database_code_ICSD                419658
_audit_creation_date               2009/02/01
_chemical_name_systematic          'Dipotassium Tetrachlorocobaltate'
_chemical_formula_structural       'K2 (Co Cl4)'
_chemical_formula_sum              'Cl4 Co1 K2'
_publ_section_title
;
Cobalt(II) dipotassium tetrachloride
;
loop_
_citation_id
_citation_journal_abbrev
_citation_year
_citation_journal_volume
_citation_page_first
_citation_page_last
_citation_journal_id_ASTM
primary 'Private Communication' 2008 2008 1 1 PRICO6
_publ_author_name                  'Kunz, K.;Bolte, M.'
_cell_length_a                     26.835(3)
_cell_length_b                     12.3916(17)
_cell_length_c                     7.2581(7)
_cell_angle_alpha                  90.00
_cell_angle_beta                   90.00
_cell_angle_gamma                  90.00
_cell_volume                       2413.53
_cell_formula_units_Z              12
_symmetry_space_group_name_H-M     'P n a 21'
_symmetry_Int_Tables_number        33
_refine_ls_R_factor_all            .058
loop_
_symmetry_equiv_pos_site_id
_symmetry_equiv_pos_as_xyz
  1	'x+.5, -y+.5, z'
  2	'-x+.5, y+.5, z+.5'
  3	'-x, -y, z+.5'
  4	'x, y, z'
loop_
_atom_type_symbol
_atom_type_oxidation_number
Cl1-	-1
Co2+	2
K1+	1
loop_
_atom_site_label
_atom_site_type_symbol
_atom_site_symmetry_multiplicity
_atom_site_Wyckoff_symbol
_atom_site_fract_x
_atom_site_fract_y
_atom_site_fract_z
_atom_site_occupancy
_atom_site_attached_hydrogens
_atom_site_U_iso_or_equiv
Co1 Co2+ 4 a 0.07181(11) 0.4205(3) 0.7534(3) 1 0 0.0213(6) 
Co2 Co2+ 4 a 0.40439(11) 0.4174(2) 0.7816(3) 1 0 0.0200(7) 
Co3 Co2+ 4 a 0.74045(11) 0.4168(2) 0.7354(3) 1 0 0.0190(6) 
K1 K1+ 4 a 0.0439(2) 0.0800(5) 0.7886(11) 1 0 0.0501(16) 
K2 K1+ 4 a 0.3805(2) 0.0828(7) 0.7684(10) 1 0 0.0482(16) 
K3 K1+ 4 a 0.7102(2) 0.0818(5) 0.7205(8) 1 0 0.0351(13) 
K4 K1+ 4 a -0.00070(18) 0.6880(4) 0.7982(7) 1 0 0.0227(10) 
K5 K1+ 4 a 0.3319(2) 0.6890(4) 0.7197(7) 1 0 0.0287(11) 
K6 K1+ 4 a 0.66647(18) 0.6870(4) 0.7392(7) 1 0 0.0283(12) 
Cl1 Cl1- 4 a -0.0085(2) 0.4473(4) 0.6707(9) 1 0 0.0291(11) 
Cl2 Cl1- 4 a 0.32156(17) 0.4410(4) 0.8217(9) 1 0 0.0351(12) 
Cl3 Cl1- 4 a 0.65909(17) 0.4347(4) 0.8102(9) 1 0 0.0345(11) 
Cl4 Cl1- 4 a 0.11364(17) 0.5760(4) 0.8224(9) 1 0 0.0355(12) 
Cl5 Cl1- 4 a 0.4452(2) 0.5772(4) 0.8191(13) 1 0 0.064(2) 
Cl6 Cl1- 4 a 0.7806(2) 0.5748(4) 0.6640(9) 1 0 0.0282(11) 
Cl7 Cl1- 4 a 0.0824(2) 0.2982(4) 0.9792(8) 1 0 0.0358(13) 
Cl8 Cl1- 4 a 0.4339(2) 0.3006(5) 0.9934(9) 1 0 0.0509(17) 
Cl9 Cl1- 4 a 0.7785(2) 0.3605(4) 0.9997(8) 1 0 0.0334(12) 
Cl10 Cl1- 4 a 0.11099(18) 0.3557(4) 0.4920(8) 1 0 0.0321(12) 
Cl11 Cl1- 4 a 0.4287(2) 0.3503(5) 0.5063(8) 1 0 0.0554(18) 
Cl12 Cl1- 4 a 0.7544(2) 0.2897(4) 0.5138(8) 1 0 0.0308(12) 

loop_
_atom_site_aniso_label
_atom_site_aniso_type_symbol
_atom_site_aniso_U_11
_atom_site_aniso_U_22
_atom_site_aniso_U_33
_atom_site_aniso_U_12
_atom_site_aniso_U_13
_atom_site_aniso_U_23
Co1 Co2+ 0.0152(12) 0.0232(14) 0.0255(15) 0.0028(12) 0.0004(11) -0.0033(12)
Co2 Co2+ 0.0180(13) 0.0165(12) 0.0256(17) -0.0023(10) 0.0023(12) 
-0.0011(12)
Co3 Co2+ 0.0174(14) 0.0187(13) 0.0210(15) -0.0001(11) -0.0004(12) 
-0.0041(11)
K1 K1+ 0.025(3) 0.042(3) 0.084(5) -0.009(2) -0.004(3) 0.006(3)
K2 K1+ 0.023(2) 0.064(4) 0.058(4) 0.002(2) 0.008(3) -0.001(3)
K3 K1+ 0.021(3) 0.043(3) 0.042(3) 0.003(2) -0.004(2) 0.003(3)
K4 K1+ 0.021(2) 0.023(2) 0.023(2) 0.0027(16) -0.001(2) 0.004(2)
K5 K1+ 0.029(3) 0.020(2) 0.037(3) -0.0049(17) 0.000(2) -0.0022(19)
K6 K1+ 0.022(2) 0.020(2) 0.043(3) -0.0004(16) -0.002(2) -0.0020(18)
Cl1 Cl1- 0.016(2) 0.036(2) 0.035(3) 0.0050(18) -0.004(2) -0.009(2)
Cl2 Cl1- 0.0131(19) 0.037(2) 0.056(3) -0.0033(17) -0.002(2) 0.012(2)
Cl3 Cl1- 0.019(2) 0.029(2) 0.056(3) 0.0002(16) 0.004(2) 0.010(2)
Cl4 Cl1- 0.022(2) 0.028(2) 0.057(3) -0.0018(17) 0.008(2) -0.001(3)
Cl5 Cl1- 0.033(3) 0.019(2) 0.142(7) -0.0124(19) 0.001(4) -0.004(4)
Cl6 Cl1- 0.021(2) 0.023(2) 0.040(3) -0.0063(19) 0.002(2) 0.004(2)
Cl7 Cl1- 0.033(3) 0.040(3) 0.034(3) 0.016(2) 0.004(2) 0.010(2)
Cl8 Cl1- 0.035(3) 0.078(4) 0.039(3) 0.025(3) 0.005(2) 0.034(3)
Cl9 Cl1- 0.038(3) 0.038(3) 0.024(3) 0.004(2) -0.011(3) 0.008(2)
Cl10 Cl1- 0.020(2) 0.041(3) 0.035(3) 0.005(2) 0.004(2) -0.007(2)
Cl11 Cl1- 0.068(4) 0.072(4) 0.026(3) 0.042(3) -0.002(3) -0.009(3)
Cl12 Cl1- 0.041(3) 0.025(2) 0.026(3) 0.003(2) 0.000(2) -0.0074(19)
#End of data_419658-ICSD


