data_174021-ICSD
#?2014 by Fachinformationszentrum Karlsruhe, and the U.S. Secretary of 
#Commerce on behalf of the United States.  All rights reserved.
_database_code_ICSD                174021
_audit_creation_date               2010/02/01
_audit_update_record               2013/08/01
_chemical_name_systematic          'Sodium Catena-phosphate(V)'
_chemical_formula_structural       'Na (P O3)'
_chemical_formula_sum              'Na1 O3 P1'
_publ_section_title
;
Zur Struktur des Madrellschen Salzes
;
loop_
_citation_id
_citation_journal_abbrev
_citation_year
_citation_journal_volume
_citation_journal_issue
_citation_page_first
_citation_page_last
_citation_journal_id_ASTM
primary 'Acta Crystallographica (1,1948-23,1967)' 1963 16 82 428 428 ACCRA9
_publ_author_name                  'Jost, K.H.'
_cell_length_a                     7.93(5)
_cell_length_b                     7.00(5)
_cell_length_c                     7.10(5)
_cell_angle_alpha                  89.1(5)
_cell_angle_beta                   94.2(5)
_cell_angle_gamma                  103.1(5)
_cell_volume                       382.83
_cell_formula_units_Z              6
_symmetry_space_group_name_H-M     'P -1'
_symmetry_Int_Tables_number        2
_refine_ls_R_factor_all            .011
loop_
_symmetry_equiv_pos_site_id
_symmetry_equiv_pos_as_xyz
  1	'-x, -y, -z'
  2	'x, y, z'
loop_
_atom_type_symbol
_atom_type_oxidation_number
Na1+	1
O2-	-2
P5+	5
loop_
_atom_site_label
_atom_site_type_symbol
_atom_site_symmetry_multiplicity
_atom_site_Wyckoff_symbol
_atom_site_fract_x
_atom_site_fract_y
_atom_site_fract_z
_atom_site_occupancy
_atom_site_attached_hydrogens
_atom_site_B_iso_or_equiv
Na1 Na1+ 2 i 0.199 0.426 0.246 1. 0 1.42 
Na2 Na1+ 2 i 0.214 0.932 0.250 1. 0 1.42 
Na3 Na1+ 2 i 0.479 0.759 0.025 1. 0 1.42 
P1 P5+ 2 i 0.181 0.387 0.762 1. 0 1.42 
P2 P5+ 2 i 0.181 0.956 0.762 1. 0 1.42 
P3 P5+ 2 i 0.379 0.723 0.554 1. 0 1.42 
O1 O2- 2 i 0.293 0.495 0.938 1. 0 1.42 
O2 O2- 2 i 0.296 0.911 0.938 1. 0 1.42 
O3 O2- 2 i 0.004 0.630 0.233 1. 0 1.42 
O4 O2- 2 i 0.004 0.135 0.233 1. 0 1.42 
O5 O2- 2 i 0.221 0.182 0.679 1. 0 1.42 
O6 O2- 2 i 0.258 0.507 0.587 1. 0 1.42 
O7 O2- 2 i 0.258 0.865 0.587 1. 0 1.42 
O8 O2- 2 i 0.398 0.732 0.348 1. 0 1.42 
O9 O2- 2 i 0.470 0.230 0.308 1. 0 1.42 

#End of data_174021-ICSD


