data_412877-ICSD
#?2014 by Fachinformationszentrum Karlsruhe, and the U.S. Secretary of 
#Commerce on behalf of the United States.  All rights reserved.
_database_code_ICSD                412877
_audit_creation_date               2004/04/01
_chemical_name_systematic
;
Barium Potassium Catena-ferrate(III)
;
_chemical_formula_structural       'Ba K (Fe O3)'
_chemical_formula_sum              'Ba1 Fe1 K1 O3'
_publ_section_title
;
Synthesis and structure of Ba K Fe O3: a new quaternary oxide with 1-
D ferrate chains
;
loop_
_citation_id
_citation_journal_abbrev
_citation_year
_citation_journal_volume
_citation_page_first
_citation_page_last
_citation_journal_id_ASTM
primary 'Journal of Solid State Chemistry' 2003 172 261 264 JSSCBI
_publ_author_name                  'Delattre, J.L.;Stacy, A.M.'
_cell_length_a                     5.804(1)
_cell_length_b                     11.528(1)
_cell_length_c                     12.776(1)
_cell_angle_alpha                  90
_cell_angle_beta                   90
_cell_angle_gamma                  90
_cell_volume                       854.82
_cell_formula_units_Z              8
_symmetry_space_group_name_H-M     'C m c a'
_symmetry_Int_Tables_number        64
_refine_ls_R_factor_all            .0376
loop_
_symmetry_equiv_pos_site_id
_symmetry_equiv_pos_as_xyz
  1	'-x, -y+.5, z+.5'
  2	'-x, y+.5, -z+.5'
  3	'-x, y, z'
  4	'-x, -y, -z'
  5	'x, y+.5, -z+.5'
  6	'x, -y+.5, z+.5'
  7	'x, -y, -z'
  8	'x, y, z'
  9	'-x+.5, -y, z+.5'
 10	'-x+.5, y, -z+.5'
 11	'-x+.5, y+.5, z'
 12	'-x+.5, -y+.5, -z'
 13	'x+.5, y, -z+.5'
 14	'x+.5, -y, z+.5'
 15	'x+.5, -y+.5, -z'
 16	'x+.5, y+.5, z'
loop_
_atom_type_symbol
_atom_type_oxidation_number
Ba2+	2
Fe3+	3
K1+	1
O2-	-2
loop_
_atom_site_label
_atom_site_type_symbol
_atom_site_symmetry_multiplicity
_atom_site_Wyckoff_symbol
_atom_site_fract_x
_atom_site_fract_y
_atom_site_fract_z
_atom_site_occupancy
_atom_site_attached_hydrogens
_atom_site_U_iso_or_equiv
K1 K1+ 8 f 0 0.0476(2) 0.1426(2) 1. 0 0.008(1) 
Ba1 Ba2+ 8 f 0 0.3568(1) 0.0804(1) 1. 0 0.007(1) 
Fe1 Fe3+ 8 f 0 0.2317(1) 0.3361(1) 1. 0 0.005(1) 
O1 O2- 8 f 0 0.3307(6) 0.4515(6) 1. 0 0.011(2) 
O2 O2- 8 f 0 0.0758(7) 0.3767(5) 1. 0 0.013(2) 
O3 O2- 8 e 0.250 0.2698(6) 0.250 1. 0 0.007(1) 

#End of data_412877-ICSD


