data_160644-ICSD
#?2014 by Fachinformationszentrum Karlsruhe, and the U.S. Secretary of 
#Commerce on behalf of the United States.  All rights reserved.
_database_code_ICSD                160644
_audit_creation_date               2009/02/01
_chemical_name_systematic          'Disilver Chromate'
_chemical_formula_structural       'Ag2 (Cr O4)'
_chemical_formula_sum              'Ag2 Cr1 O4'
_publ_section_title
;
Correlation of crystal structures, electronic structures and 
photocatalytic properties in a series of Ag-based oxides: Ag Al O2, 
Ag Cr O2 and Ag2 Cr O4
;
loop_
_citation_id
_citation_journal_abbrev
_citation_year
_citation_journal_volume
_citation_page_first
_citation_page_last
_citation_journal_id_ASTM
primary 'Journal of Physical Chemistry C' 2008 112 3134 3141 JPCCCK
_publ_author_name
;
Ouyang Shuxin;Li Zhaosheng;Ouyang Zi;Yu Tao;Ye Jinhua;Zou Zhigang
;
_cell_length_a                     10.6751
_cell_length_b                     7.0542
_cell_length_c                     5.7500
_cell_angle_alpha                  90.
_cell_angle_beta                   90.
_cell_angle_gamma                  90.
_cell_volume                       433
_cell_formula_units_Z              4
_symmetry_space_group_name_H-M     'P n m a'
_symmetry_Int_Tables_number        62
loop_
_symmetry_equiv_pos_site_id
_symmetry_equiv_pos_as_xyz
  1	'x+.5, y, -z+.5'
  2	'x, -y+.5, z'
  3	'-x+.5, y+.5, z+.5'
  4	'-x, -y, -z'
  5	'-x+.5, -y, z+.5'
  6	'-x, y+.5, -z'
  7	'x+.5, -y+.5, -z+.5'
  8	'x, y, z'
loop_
_atom_type_symbol
_atom_type_oxidation_number
Ag1+	1
Cr6+	6
O2-	-2
loop_
_atom_site_label
_atom_site_type_symbol
_atom_site_symmetry_multiplicity
_atom_site_Wyckoff_symbol
_atom_site_fract_x
_atom_site_fract_y
_atom_site_fract_z
_atom_site_occupancy
_atom_site_attached_hydrogens
Ag1 Ag1+ 4 a 0.5 0.5 0.5 1. 0 
Ag2 Ag1+ 4 c 0.1494 0.250 0.4809 1. 0 
Cr1 Cr6+ 4 c 0.3136 0.250 0.9593 1. 0 
O1 O2- 4 c 0.1583 0.250 0.8933 1. 0 
O2 O2- 4 c 0.3348 0.250 0.2441 1. 0 
O3 O2- 8 d 0.3813 0.4430 0.8464 1. 0 

#End of data_160644-ICSD


