data_414341-ICSD
#?2014 by Fachinformationszentrum Karlsruhe, and the U.S. Secretary of 
#Commerce on behalf of the United States.  All rights reserved.
_database_code_ICSD                414341
_audit_creation_date               2007/08/01
_chemical_name_systematic
;
Tetracalcium Catena-hexaphosphate(V)
;
_chemical_formula_structural       'Ca4 (P6 O19)'
_chemical_formula_sum              'Ca4 O19 P6'
_chemical_name_mineral             Troemelite
_publ_section_title
;
Synthesis, crystal structure and vibrational spectra of Ca4 P6 O19 
(troemelite) - a catena-hexaphosphate
;
loop_
_citation_id
_citation_journal_abbrev
_citation_year
_citation_journal_volume
_citation_page_first
_citation_page_last
_citation_journal_id_ASTM
primary 'Zeitschrift fuer Anorganische und Allgemeine Chemie (1950) (DE)'
 2005 631 1272 1276 ZAACAB
_publ_author_name                  'Hoeppe, H.A.'
_cell_length_a                     6.8570(9)
_cell_length_b                     9.1547(12)
_cell_length_c                     12.8225(17)
_cell_angle_alpha                  109.602(10)
_cell_angle_beta                   99.778(10)
_cell_angle_gamma                  91.917(10)
_cell_volume                       743.7
_cell_formula_units_Z              2
_symmetry_space_group_name_H-M     'P -1'
_symmetry_Int_Tables_number        2
_refine_ls_R_factor_all            .0567
loop_
_symmetry_equiv_pos_site_id
_symmetry_equiv_pos_as_xyz
  1	'-x, -y, -z'
  2	'x, y, z'
loop_
_atom_type_symbol
_atom_type_oxidation_number
Ca2+	2
O2-	-2
P5+	5
loop_
_atom_site_label
_atom_site_type_symbol
_atom_site_symmetry_multiplicity
_atom_site_Wyckoff_symbol
_atom_site_fract_x
_atom_site_fract_y
_atom_site_fract_z
_atom_site_occupancy
_atom_site_attached_hydrogens
_atom_site_U_iso_or_equiv
Ca1 Ca2+ 2 i -0.02637(18) -0.18177(15) 0.85240(11) 1 0 0.0099(3) 
Ca2 Ca2+ 2 i 0.35424(18) -0.13142(13) 0.12103(10) 1 0 0.0108(3) 
Ca3 Ca2+ 2 i 0.80709(19) -0.00683(14) 0.36628(11) 1 0 0.0111(3) 
Ca4 Ca2+ 2 i -0.09837(18) -0.65052(13) 0.66637(10) 1 0 0.0102(2) 
P1 P5+ 2 i 0.2715(2) 0.05266(17) 0.37487(13) 1 0 0.0082(3) 
P2 P5+ 2 i 0.6267(2) -0.33071(16) 0.41718(12) 1 0 0.0088(3) 
P3 P5+ 2 i 0.7948(2) 0.37030(17) 0.37913(13) 1 0 0.0079(3) 
P4 P5+ 2 i 0.5364(2) 0.23992(17) 0.15149(12) 1 0 0.0086(3) 
P5 P5+ 2 i -0.2884(2) -0.46005(17) 0.90641(13) 1 0 0.0098(3) 
P6 P5+ 2 i 0.8740(2) -0.18808(17) 0.11919(12) 1 0 0.0080(3) 
O1 O2- 2 i 0.4355(6) -0.0262(5) 0.3197(4) 1 0 0.0119(9) 
O2 O2- 2 i 0.1098(6) 0.0955(5) 0.2987(4) 1 0 0.0134(9) 
O3 O2- 2 i 0.1788(6) -0.0325(5) 0.4410(4) 1 0 0.0118(9) 
O4 O2- 2 i 0.6137(7) -0.2157(5) 0.5364(4) 1 0 0.0146(9) 
O5 O2- 2 i 0.4249(6) -0.3773(5) 0.3504(4) 1 0 0.0152(9) 
O6 O2- 2 i 0.7803(6) -0.2673(5) 0.3702(4) 1 0 0.0121(9) 
O7 O2- 2 i 0.7076(7) -0.4778(4) 0.4474(3) 1 0 0.0142(9) 
O8 O2- 2 i 0.8407(6) 0.2778(5) 0.4544(4) 1 0 0.0122(9) 
O9 O2- 2 i 0.9516(6) 0.4091(5) 0.3231(4) 1 0 0.0120(9) 
O10 O2- 2 i 0.6133(6) 0.2714(5) 0.2817(3) 1 0 0.0162(9) 
O11 O2- 2 i 0.6935(6) 0.1869(5) 0.0843(4) 1 0 0.0128(9) 
O12 O2- 2 i 0.3519(6) 0.1316(5) 0.1219(4) 1 0 0.0122(9) 
O13 O2- 2 i 0.4914(6) 0.4052(5) 0.1454(4) 1 0 0.0181(10) 
O14 O2- 2 i -0.3407(7) -0.6177(5) 0.9042(4) 1 0 0.0175(9) 
O15 O2- 2 i -0.1297(7) -0.4306(5) 0.8476(4) 1 0 0.0142(9) 
O16 O2- 2 i -0.2471(7) -0.3481(5) 0.0314(4) 1 0 0.0206(11) 
O17 O2- 2 i 0.0042(7) -0.2304(5) 0.2082(4) 1 0 0.0171(10) 
O18 O2- 2 i 0.7144(6) -0.0880(5) 0.1645(4) 1 0 0.0142(9) 
O19 O2- 2 i 0.9974(6) -0.1170(5) 0.0558(4) 1 0 0.0116(9) 

loop_
_atom_site_aniso_label
_atom_site_aniso_type_symbol
_atom_site_aniso_U_11
_atom_site_aniso_U_22
_atom_site_aniso_U_33
_atom_site_aniso_U_12
_atom_site_aniso_U_13
_atom_site_aniso_U_23
Ca1 Ca2+ 0.0082(5) 0.0123(5) 0.0103(6) 0.0016(4) 0.0013(4) 0.0057(4)
Ca2 Ca2+ 0.0119(5) 0.0087(5) 0.0108(6) 0.0015(4) 0.0001(5) 0.0031(4)
Ca3 Ca2+ 0.0129(5) 0.0120(6) 0.0090(6) -0.0007(4) 0.0016(4) 0.0048(4)
Ca4 Ca2+ 0.0092(5) 0.0123(5) 0.0108(6) 0.0023(4) 0.0020(4) 0.0061(4)
P1 P5+ 0.0094(7) 0.0085(6) 0.0064(7) 0.0001(5) 0.0013(5) 0.0023(5)
P2 P5+ 0.0075(6) 0.0091(6) 0.0075(7) 0.0004(5) 0.0016(5) -0.0001(5)
P3 P5+ 0.0091(6) 0.0081(6) 0.0077(6) 0.0008(5) 0.0021(5) 0.0039(5)
P4 P5+ 0.0082(6) 0.0095(6) 0.0081(7) 0.0006(5) 0.0014(5) 0.0032(5)
P5 P5+ 0.0103(7) 0.0082(7) 0.0099(7) -0.0003(5) 0.0021(6) 0.0018(5)
P6 P5+ 0.0095(7) 0.0086(7) 0.0062(7) -0.0009(5) 0.0007(5) 0.0036(5)
O1 O2- 0.0146(19) 0.0123(19) 0.011(2) 0.0021(16) 0.0046(16) 0.0055(15)
O2 O2- 0.015(2) 0.016(2) 0.011(2) 0.0015(16) 0.0004(16) 0.0087(16)
O3 O2- 0.013(2) 0.0112(19) 0.010(2) -0.0004(15) 0.0012(16) 0.0021(15)
O4 O2- 0.0146(19) 0.0123(19) 0.011(2) 0.0021(16) 0.0046(16) 0.0055(15)
O5 O2- 0.0105(19) 0.019(2) 0.012(2) 0.0006(15) -0.0022(16) 0.0019(16)
O6 O2- 0.0110(19) 0.017(2) 0.012(2) 0.0038(16) 0.0061(16) 0.0063(16)
O7 O2- 0.0105(19) 0.019(2) 0.012(2) 0.0006(15) -0.0022(16) 0.0019(16)
O8 O2- 0.015(2) 0.0089(19) 0.013(2) 0.0012(15) 0.0020(17) 0.0056(15)
O9 O2- 0.0115(19) 0.0104(19) 0.015(2) 0.0012(15) 0.0023(17) 0.0060(15)
O10 O2- 0.015(2) 0.0089(19) 0.013(2) 0.0012(15) 0.0020(17) 0.0056(15)
O11 O2- 0.0121(19) 0.019(2) 0.007(2) -0.0009(16) 0.0012(16) 0.0035(15)
O12 O2- 0.0093(19) 0.015(2) 0.010(2) -0.0030(15) -0.0039(16) 0.0047(15)
O13 O2- 0.0121(19) 0.019(2) 0.007(2) -0.0009(16) 0.0012(16) 0.0035(15)
O14 O2- 0.019(2) 0.012(2) 0.021(2) 0.0027(16) 0.0002(18) 0.0066(16)
O15 O2- 0.015(2) 0.012(2) 0.015(2) 0.0005(16) 0.0054(17) 0.0031(16)
O16 O2- 0.019(2) 0.012(2) 0.021(2) 0.0027(16) 0.0002(18) 0.0066(16)
O17 O2- 0.022(2) 0.015(2) 0.014(2) 0.0007(17) -0.0037(18) 0.0075(16)
O18 O2- 0.013(2) 0.018(2) 0.015(2) 0.0068(16) 0.0057(17) 0.0078(16)
O19 O2- 0.012(2) 0.014(2) 0.009(2) -0.0021(16) 0.0004(16) 0.0058(15)
#End of data_414341-ICSD


