data_28223-ICSD
#?2014 by Fachinformationszentrum Karlsruhe, and the U.S. Secretary of 
#Commerce on behalf of the United States.  All rights reserved.
_database_code_ICSD                28223
_audit_creation_date               1980/01/01
_audit_update_record               1999/11/30
_chemical_name_systematic          'Zinc Indium Fluoride Heptahydrate'
_chemical_formula_structural       'Zn In F5 (H2 O)7'
_chemical_formula_sum              'H14 F5 In1 O7 Zn1'
_publ_section_title
;
Determination and Refinement of the Crystal Structure of Heptahydrate 
Fluorides Zn In F5 (H2 O)7 and Cd Ga F5 (H2 O)7
;
loop_
_citation_id
_citation_journal_abbrev
_citation_year
_citation_journal_volume
_citation_page_first
_citation_page_last
_citation_journal_id_ASTM
primary 'Koordinatsionnaya Khimiya (= Coordination Chemistry (USSR))'
 1977 3 926 938 KOKHDC
_publ_author_name
;
Bukvetskii, B.V.;Polishchuk, S.A.;Simonov, V.I.
;
_cell_length_a                     6.638(2)
_cell_length_b                     9.039(2)
_cell_length_c                     11.812(4)
_cell_angle_alpha                  120.72(2)
_cell_angle_beta                   111.55(2)
_cell_angle_gamma                  98.21(2)
_cell_volume                       516.03
_cell_formula_units_Z              2
_symmetry_space_group_name_H-M     'P -1'
_symmetry_Int_Tables_number        2
_refine_ls_R_factor_all            .016
loop_
_symmetry_equiv_pos_site_id
_symmetry_equiv_pos_as_xyz
  1	'-x, -y, -z'
  2	'x, y, z'
loop_
_atom_type_symbol
_atom_type_oxidation_number
F1-	-1
H1+	1
In3+	3
O2-	-2
Zn2+	2
loop_
_atom_site_label
_atom_site_type_symbol
_atom_site_symmetry_multiplicity
_atom_site_Wyckoff_symbol
_atom_site_fract_x
_atom_site_fract_y
_atom_site_fract_z
_atom_site_occupancy
_atom_site_attached_hydrogens
_atom_site_B_iso_or_equiv
In1 In3+ 1 f 0.5 0 0.5 1. 0 0 
In2 In3+ 1 a 0 0 0 1. 0 0 
Zn1 Zn2+ 1 g 0 0.5 0.5 1. 0 0 
Zn2 Zn2+ 1 e 0.5 0.5 0 1. 0 0 
F1 F1- 2 i 0.8599(3) 0.1207(3) 0.6006(2) 1. 0 0 
F2 F1- 2 i 0.4834(3) 0.2588(2) 0.5789(2) 1. 0 0 
F3 F1- 2 i 0.2789(3) 0.2122(3) 0.2186(2) 1. 0 0 
F4 F1- 2 i 0.7814(3) 0.0011(3) 0.0874(2) 1. 0 0 
F5 F1- 2 i 0.9243(3) 0.1981(3) 0.9697(2) 1. 0 0 
O1 O2- 2 i 0.7430(4) 0.4365(3) 0.1116(3) 1. 0 0 
O2 O2- 2 i 0.6773(4) 0.4937(3) 0.8860(3) 1. 0 0 
O3 O2- 2 i 0.2721(4) 0.2031(3) 0.8208(2) 1. 0 0 
O4 O2- 2 i 0.7144(4) 0.2967(3) 0.2688(2) 1. 0 0 
O5 O2- 2 i 0.0537(4) 0.2820(3) 0.5053(3) 1. 0 0 
O6 O2- 2 i 0.2338(4) 0.4950(3) 0.4236(3) 1. 0 0 
O7 O2- 2 i 0.5288(4) 0.0384(3) 0.7013(3) 1. 0 0 
H1 H1+ 2 i 0.000(7) 0.242(6) 0.540(5) 1. 0 1.9 
H2 H1+ 2 i 0.178(7) 0.279(5) 0.526(4) 1. 0 0.8 
H3 H1+ 2 i 0.812(8) 0.377(7) 0.077(6) 1. 0 3.7 
H4 H1+ 2 i 0.728(7) 0.403(6) 0.149(5) 1. 0 2. 
H5 H1+ 2 i 0.732(6) 0.190(5) 0.208(4) 1. 0 0.4 
H6 H1+ 2 i 0.586(7) 0.264(5) 0.253(5) 1. 0 1.9 
H7 H1+ 2 i 0.689(7) 0.420(6) 0.567(4) 1. 0 1.4 
H8 H1+ 2 i 0.245(6) 0.395(5) 0.356(4) 1. 0 1. 
H9 H1+ 2 i 0.216(7) 0.427(5) 0.079(4) 1. 0 1.2 
H10 H1+ 2 i 0.607(6) 0.422(5) 0.785(4) 1. 0 0.5 
H11 H1+ 2 i 0.249(6) 0.136(5) 0.852(4) 1. 0 1. 
H12 H1+ 2 i 0.147(6) 0.173(5) 0.755(4) 1. 0 0.1 
H13 H1+ 2 i 0.658(6) 0.074(5) 0.779(4) 1. 0 0.1 
H14 H1+ 2 i 0.461(7) 0.082(5) 0.736(4) 1. 0 1.5 

#End of data_28223-ICSD


