data_412903-ICSD
#?2014 by Fachinformationszentrum Karlsruhe, and the U.S. Secretary of 
#Commerce on behalf of the United States.  All rights reserved.
_database_code_ICSD                412903
_audit_creation_date               2004/04/01
_chemical_name_systematic
;
Silver Octa-mue3-bromo-octahedro-tetrakis(bromomolybdenum)- 
Bromodimolybdenum
;
_chemical_formula_structural       'Ag (Br8 (Mo Br)4 (Mo2 Br))'
_chemical_formula_sum              'Ag1 Br13 Mo6'
_publ_section_title
;
New catenary octahedro-hexamolybdenum cluster bromides: crystal 
structures of A Mo6 Br13 with A = Na, Ag
;
loop_
_citation_id
_citation_journal_abbrev
_citation_year
_citation_journal_volume
_citation_page_first
_citation_page_last
_citation_journal_id_ASTM
primary 'Solid State Sciences' 2003 5 573 578 SSSCFJ
_publ_author_name                  'Wang, P.;Xu, W.;Zheng, Y.-Q.'
_cell_length_a                     9.183(2)
_cell_length_b                     9.392(2)
_cell_length_c                     14.328(3)
_cell_angle_alpha                  95.85(3)
_cell_angle_beta                   102.04(3)
_cell_angle_gamma                  114.30(3)
_cell_volume                       1076.77
_cell_formula_units_Z              2
_symmetry_space_group_name_H-M     'P -1'
_symmetry_Int_Tables_number        2
_refine_ls_R_factor_all            .048
loop_
_symmetry_equiv_pos_site_id
_symmetry_equiv_pos_as_xyz
  1	'-x, -y, -z'
  2	'x, y, z'
loop_
_atom_type_symbol
_atom_type_oxidation_number
Ag1+	1
Br1-	-1
Mo2+	2
loop_
_atom_site_label
_atom_site_type_symbol
_atom_site_symmetry_multiplicity
_atom_site_Wyckoff_symbol
_atom_site_fract_x
_atom_site_fract_y
_atom_site_fract_z
_atom_site_occupancy
_atom_site_attached_hydrogens
_atom_site_U_iso_or_equiv
Mo1 Mo2+ 2 i 0.44594(11) 0.00937(10) 0.11856(6) 1. 0 0.0283(2) 
Mo2 Mo2+ 2 i 0.70012(11) 0.00291(10) 0.06362(6) 1. 0 0.0280(2) 
Mo3 Mo2+ 2 i 0.60177(11) 0.22206(10) 0.02387(6) 1. 0 0.0285(2) 
Mo4 Mo2+ 2 i 0.45935(12) 0.31549(11) 0.41475(7) 1. 0 0.0299(2) 
Mo5 Mo2+ 2 i 0.68492(12) 0.61720(11) 0.45885(7) 1. 0 0.0304(2) 
Mo6 Mo2+ 2 i 0.36606(12) 0.54439(11) 0.40211(7) 1. 0 0.0306(2) 
Br1 Br1- 2 i 0.74641(14) 0.23102(13) 0.20247(8) 1. 0 0.0334(2) 
Br2 Br1- 2 i 0.34624(14) 0.21882(12) 0.07479(8) 1. 0 0.0320(2) 
Br3 Br1- 2 i 0.14993(14) -.21529(13) 0.03019(8) 1. 0 0.0343(3) 
Br4 Br1- 2 i 0.54167(14) -.20708(13) 0.15604(8) 1. 0 0.0339(2) 
Br5 Br1- 2 i 0.97314(14) -.00502(14) 0.14788(8) 1. 0 0.0377(3) 
Br6 Br1- 2 i 0.74182(16) 0.53124(13) 0.06054(9) 1. 0 0.0431(3) 
Br7 Br1- 2 i 0.14737(14) 0.24811(13) 0.36359(8) 1. 0 0.0362(3) 
Br8 Br1- 2 i 0.51639(15) 0.48050(13) 0.28085(8) 1. 0 0.0366(3) 
Br9 Br1- 2 i 0.77324(14) 0.38725(14) 0.47128(9) 1. 0 0.0379(3) 
Br10 Br1- 2 i 0.41117(15) 0.15896(13) 0.55318(8) 1. 0 0.0367(3) 
Br11 Br1- 2 i 0.94972(16) 0.79320(16) 0.40786(10) 1. 0 0.0476(3) 
Br12 Br1- 2 i 0.17604(16) 0.58653(16) 0.25605(9) 1. 0 0.0453(3) 
Br13 Br1- 2 i 0.38525(15) 0.03977(13) 0.29493(8) 1. 0 0.0349(3) 
Ag1 Ag1+ 2 i 0.96144(18) 0.72962(16) 0.22748(9) 1. 0 0.0658(3) 

loop_
_atom_site_aniso_label
_atom_site_aniso_type_symbol
_atom_site_aniso_U_11
_atom_site_aniso_U_22
_atom_site_aniso_U_33
_atom_site_aniso_U_12
_atom_site_aniso_U_13
_atom_site_aniso_U_23
Mo1 Mo2+ 0.0283(5) 0.0291(4) 0.0283(4) 0.0131(4) 0.0084(4) 0.0065(3)
Mo2 Mo2+ 0.0271(4) 0.0282(4) 0.0283(4) 0.0127(4) 0.0063(4) 0.0053(3)
Mo3 Mo2+ 0.0293(5) 0.0277(4) 0.0291(4) 0.0129(4) 0.0083(4) 0.0062(3)
Mo4 Mo2+ 0.0309(5) 0.0295(4) 0.0287(4) 0.0140(4) 0.0063(4) 0.0047(3)
Mo5 Mo2+ 0.0311(5) 0.0304(4) 0.0293(4) 0.0137(4) 0.0079(4) 0.0051(3)
Mo6 Mo2+ 0.0317(5) 0.0314(5) 0.0292(4) 0.0158(4) 0.0060(4) 0.0060(3)
Br1 Br1- 0.0325(6) 0.0332(5) 0.0312(5) 0.0139(4) 0.0053(4) 0.0028(4)
Br2 Br1- 0.0341(6) 0.0323(5) 0.0313(5) 0.0170(4) 0.0085(4) 0.0049(4)
Br3 Br1- 0.0301(5) 0.0339(5) 0.0385(6) 0.0123(4) 0.0124(4) 0.0084(4)
Br4 Br1- 0.0369(6) 0.0344(5) 0.0342(5) 0.0179(5) 0.0111(4) 0.0122(4)
Br5 Br1- 0.0323(6) 0.0421(6) 0.0378(6) 0.0191(5) 0.0044(5) 0.0038(5)
Br6 Br1- 0.0429(7) 0.0285(5) 0.0508(7) 0.0125(5) 0.0062(5) 0.0079(5)
Br7 Br1- 0.0327(6) 0.0357(5) 0.0344(5) 0.0132(5) 0.0044(4) 0.0022(4)
Br8 Br1- 0.0426(6) 0.0367(6) 0.0297(5) 0.0171(5) 0.0099(5) 0.0067(4)
Br9 Br1- 0.0354(6) 0.0404(6) 0.0407(6) 0.0204(5) 0.0101(5) 0.0055(5)
Br10 Br1- 0.0427(6) 0.0315(5) 0.0363(6) 0.0169(5) 0.0100(5) 0.0090(4)
Br11 Br1- 0.0419(7) 0.0492(7) 0.0458(7) 0.0119(6) 0.0187(6) 0.0078(5)
Br12 Br1- 0.0437(7) 0.0499(7) 0.0431(7) 0.0245(6) 0.0038(5) 0.0143(5)
Br13 Br1- 0.0421(6) 0.0325(5) 0.0328(5) 0.0176(5) 0.0136(5) 0.0071(4)
Ag1 Ag1+ 0.0825(9) 0.0758(8) 0.0481(6) 0.0456(7) 0.0159(6) 0.0102(5)
#End of data_412903-ICSD


