data_4063-ICSD
#?2014 by Fachinformationszentrum Karlsruhe, and the U.S. Secretary of 
#Commerce on behalf of the United States.  All rights reserved.
_database_code_ICSD                4063
_audit_creation_date               1980/01/01
_audit_update_record               2003/04/01
_chemical_name_systematic          'Potassium Iron Chloride'
_chemical_formula_structural       'K Fe Cl3'
_chemical_formula_sum              'Cl3 Fe1 K1'
_publ_section_title
;
Neutron diffraction study of the magnetic structure of  K Fe Cl3
;
loop_
_citation_id
_citation_journal_abbrev
_citation_year
_citation_journal_volume
_citation_page_first
_citation_page_last
_citation_journal_id_ASTM
primary 'Physical Review, Serie 3. B - Solid State (1,1970-17,1977)'
 1974 9 1071 1076 PLRBAQ
2 'Phase Transition' 1992 38 127 220 PHTRDP
_publ_author_name
;
Gurewitz, E.;Makovsky, J.;Shaked, H.
;
_cell_length_a                     8.715
_cell_length_b                     3.845
_cell_length_c                     14.15
_cell_angle_alpha                  90.
_cell_angle_beta                   90.
_cell_angle_gamma                  90.
_cell_volume                       474.15
_cell_formula_units_Z              4
_symmetry_space_group_name_H-M     'P n m a'
_symmetry_Int_Tables_number        62
_refine_ls_R_factor_all            .0424
loop_
_symmetry_equiv_pos_site_id
_symmetry_equiv_pos_as_xyz
  1	'x+.5, y, -z+.5'
  2	'x, -y+.5, z'
  3	'-x+.5, y+.5, z+.5'
  4	'-x, -y, -z'
  5	'-x+.5, -y, z+.5'
  6	'-x, y+.5, -z'
  7	'x+.5, -y+.5, -z+.5'
  8	'x, y, z'
loop_
_atom_type_symbol
_atom_type_oxidation_number
Cl1-	-1
Fe2+	2
K1+	1
loop_
_atom_site_label
_atom_site_type_symbol
_atom_site_symmetry_multiplicity
_atom_site_Wyckoff_symbol
_atom_site_fract_x
_atom_site_fract_y
_atom_site_fract_z
_atom_site_occupancy
_atom_site_attached_hydrogens
Fe1 Fe2+ 4 c 0.166(4) 0.25 0.059(4) 1. 0 
K1 K1+ 4 c 0.443(19) 0.25 0.810(7) 1. 0 
Cl1 Cl1- 4 c 0.273(6) 0.25 0.202(3) 1. 0 
Cl2 Cl1- 4 c 0.171(6) 0.25 0.491(2) 1. 0 
Cl3 Cl1- 4 c 0.024(5) 0.25 0.903(3) 1. 0 

#End of data_4063-ICSD


