data_33661-ICSD
#?2014 by Fachinformationszentrum Karlsruhe, and the U.S. Secretary of 
#Commerce on behalf of the United States.  All rights reserved.
_database_code_ICSD                33661
_audit_creation_date               1984/11/05
_audit_update_record               2005/10/01
_chemical_name_systematic          'Lithium Nitrate(V)'
_chemical_formula_structural       'Li (N O3)'
_chemical_formula_sum              'Li1 N1 O3'
_publ_section_title
;
Untersuchungen ueber die Kristallstruktur von Sesquioxyden und 
Verbindungen A B O3
;
loop_
_citation_id
_citation_journal_abbrev
_citation_year
_citation_journal_volume
_citation_page_first
_citation_page_last
_citation_journal_id_ASTM
primary
;
Skrifter utgitt av det Norske Videnskaps-Akademi i Oslo 1: Matematisk-
Naturvidenskapelig Klasse
;
 1928 1928 1 165 SUNVAQ
_publ_author_name                  'Zachariasen, W.H.'
_cell_length_a                     5.74(2)
_cell_length_b                     5.74(2)
_cell_length_c                     5.74(2)
_cell_angle_alpha                  48.05(17)
_cell_angle_beta                   48.05(17)
_cell_angle_gamma                  48.05(17)
_cell_volume                       95.84
_cell_formula_units_Z              2
_symmetry_space_group_name_H-M     'R -3 c R'
_symmetry_Int_Tables_number        167
loop_
_symmetry_equiv_pos_site_id
_symmetry_equiv_pos_as_xyz
  1	'-x+.5, -z+.5, -y+.5'
  2	'-z+.5, -y+.5, -x+.5'
  3	'-y+.5, -x+.5, -z+.5'
  4	'x+.5, z+.5, y+.5'
  5	'z+.5, y+.5, x+.5'
  6	'y+.5, x+.5, z+.5'
  7	'-z, -x, -y'
  8	'-y, -z, -x'
  9	'-x, -y, -z'
 10	'z, x, y'
 11	'y, z, x'
 12	'x, y, z'
loop_
_atom_type_symbol
_atom_type_oxidation_number
Li1+	1
N5+	5
O2-	-2
loop_
_atom_site_label
_atom_site_type_symbol
_atom_site_symmetry_multiplicity
_atom_site_Wyckoff_symbol
_atom_site_fract_x
_atom_site_fract_y
_atom_site_fract_z
_atom_site_occupancy
_atom_site_attached_hydrogens
Li1 Li1+ 2 b 0 0 0 1. 0 
N1 N5+ 2 a 0.25 0.25 0.25 1. 0 
O1 O2- 6 e -.264(6) 0.764(6) 0.25 1. 0 

#End of data_33661-ICSD


