data_100180-ICSD
#?2014 by Fachinformationszentrum Karlsruhe, and the U.S. Secretary of 
#Commerce on behalf of the United States.  All rights reserved.
_database_code_ICSD                100180
_audit_creation_date               1980/12/31
_audit_update_record               2013/02/01
_chemical_name_systematic          'Potassium Iron Iron(III) Sulfide'
_chemical_formula_structural       'K Fe2 S3'
_chemical_formula_sum              'Fe2 K1 S3'
_chemical_name_mineral             Rasvumite
_publ_section_title
;
Crystal structure of rasvumite, K Fe2 S3
;
loop_
_citation_id
_citation_journal_abbrev
_citation_year
_citation_journal_volume
_citation_page_first
_citation_page_last
_citation_journal_id_ASTM
primary 'American Mineralogist' 1980 65 477 482 AMMIAY
2 'American Mineralogist' 1979 64 776 778 AMMIAY
_publ_author_name                  'Clark, J.R.;Brown, G.E.'
_cell_length_a                     9.049(6)
_cell_length_b                     11.019(7)
_cell_length_c                     5.431(4)
_cell_angle_alpha                  90.
_cell_angle_beta                   90.
_cell_angle_gamma                  90.
_cell_volume                       541.53
_cell_formula_units_Z              4
_symmetry_space_group_name_H-M     'C m c m'
_symmetry_Int_Tables_number        63
_refine_ls_R_factor_all            .081
loop_
_symmetry_equiv_pos_site_id
_symmetry_equiv_pos_as_xyz
  1	'-x, y, -z+.5'
  2	'-x, -y, z+.5'
  3	'-x, y, z'
  4	'-x, -y, -z'
  5	'x, -y, z+.5'
  6	'x, y, -z+.5'
  7	'x, -y, -z'
  8	'x, y, z'
  9	'-x+.5, y+.5, -z+.5'
 10	'-x+.5, -y+.5, z+.5'
 11	'-x+.5, y+.5, z'
 12	'-x+.5, -y+.5, -z'
 13	'x+.5, -y+.5, z+.5'
 14	'x+.5, y+.5, -z+.5'
 15	'x+.5, -y+.5, -z'
 16	'x+.5, y+.5, z'
loop_
_atom_type_symbol
_atom_type_oxidation_number
Fe2.5+	2.5
K1+	1
S2-	-2
loop_
_atom_site_label
_atom_site_type_symbol
_atom_site_symmetry_multiplicity
_atom_site_Wyckoff_symbol
_atom_site_fract_x
_atom_site_fract_y
_atom_site_fract_z
_atom_site_occupancy
_atom_site_attached_hydrogens
_atom_site_B_iso_or_equiv
Fe1 Fe2.5+ 8 e 0.3502(3) 0.5 0 1. 0 1.18 
S1 S2- 4 c 0.5 0.6191(5) 0.25 1. 0 1.16 
S2 S2- 8 g 0.2174(5) 0.3859(5) 0.25 1. 0 1.74 
K1 K1+ 4 c 0.5 0.1699(7) 0.25 1. 0 2.33 

#End of data_100180-ICSD


