data_20034-ICSD
#?2014 by Fachinformationszentrum Karlsruhe, and the U.S. Secretary of 
#Commerce on behalf of the United States.  All rights reserved.
_database_code_ICSD                20034
_audit_creation_date               1980/01/01
_audit_update_record               2010/02/01
_chemical_name_systematic          'Potassium Nickel Phosphate(V)'
_chemical_formula_structural       'K Ni (P O4)'
_chemical_formula_sum              'K1 Ni1 O4 P1'
_publ_section_title
;
Crystal structure of antiferromagnetic K, Ni-phosphate K Ni P O4
;
loop_
_citation_id
_citation_journal_abbrev
_citation_year
_citation_journal_volume
_citation_page_first
_citation_page_last
_citation_journal_id_ASTM
primary 'Doklady Akademii Nauk SSSR' 1973 208 346 349 DANKAS
_publ_author_name
;
Ljutin, V.I.;Tutov, A.G.;Ilyukhin, V.V.;Belov, N.B.
;
_cell_length_a                     8.64
_cell_length_b                     9.28
_cell_length_c                     4.93
_cell_angle_alpha                  90.
_cell_angle_beta                   90.
_cell_angle_gamma                  90.
_cell_volume                       395.28
_cell_formula_units_Z              4
_symmetry_space_group_name_H-M     'P n a 21'
_symmetry_Int_Tables_number        33
_refine_ls_R_factor_all            .046
loop_
_symmetry_equiv_pos_site_id
_symmetry_equiv_pos_as_xyz
  1	'x+.5, -y+.5, z'
  2	'-x+.5, y+.5, z+.5'
  3	'-x, -y, z+.5'
  4	'x, y, z'
loop_
_atom_type_symbol
_atom_type_oxidation_number
K1+	1
Ni2+	2
O2-	-2
P5+	5
loop_
_atom_site_label
_atom_site_type_symbol
_atom_site_symmetry_multiplicity
_atom_site_Wyckoff_symbol
_atom_site_fract_x
_atom_site_fract_y
_atom_site_fract_z
_atom_site_occupancy
_atom_site_attached_hydrogens
_atom_site_B_iso_or_equiv
Ni1 Ni2+ 4 a 0.154 0.043 0.988 1. 0 0.42 
K1 K1+ 4 a -.001 0.316 0.512 1. 0 1.04 
P1 P5+ 4 a 0.291 0.374 0.051 1. 0 0.42 
O1 O2- 4 a 0.265 0.22 0.134 1. 0 1.15 
O2 O2- 4 a 0.453 0.416 0.174 1. 0 0.67 
O3 O2- 4 a 0.185 0.481 0.194 1. 0 0.83 
O4 O2- 4 a 0.286 0.388 0.739 1. 0 0.86 

#End of data_20034-ICSD


