data_60086-ICSD
#?2014 by Fachinformationszentrum Karlsruhe, and the U.S. Secretary of 
#Commerce on behalf of the United States.  All rights reserved.
_database_code_ICSD                60086
_audit_creation_date               1986/04/14
_chemical_name_systematic
;
Tetrasodium Tetraselenogermanate(IV)
;
_chemical_formula_structural       'Na4 Ge Se4'
_chemical_formula_sum              'Ge1 Na4 Se4'
_publ_section_title
;
Preparation and crystal structure of Na4 Ge Se4: A new 
orthoselenogermanate(IV)
;
loop_
_citation_id
_citation_journal_abbrev
_citation_year
_citation_journal_volume
_citation_page_first
_citation_page_last
_citation_journal_id_ASTM
primary
;
Zeitschrift fuer Naturforschung, Teil B. Anorganische Chemie, 
Organische Chemie (33,1978-41,1986)
;
 1985 40 878 882 ZNBAD2
_publ_author_name                  'Klepp, K.O.'
_cell_length_a                     28.518(8)
_cell_length_b                     9.447(5)
_cell_length_c                     7.128(2)
_cell_angle_alpha                  90.
_cell_angle_beta                   90.
_cell_angle_gamma                  90.
_cell_volume                       1920.35
_cell_formula_units_Z              8
_symmetry_space_group_name_H-M     'P n m a'
_symmetry_Int_Tables_number        62
_refine_ls_R_factor_all            .074
loop_
_symmetry_equiv_pos_site_id
_symmetry_equiv_pos_as_xyz
  1	'x+.5, y, -z+.5'
  2	'x, -y+.5, z'
  3	'-x+.5, y+.5, z+.5'
  4	'-x, -y, -z'
  5	'-x+.5, -y, z+.5'
  6	'-x, y+.5, -z'
  7	'x+.5, -y+.5, -z+.5'
  8	'x, y, z'
loop_
_atom_type_symbol
_atom_type_oxidation_number
Ge4+	4
Na1+	1
Se2-	-2
loop_
_atom_site_label
_atom_site_type_symbol
_atom_site_symmetry_multiplicity
_atom_site_Wyckoff_symbol
_atom_site_fract_x
_atom_site_fract_y
_atom_site_fract_z
_atom_site_occupancy
_atom_site_attached_hydrogens
Na1 Na1+ 4 c 0.1426(6) 0.25 0.453(3) 1. 0 
Na2 Na1+ 4 c 0.1049(6) 0.75 0.472(3) 1. 0 
Na3 Na1+ 8 d 0.2435(4) 0.555(1) 0.594(2) 1. 0 
Na4 Na1+ 8 d 0.4783(5) 0.555(2) 0.753(2) 1. 0 
Na5 Na1+ 8 d 0.3671(5) 0.500(2) 0.430(2) 1. 0 
Ge1 Ge4+ 4 c 0.2083(1) 0.75 0.1787(5) 1. 0 
Ge2 Ge4+ 4 c 0.4546(1) 0.75 0.2914(5) 1. 0 
Se1 Se2- 4 c 0.2875(1) 0.75 0.2751(5) 1. 0 
Se2 Se2- 4 c 0.3037(1) 0.25 0.3516(5) 1. 0 
Se3 Se2- 8 d 0.3275(1) 0.4512(3) 0.8024(3) 1. 0 
Se4 Se2- 4 c 0.4642(1) 0.25 0.6416(7) 1. 0 
Se5 Se2- 4 c 0.4143(1) 0.75 0.5781(5) 1. 0 
Se6 Se2- 8 d 0.0696(1) 0.4494(3) 0.6188(4) 1. 0 

loop_
_atom_site_aniso_label
_atom_site_aniso_type_symbol
_atom_site_aniso_B_11
_atom_site_aniso_B_22
_atom_site_aniso_B_33
_atom_site_aniso_B_12
_atom_site_aniso_B_13
_atom_site_aniso_B_23
Na1 Na1+ 2.8(7) 2.9(7) 3.7(8) 0 -.8(6) 0
Na2 Na1+ 2.7(7) 4.5(9) 6.0(9) 0 1.7(7) 0
Na3 Na1+ 2.7(4) 4.1(5) 2.7(5) 1.6(4) -.6(4) -.1(5)
Na4 Na1+ 7.2(7) 7.7(8) 3.6(6) 5.3(6) -.3(6) -.8(6)
Na5 Na1+ 7.3(6) 7.7(7) 4.9(6) -5.8(5) 4.0(5) -3.1(6)
Ge1 Ge4+ 0.7(1) 1.0(1) 1.1(1) 0 0.1(1) 0
Ge2 Ge4+ 0.6(1) 2.0(1) 1.2(1) 0 -.1(1) 0
Se1 Se2- 0.8(1) 2.1(1) 2.3(1) 0 0.0(1) 0
Se2 Se2- 2.3(1) 1.9(1) 1.0(1) 0 -.3(1) 0
Se3 Se2- 1.45(8) 1.55(9) 1.87(9) -.41(8) 0.00(8) -.39(8)
Se4 Se2- 0.9(1) 5.4(2) 4.5(2) 0 -.5(2) 0
Se5 Se2- 1.8(1) 2.2(1) 1.3(1) 0 0.7(1) 0
Se6 Se2- 2.4(1) 2.3(1) 2.3(1) 0.19(9) -.19(9) 0.8(1)
#End of data_60086-ICSD


