data_39396-ICSD
#?2014 by Fachinformationszentrum Karlsruhe, and the U.S. Secretary of 
#Commerce on behalf of the United States.  All rights reserved.
_database_code_ICSD                39396
_audit_creation_date               1992/01/20
_audit_update_record               2012/02/01
_chemical_name_systematic          'Barium Zinc Diphosphate(V)'
_chemical_formula_structural       'Ba Zn (P2 O7)'
_chemical_formula_sum              'Ba1 O7 P2 Zn1'
_publ_section_title
;
Crystal structure of double pyrophosphates Ba M' P2 O7 (M'= Zn, Cd)
;
loop_
_citation_id
_citation_journal_abbrev
_citation_year
_citation_journal_volume
_citation_page_first
_citation_page_last
_citation_journal_id_ASTM
primary 'Zhurnal Neorganicheskoi Khimii' 1991 36 847 850 ZNOKAQ
2 'Russian Journal of Inorganic Chemistry' 1991 36 479 481 RJICAQ
_publ_author_name
;
Murashova, E.V.;Velikodnyi, Yu.A.;Trunov, V.K.
;
_cell_length_a                     5.316(1)
_cell_length_b                     7.309(2)
_cell_length_c                     7.579(2)
_cell_angle_alpha                  102.68(2)
_cell_angle_beta                   92.13(2)
_cell_angle_gamma                  94.08(2)
_cell_volume                       286.15
_cell_formula_units_Z              2
_symmetry_space_group_name_H-M     'P -1'
_symmetry_Int_Tables_number        2
_refine_ls_R_factor_all            .04
loop_
_symmetry_equiv_pos_site_id
_symmetry_equiv_pos_as_xyz
  1	'-x, -y, -z'
  2	'x, y, z'
loop_
_atom_type_symbol
_atom_type_oxidation_number
Ba2+	2
O2-	-2
P5+	5
Zn2+	2
loop_
_atom_site_label
_atom_site_type_symbol
_atom_site_symmetry_multiplicity
_atom_site_Wyckoff_symbol
_atom_site_fract_x
_atom_site_fract_y
_atom_site_fract_z
_atom_site_occupancy
_atom_site_attached_hydrogens
_atom_site_B_iso_or_equiv
Ba1 Ba2+ 2 i 0.20672(6) 0.27544(4) 0.43037(4) 1. 0 0.778(3) 
Zn1 Zn2+ 2 i 0.2040(1) 0.11130(9) 0.89314(8) 1. 0 0.875(8) 
P1 P5+ 2 i 0.7074(2) 0.2309(2) 0.7135(2) 1. 0 0.68(2) 
P2 P5+ 2 i 0.2939(2) 0.6866(2) 0.9006(2) 1. 0 0.68(2) 
O1 O2- 2 i 0.4628(7) 0.1070(6) 0.7022(6) 1. 0 1.06(6) 
O2 O2- 2 i -.0631(7) 0.1135(5) 0.7016(5) 1. 0 0.94(5) 
O3 O2- 2 i 0.1105(7) -.1578(5) 0.9039(5) 1. 0 0.94(5) 
O4 O2- 2 i 0.2679(7) 0.6269(5) 0.0913(5) 1. 0 0.85(5) 
O5 O2- 2 i 0.7105(7) 0.3480(6) 0.5721(5) 1. 0 0.97(5) 
O6 O2- 2 i 0.4336(7) 0.2314(6) 0.1021(5) 1. 0 1.04(6) 
O7 O2- 2 i 0.2190(8) 0.5160(6) 0.7547(6) 1. 0 1.27(6) 

#End of data_39396-ICSD


