data_39542-ICSD
#?2014 by Fachinformationszentrum Karlsruhe, and the U.S. Secretary of 
#Commerce on behalf of the United States.  All rights reserved.
_database_code_ICSD                39542
_audit_creation_date               1992/08/20
_chemical_name_systematic          'Tetrasodium Copper Molybdate'
_chemical_formula_structural       'Na4 Cu (Mo O4)3'
_chemical_formula_sum              'Cu1 Mo3 Na4 O12'
_publ_section_title
;
Crystal structures of double molybdates Na4Cu(MoO4)3 and Na2Ni(MoO4)2 
- new members of the alluodite family
;
loop_
_citation_id
_citation_journal_abbrev
_citation_year
_citation_journal_volume
_citation_journal_issue
_citation_page_first
_citation_page_last
_citation_journal_id_ASTM
primary 'Zhurnal Strukturnoi Khimii (Issue-No. from 1981)'
 1991 32 6 127 136 ZSTKAI
_publ_author_name
;
Klevtsova, R.F.;Borisov, S.V.;Bliznyuk, N.A.;Glinskaya, 
L.A.;Klevtsov, P.V.
;
_cell_length_a                     11.803(4)
_cell_length_b                     9.347(4)
_cell_length_c                     14.240(4)
_cell_angle_alpha                  104.60(3)
_cell_angle_beta                   102.11(3)
_cell_angle_gamma                  123.50(3)
_cell_volume                       1143.1
_cell_formula_units_Z              4
_symmetry_space_group_name_H-M     'P -1'
_symmetry_Int_Tables_number        2
_refine_ls_R_factor_all            .054
loop_
_symmetry_equiv_pos_site_id
_symmetry_equiv_pos_as_xyz
  1	'-x, -y, -z'
  2	'x, y, z'
loop_
_atom_type_symbol
_atom_type_oxidation_number
Cu2+	2
Mo6+	6
Na1+	1
O2-	-2
loop_
_atom_site_label
_atom_site_type_symbol
_atom_site_symmetry_multiplicity
_atom_site_Wyckoff_symbol
_atom_site_fract_x
_atom_site_fract_y
_atom_site_fract_z
_atom_site_occupancy
_atom_site_attached_hydrogens
_atom_site_U_iso_or_equiv
Mo1 Mo6+ 2 i 0.2330(1) 0.4254(1) 0.4858(1) 1. 0 0.0092(4) 
Mo2 Mo6+ 2 i 0.3809(1) 0.2121(1) 0.2565(1) 1. 0 0.0090(4) 
Mo3 Mo6+ 2 i 0.1629(1) 0.7826(1) 0.3836(1) 1. 0 0.0087(4) 
Mo4 Mo6+ 2 i 0.1919(1) 0.4241(1) -.0239(1) 1. 0 0.0083(4) 
Mo5 Mo6+ 2 i 0.3845(1) 0.2202(1) 0.7447(1) 1. 0 0.0097(4) 
Mo6 Mo6+ 2 i 0.1706(1) 0.7844(1) 0.9020(1) 1. 0 0.0093(4) 
Cu1 Cu2+ 2 i 0.5411(1) 0.6809(2) 0.4640(1) 1. 0 0.0103(5) 
Cu2 Cu2+ 2 i 0.8623(1) 0.3247(2) 0.8744(1) 1. 0 0.0102(6) 
Na1 Na1+ 2 i 0.5584(5) 0.6814(7) 0.9660(4) 1. 0 0.019(2) 
Na2 Na1+ 2 i 0.8769(5) 0.3147(7) 0.3750(3) 1. 0 0.018(2) 
Na3 Na1+ 2 i 0.2258(5) 0.4534(6) 0.2391(4) 1. 0 0.016(2) 
Na4 Na1+ 2 i 0.2281(5) 0.4539(6) 0.7379(4) 1. 0 0.016(2) 
Na5 Na1+ 2 i 0.4935(9) 0.0007(15) 0.8706(6) 1. 0 0.095(6) 
Na6 Na1+ 2 i 0.5267(9) 0.0400(14) 0.3891(6) 1. 0 0.086(6) 
Na7 Na1+ 2 i 0.0085(6) 0.9913(7) 0.2429(4) 1. 0 0.025(3) 
Na8 Na1+ 1 a 0 0 0 1. 0 0.030(4) 
Na9 Na1+ 1 b 0 0 0.5 1. 0 0.033(4) 
O1 O2- 2 i 0.2491(9) 0.559(1) 0.6043(7) 1. 0 0.021(2) 
O2 O2- 2 i 0.3345(8) 0.575(1) 0.4274(6) 1. 0 0.014(1) 
O3 O2- 2 i 0.0457(9) 0.257(1) 0.3930(7) 1. 0 0.022(2) 
O4 O2- 2 i 0.2717(8) 0.273(1) 0.5067(6) 1. 0 0.015(2) 
O5 O2- 2 i 0.4596(9) 0.339(1) 0.4020(6) 1. 0 0.016(2) 
O6 O2- 2 i 0.2094(9) 0.163(1) 0.1996(7) 1. 0 0.020(2) 
O7 O2- 2 i 0.3534(9) 0.997(1) 0.2230(6) 1. 0 0.018(2) 
O8 O2- 2 i 0.5052(9) 0.345(1) 0.2084(6) 1. 0 0.016(2) 
O9 O2- 2 i 0.0449(9) 0.840(1) 0.3621(7) 1. 0 0.020(2) 
O10 O2- 2 i 0.3524(8) -.005(1) 0.4649(6) 1. 0 0.015(2) 
O11 O2- 2 i 0.1519(9) 0.656(1) 0.2611(6) 1. 0 0.016(2) 
O12 O2- 2 i 0.1103(9) 0.644(1) 0.4528(6) 1. 0 0.017(2) 
O13 O2- 2 i 0.2377(8) 0.568(1) 0.1105(6) 1. 0 0.014(1) 
O14 O2- 2 i 0.0020(8) 0.730(1) 0.1187(6) 1. 0 0.014(1) 
O15 O2- 2 i 0.3079(9) 0.558(1) -.0762(6) 1. 0 0.017(2) 
O16 O2- 2 i 0.2098(9) 0.252(1) -.0212(7) 1. 0 0.019(2) 
O17 O2- 2 i 0.2090(9) 0.165(1) 0.6947(7) 1. 0 0.022(2) 
O18 O2- 2 i 0.3580(9) 0.007(1) 0.7205(6) 1. 0 0.019(2) 
O19 O2- 2 i 0.4957(9) 0.336(1) 0.6797(6) 1. 0 0.016(2) 
O20 O2- 2 i 0.4752(9) 0.364(1) 0.8832(6) 1. 0 0.018(2) 
O21 O2- 2 i 0.0462(9) 0.831(1) 0.8700(7) 1. 0 0.020(2) 
O22 O2- 2 i 0.3564(9) 0.002(1) 0.9787(7) 1. 0 0.020(2) 
O23 O2- 2 i 0.1218(8) 0.655(1) 0.9817(6) 1. 0 0.014(2) 
O24 O2- 2 i 0.1691(9) 0.662(1) 0.7863(6) 1. 0 0.019(2) 

#End of data_39542-ICSD


