data_174134-ICSD
#?2014 by Fachinformationszentrum Karlsruhe, and the U.S. Secretary of 
#Commerce on behalf of the United States.  All rights reserved.
_database_code_ICSD                174134
_audit_creation_date               2010/02/01
_chemical_name_systematic          'Dilithium Copper(II) Oxide'
_chemical_formula_structural       'Li2 Cu O2'
_chemical_formula_sum              'Cu1 Li2 O2'
_publ_section_title
;
High pressure induced coordination evolution in chain compound Li2 Cu 
O2
;
loop_
_citation_id
_citation_journal_abbrev
_citation_year
_citation_journal_volume
_citation_journal_issue
_citation_page_first
_citation_page_last
_citation_journal_id_ASTM
primary 'Journal of Solid State Chemistry' 2009 182 11 3085 3090 JSSCBI
_publ_author_name
;
You Shujie;Li Zhi;Yang Liuxiang;Dong Cheng;Chen Liangcheng;Jin 
Changqing;Hu Jingzhu;Shen Guoyin;Mao Hokwang
;
_cell_length_a                     5.6346(22)
_cell_length_b                     2.7853(8)
_cell_length_c                     4.9233(18)
_cell_angle_alpha                  90
_cell_angle_beta                   97.128(25)
_cell_angle_gamma                  90
_cell_volume                       76.67
_cell_formula_units_Z              2
_symmetry_space_group_name_H-M     'C 1 2/m 1'
_symmetry_Int_Tables_number        12
_refine_ls_R_factor_all            .0114
loop_
_symmetry_equiv_pos_site_id
_symmetry_equiv_pos_as_xyz
  1	'-x, y, -z'
  2	'-x, -y, -z'
  3	'x, -y, z'
  4	'x, y, z'
  5	'-x+.5, y+.5, -z'
  6	'-x+.5, -y+.5, -z'
  7	'x+.5, -y+.5, z'
  8	'x+.5, y+.5, z'
loop_
_atom_type_symbol
_atom_type_oxidation_number
Cu2+	2
Li1+	1
O2-	-2
loop_
_atom_site_label
_atom_site_type_symbol
_atom_site_symmetry_multiplicity
_atom_site_Wyckoff_symbol
_atom_site_fract_x
_atom_site_fract_y
_atom_site_fract_z
_atom_site_occupancy
_atom_site_attached_hydrogens
Li1 Li1+ 4 i 0.1921(33) 0 0.1182(34) 1. 0 
Cu1 Cu2+ 2 b 0 0.5 0 1. 0 
O1 O2- 4 i 0.1316(18) 0 0.7583(14) 1. 0 

#End of data_174134-ICSD


