data_190587-ICSD
#?2014 by Fachinformationszentrum Karlsruhe, and the U.S. Secretary of 
#Commerce on behalf of the United States.  All rights reserved.
_database_code_ICSD                190587
_audit_creation_date               2014/08/01
_chemical_name_systematic          'Disilver Cadmium Tetraiodide'
_chemical_formula_structural       'Ag2 Cd I4'
_chemical_formula_sum              'Ag2 Cd1 I4'
_publ_section_title
;
Structural and superionic properties of Ag(+)-rich ternary phases 
within the Ag I - M I2 systems
;
loop_
_citation_id
_citation_journal_abbrev
_citation_year
_citation_journal_volume
_citation_journal_issue
_citation_page_first
_citation_page_last
_citation_journal_id_ASTM
primary 'Journal of Physics: Condensed Matter' 2002 14 49 13579 13596 JCOMEL
_publ_author_name                  'Hull, S.;Keen, D.A.;Berastegui, P.'
_cell_length_a                     6.3338(3)
_cell_length_b                     6.3338(3)
_cell_length_c                     12.6807(9)
_cell_angle_alpha                  90.
_cell_angle_beta                   90.
_cell_angle_gamma                  90.
_cell_volume                       508.71
_cell_formula_units_Z              2
_symmetry_space_group_name_H-M     'I -4 2 m'
_symmetry_Int_Tables_number        121
_refine_ls_R_factor_all            .0424
loop_
_symmetry_equiv_pos_site_id
_symmetry_equiv_pos_as_xyz
  1	'-y, -x, z'
  2	'y, x, z'
  3	'y, -x, -z'
  4	'-y, x, -z'
  5	'x, -y, -z'
  6	'-x, y, -z'
  7	'-x, -y, z'
  8	'x, y, z'
  9	'-y+.5, -x+.5, z+.5'
 10	'y+.5, x+.5, z+.5'
 11	'y+.5, -x+.5, -z+.5'
 12	'-y+.5, x+.5, -z+.5'
 13	'x+.5, -y+.5, -z+.5'
 14	'-x+.5, y+.5, -z+.5'
 15	'-x+.5, -y+.5, z+.5'
 16	'x+.5, y+.5, z+.5'
loop_
_atom_type_symbol
_atom_type_oxidation_number
Ag1+	1
Cd2+	2
I1-	-1
loop_
_atom_site_label
_atom_site_type_symbol
_atom_site_symmetry_multiplicity
_atom_site_Wyckoff_symbol
_atom_site_fract_x
_atom_site_fract_y
_atom_site_fract_z
_atom_site_occupancy
_atom_site_attached_hydrogens
_atom_site_U_iso_or_equiv
Ag1 Ag1+ 4 d 0 0.5 0.250 1. 0 0.048(7) 
Cd1 Cd2+ 2 a 0 0 0 1. 0 0.088(6) 
I1 I1- 8 i 0.2667(3) 0.2667(3) 0.1183(3) 1. 0 0.049(7) 

#End of data_190587-ICSD


