data_186608-ICSD
#?2014 by Fachinformationszentrum Karlsruhe, and the U.S. Secretary of 
#Commerce on behalf of the United States.  All rights reserved.
_database_code_ICSD                186608
_audit_creation_date               2013/08/01
_chemical_name_systematic          'Cesium Aluminosilicate'
_chemical_formula_structural       'Cs (Al Si O4)'
_chemical_formula_sum              'Al1 Cs1 O4 Si1'
_publ_section_title
;
Phase stability and thermo-elastic behaviour of Cs Al Si O4 (ABW): A 
potential nuclear waste disposal material
;
loop_
_citation_id
_citation_journal_abbrev
_citation_year
_citation_journal_volume
_citation_page_first
_citation_page_last
_citation_journal_id_ASTM
primary 'Microporous and Mesoporous Materials' 2012 163 147 152 MIMMFJ
_publ_author_name
;
Gatta, G.D.;Merlini, M.;Lotti, P.;Lausi, A.;Rieder, M.
;
_cell_length_a                     9.4077(1)
_cell_length_b                     5.4335(1)
_cell_length_c                     9.0061(1)
_cell_angle_alpha                  90.
_cell_angle_beta                   90.
_cell_angle_gamma                  90.
_cell_volume                       460.36
_cell_formula_units_Z              4
_symmetry_space_group_name_H-M     'P c 21 n'
_symmetry_Int_Tables_number        33
_refine_ls_R_factor_all            .08
loop_
_symmetry_equiv_pos_site_id
_symmetry_equiv_pos_as_xyz
  1	'-x+.5, y, z+.5'
  2	'x+.5, y+.5, -z+.5'
  3	'-x, y+.5, -z'
  4	'x, y, z'
loop_
_atom_type_symbol
_atom_type_oxidation_number
Al3+	3
Cs1+	1
O2-	-2
Si4+	4
loop_
_atom_site_label
_atom_site_type_symbol
_atom_site_symmetry_multiplicity
_atom_site_Wyckoff_symbol
_atom_site_fract_x
_atom_site_fract_y
_atom_site_fract_z
_atom_site_occupancy
_atom_site_attached_hydrogens
_atom_site_U_iso_or_equiv
Cs1 Cs1+ 4 a 0.1962(3) 0.495(7) 0.499(2) 1. 0 0.040(1) 
Si1 Si4+ 4 a 0.078(1) 0.001(1) 0.1913(6) 1. 0 0.015(2) 
Al1 Al3+ 4 a 0.406(1) -0.004(1) 0.3209(7) 1. 0 0.015(2) 
O1 O2- 4 a 0.0943(2) -0.003(1) 0.0141(7) 1. 0 0.033(4) 
O2 O2- 4 a 0.004(2) -0.253(1) 0.2445(2) 1. 0 0.033(4) 
O3 O2- 4 a -0.017(1) 0.230(1) 0.2487(2) 1. 0 0.033(4) 
O4 O2- 4 a 0.233(2) 0.027(2) 0.264(2) 1. 0 0.033(4) 

#End of data_186608-ICSD


