data_9328-ICSD
#?2014 by Fachinformationszentrum Karlsruhe, and the U.S. Secretary of 
#Commerce on behalf of the United States.  All rights reserved.
_database_code_ICSD                9328
_audit_creation_date               1980/01/01
_audit_update_record               2012/02/01
_chemical_name_systematic          'Magnesium Catena-silicate'
_chemical_formula_structural       'Mg (Si O3)'
_chemical_formula_sum              'Mg1 O3 Si1'
_chemical_name_mineral             Enstatite
_publ_section_title
;
The crystal structure of orthoenstatite
;
loop_
_citation_id
_citation_journal_abbrev
_citation_year
_citation_journal_volume
_citation_page_first
_citation_page_last
_citation_journal_id_ASTM
primary
;
Zeitschrift fuer Kristallographie, Kristallgeometrie, Kristallphysik, 
Kristallchemie (-144,1977)
;
 1969 129 65 83 ZEKGAX
2 'Golden Book of Phase Transitions, Wroclaw' 2002 1 1 123 GBOPT5
_publ_author_name                  'Morimoto, N.;Koto, K.'
_cell_length_a                     18.210(10)
_cell_length_b                     8.812(5)
_cell_length_c                     5.178(4)
_cell_angle_alpha                  90.
_cell_angle_beta                   90.
_cell_angle_gamma                  90.
_cell_volume                       830.9
_cell_formula_units_Z              16
_symmetry_space_group_name_H-M     'P b c a'
_symmetry_Int_Tables_number        61
_refine_ls_R_factor_all            .095
loop_
_symmetry_equiv_pos_site_id
_symmetry_equiv_pos_as_xyz
  1	'x+.5, y, -z+.5'
  2	'x, -y+.5, z+.5'
  3	'-x+.5, y+.5, z'
  4	'-x, -y, -z'
  5	'-x+.5, -y, z+.5'
  6	'-x, y+.5, -z+.5'
  7	'x+.5, -y+.5, -z'
  8	'x, y, z'
loop_
_atom_type_symbol
_atom_type_oxidation_number
Mg2+	2
O2-	-2
Si4+	4
loop_
_atom_site_label
_atom_site_type_symbol
_atom_site_symmetry_multiplicity
_atom_site_Wyckoff_symbol
_atom_site_fract_x
_atom_site_fract_y
_atom_site_fract_z
_atom_site_occupancy
_atom_site_attached_hydrogens
_atom_site_B_iso_or_equiv
Mg1 Mg2+ 8 c 0.3760(2) 0.6544(4) 0.8663(8) 1. 0 0.69(7) 
Mg2 Mg2+ 8 c 0.3769(2) 0.4854(4) 0.3609(8) 1. 0 0.77(7) 
Si1 Si4+ 8 c 0.2716(2) 0.3411(4) 0.0494(6) 1. 0 0.56(6) 
Si2 Si4+ 8 c 0.4740(2) 0.3373(4) 0.7988(6) 1. 0 0.64(6) 
O1 O2- 8 c 0.1832(4) 0.3386(10) 0.0349(16) 1. 0 0.69(13) 
O2 O2- 8 c 0.3118(5) 0.5022(10) 0.0430(17) 1. 0 0.97(14) 
O3 O2- 8 c 0.3036(5) 0.2252(10) -.1698(19) 1. 0 1.14(15) 
O4 O2- 8 c 0.5628(4) 0.3382(9) 0.8009(16) 1. 0 0.67(13) 
O5 O2- 8 c 0.4337(4) 0.4841(9) 0.6880(17) 1. 0 0.71(13) 
O6 O2- 8 c 0.4470(4) 0.1961(9) 0.6004(17) 1. 0 0.97(15) 

#End of data_9328-ICSD


