data_50672-ICSD
#?2014 by Fachinformationszentrum Karlsruhe, and the U.S. Secretary of 
#Commerce on behalf of the United States.  All rights reserved.
_database_code_ICSD                50672
_audit_creation_date               2000/07/15
_chemical_name_systematic          'Silver Barium Tris(phosphate(V))'
_chemical_formula_structural       'Ag Ba (P O3)3'
_chemical_formula_sum              'Ag1 Ba1 O9 P3'
_publ_section_title
;
Crystal structure and luminescence properties of silver in Ag M (P 
O3)3 (M = Mg, Zn, Ba) polyphosphates
;
loop_
_citation_id
_citation_journal_abbrev
_citation_year
_citation_journal_volume
_citation_page_first
_citation_page_last
_citation_journal_id_ASTM
primary 'Journal of Solid State Chemistry' 1999 145 97 103 JSSCBI
_publ_author_name
;
Belharouak, I.;Aouad, H.;Mesnaoui, M.;Maazaz, M.;Parent, C.;Tanguy, 
B.;Gravereau, P.;le Flem, G.
;
_cell_length_a                     11.0684(1)
_cell_length_b                     12.3127(1)
_cell_length_c                     5.9109(5)
_cell_angle_alpha                  90.
_cell_angle_beta                   90.
_cell_angle_gamma                  90.
_cell_volume                       805.55
_cell_formula_units_Z              4
_symmetry_space_group_name_H-M     'P 21 21 21'
_symmetry_Int_Tables_number        19
_refine_ls_R_factor_all            .048
loop_
_symmetry_equiv_pos_site_id
_symmetry_equiv_pos_as_xyz
  1	'-x, y+.5, -z+.5'
  2	'x+.5, -y+.5, -z'
  3	'-x+.5, -y, z+.5'
  4	'x, y, z'
loop_
_atom_type_symbol
_atom_type_oxidation_number
Ag1+	1
Ba2+	2
O2-	-2
P5+	5
loop_
_atom_site_label
_atom_site_type_symbol
_atom_site_symmetry_multiplicity
_atom_site_Wyckoff_symbol
_atom_site_fract_x
_atom_site_fract_y
_atom_site_fract_z
_atom_site_occupancy
_atom_site_attached_hydrogens
_atom_site_B_iso_or_equiv
Ag1 Ag1+ 4 a 0.4764(1) 0.1359(6) 0.1014(2) 1. 0 2.10(2) 
Ba1 Ba2+ 4 a 0.1079(6) 0.0828(6) 0.0984(1) 1. 0 1.11(1) 
P1 P5+ 4 a 0.4132(3) 0.3707(2) 0.3852(7) 1. 0 0.88(7) 
P2 P5+ 4 a 0.2993(3) 0.1859(2) 0.5915(8) 1. 0 1.00(7) 
P3 P5+ 4 a 0.1523(3) 0.3578(2) 0.3964(8) 1. 0 1.07(7) 
O1 O2- 4 a 0.2793(7) 0.4207(6) 0.3892(4) 1. 0 1.3(1) 
O2 O2- 4 a 0.1806(6) 0.2621(6) 0.5769(7) 1. 0 1.4(1) 
O3 O2- 4 a 0.4039(7) 0.2763(5) 0.5871(6) 1. 0 0.9(1) 
O4 O2- 4 a 0.4991(7) 0.4525(5) 0.4784(1) 1. 0 1.5(1) 
O5 O2- 4 a 0.4412(6) 0.3190(5) 0.1568(5) 1. 0 1.2(2) 
O6 O2- 4 a 0.3021(5) 0.1156(7) 0.3825(5) 1. 0 1.5(1) 
O7 O2- 4 a 0.3065(6) 0.1311(6) 0.8197(4) 1. 0 1.4(2) 
O8 O2- 4 a 0.1302(6) 0.3065(5) 0.1635(4) 1. 0 1.3(1) 
O9 O2- 4 a 0.0616(6) 0.4315(6) 0.5070(1) 1. 0 1.5(2) 

#End of data_50672-ICSD


