data_81479-ICSD
#?2014 by Fachinformationszentrum Karlsruhe, and the U.S. Secretary of 
#Commerce on behalf of the United States.  All rights reserved.
_database_code_ICSD                81479
_audit_creation_date               1997/11/05
_chemical_name_systematic
;
Hexapotassium Bis(oxovanadium(IV)) Bis(oxovanadium) 
Octakis(sulfate(V))
;
_chemical_formula_structural       'K6 (V O)4 (S O4)8'
_chemical_formula_sum              'K6 O36 S8 V4'
_publ_section_title
;
Crystal structure and spectroscopic characterization of K6 (V O)4 (S 
O4)8 containing mixed-valent vanadium(IV)-vanadium(V)
;
loop_
_citation_id
_citation_journal_abbrev
_citation_year
_citation_journal_volume
_citation_page_first
_citation_page_last
_citation_journal_id_ASTM
primary 'Inorganic Chemistry' 1996 35 480 484 INOCAJ
_publ_author_name
;
Eriksen, K.M.;Nielsen, K.;Fehrmann, R.
;
_cell_length_a                     8.931(2)
_cell_length_b                     18.3030(30)
_cell_length_c                     9.971(2)
_cell_angle_alpha                  90.
_cell_angle_beta                   90.11(2)
_cell_angle_gamma                  90.
_cell_volume                       1629.9
_cell_formula_units_Z              2
_symmetry_space_group_name_H-M     'P 1 21 1'
_symmetry_Int_Tables_number        4
_refine_ls_R_factor_all            .081
loop_
_symmetry_equiv_pos_site_id
_symmetry_equiv_pos_as_xyz
  1	'-x, y+.5, -z'
  2	'x, y, z'
loop_
_atom_type_symbol
_atom_type_oxidation_number
K1+	1
O2-	-2
S6+	6
V4+	4
V5+	5
loop_
_atom_site_label
_atom_site_type_symbol
_atom_site_symmetry_multiplicity
_atom_site_Wyckoff_symbol
_atom_site_fract_x
_atom_site_fract_y
_atom_site_fract_z
_atom_site_occupancy
_atom_site_attached_hydrogens
_atom_site_U_iso_or_equiv
V1 V4+ 2 a 0.0400(1) 0.6835(1) 0.1207(1) 1. 0 0.0156(2) 
V2 V5+ 2 a 0.0289(1) 0.6855(1) 0.6218(1) 1. 0 0.0136(2) 
V3 V5+ 2 a 0.4700(1) 0.3150(1) 0.1295(1) 1. 0 0.0137(2) 
V4 V4+ 2 a 0.4599(1) 0.3202(1) 0.6277(1) 1. 0 0.0147(2) 
S1 S6+ 2 a 0.6336(2) 0.7116(1) 0.6255(1) 1. 0 0.0102(3) 
S2 S6+ 2 a 0.6364(2) 0.7123(1) 0.1242(1) 1. 0 0.0107(3) 
S3 S6+ 2 a 0.1332(2) 0.7912(1) 0.8725(2) 1. 0 0.0110(3) 
S4 S6+ 2 a 0.1348(2) 0.7920(1) 0.3771(2) 1. 0 0.0112(3) 
S5 S6+ 2 a 0.4976(2) -.0758(1) 0.1124(1) 1. 0 0.0146(3) 
S6 S6+ 2 a 0.4986(2) -.0752(1) 0.6244(1) 1. 0 0.0151(3) 
S7 S6+ 2 a -.0039(2) 0.5796(1) 0.3728(2) 1. 0 0.0146(3) 
S8 S6+ 2 a -.0043(2) 0.5772(1) 0.8639(2) 1. 0 0.0132(3) 
K1 K1+ 2 a -.0784(2) 0.8820(1) 0.1400(2) 1. 0 0.0284(3) 
K2 K1+ 2 a -.0761(2) 0.8856(1) 0.6205(2) 1. 0 0.0319(4) 
K3 K1+ 2 a 0.7592(2) 0.5031(1) 0.1197(2) 1. 0 0.0240(2) 
K4 K1+ 2 a 0.7436(3) 0.4999(1) 0.6297(2) 1. 0 0.0241(2) 
K5 K1+ 2 a 0.5807(2) 0.1181(1) 0.1117(2) 1. 0 0.0320(4) 
K6 K1+ 2 a 0.5750(2) 0.1197(1) 0.6298(2) 1. 0 0.0333(4) 
O1 O2- 2 a 0.2078(6) 0.6558(3) 0.1183(5) 1. 0 0.029(1) 
O2 O2- 2 a 0.1946(5) 0.6570(3) 0.6203(5) 1. 0 0.027(1) 
O3 O2- 2 a 0.0513(5) 0.1273(3) 0.0241(4) 1. 0 0.023(1) 
O4 O2- 2 a 0.0555(5) 0.1371(3) 0.5230(4) 1. 0 0.0193(9) 
O5 O2- 2 a 0.0469(5) 0.7553(3) 0.2725(5) 1. 0 0.020(1) 
O6 O2- 2 a 0.0388(5) 0.7530(3) 0.7699(5) 1. 0 0.021(1) 
O7 O2- 2 a -.0540(5) 0.6104(3) 0.2434(5) 1. 0 0.021(1) 
O8 O2- 2 a -.0616(5) 0.6144(3) 0.7386(5) 1. 0 0.021(1) 
O9 O2- 2 a 0.0687(5) 0.7728(2) 0.0046(4) 1. 0 0.0179(9) 
O10 O2- 2 a 0.0657(5) 0.7715(2) 0.5092(4) 1. 0 0.0179(9) 
O11 O2- 2 a 0.7881(5) 0.7376(3) 0.1122(5) 1. 0 0.022(1) 
O12 O2- 2 a 0.7854(5) 0.7374(3) 0.6220(5) 1. 0 0.021(1) 
O13 O2- 2 a 0.6939(5) 0.8461(3) 0.8695(5) 1. 0 0.021(1) 
O14 O2- 2 a 0.7060(6) 0.8499(3) 0.3733(5) 1. 0 0.021(1) 
O15 O2- 2 a 0.5394(5) 0.7504(3) 0.0195(4) 1. 0 0.0174(9) 
O16 O2- 2 a 0.5425(5) 0.7516(3) 0.5233(4) 1. 0 0.018(1) 
O17 O2- 2 a 0.4460(6) 0.8683(3) 0.7237(5) 1. 0 0.021(1) 
O18 O2- 2 a 0.4469(6) 0.8786(3) 0.2236(5) 1. 0 0.024(1) 
O19 O2- 2 a 0.4380(5) 0.8874(3) 0.9847(4) 1. 0 0.018(1) 
O20 O2- 2 a 0.4472(5) 0.8965(3) 0.4900(4) 1. 0 0.0179(9) 
O21 O2- 2 a 0.4400(5) 0.2301(3) 0.2418(4) 1. 0 0.020(1) 
O22 O2- 2 a 0.4324(5) 0.2339(3) 0.7455(4) 1. 0 0.021(1) 
O23 O2- 2 a 0.2879(4) 0.7649(3) 0.8656(5) 1. 0 0.017(1) 
O24 O2- 2 a 0.2905(4) 0.7681(3) 0.3765(5) 1. 0 0.0165(9) 
O25 O2- 2 a 0.6136(6) 0.6323(2) 0.6069(5) 1. 0 0.020(1) 
O26 O2- 2 a 0.6140(6) 0.6333(2) 0.1077(5) 1. 0 0.021(1) 
O27 O2- 2 a 0.1163(5) 0.8668(3) 0.8528(5) 1. 0 0.023(1) 
O28 O2- 2 a 0.1154(5) 0.8686(5) 0.3654(5) 1. 0 0.020(1) 
O29 O2- 2 a 0.4181(5) -.0056(2) 0.1151(4) 1. 0 0.0238(9) 
O30 O2- 2 a 0.4148(6) -.0075(3) 0.6444(5) 1. 0 0.036(1) 
O31 O2- 2 a 0.6521(6) -.0710(3) 0.1092(5) 1. 0 0.033(1) 
O32 O2- 2 a 0.6532(6) -.0679(3) 0.6342(5) 1. 0 0.031(1) 
O33 O2- 2 a -.0844(6) 0.5142(3) 0.4046(4) 1. 0 0.031(1) 
O34 O2- 2 a -.0821(7) 0.5100(3) 0.8816(6) 1. 0 0.037(1) 
O35 O2- 2 a 0.1595(5) 0.5716(3) 0.3771(6) 1. 0 0.032(1) 
O36 O2- 2 a 0.1582(5) 0.5690(3) 0.8553(5) 1. 0 0.024(1) 

#End of data_81479-ICSD


