data_89546-ICSD
#?2014 by Fachinformationszentrum Karlsruhe, and the U.S. Secretary of 
#Commerce on behalf of the United States.  All rights reserved.
_database_code_ICSD                89546
_audit_creation_date               2002/04/01
_chemical_name_systematic          'Dipotassium Tritellurouranate(IV)'
_chemical_formula_structural       'K2 (U Te3)'
_chemical_formula_sum              'K2 Te3 U1'
_publ_section_title
;
Die Synthese und Kristallstruktur von K2 U Te3
;
loop_
_citation_id
_citation_journal_abbrev
_citation_year
_citation_journal_volume
_citation_page_first
_citation_page_last
_citation_journal_id_ASTM
primary 'Zeitschrift fuer Anorganische und Allgemeine Chemie (1950) (DE)'
 1999 625 1647 1651 ZAACAB
_publ_author_name                  'Stoewe, K.;Appel-Colbus, S.'
_cell_length_a                     8.0041(3)
_cell_length_b                     13.8767(5)
_cell_length_c                     8.5163(4)
_cell_angle_alpha                  90.
_cell_angle_beta                   108.495(3)
_cell_angle_gamma                  90.
_cell_volume                       897.05
_cell_formula_units_Z              4
_symmetry_space_group_name_H-M     'C 1 2/m 1'
_symmetry_Int_Tables_number        12
_refine_ls_R_factor_all            .017
loop_
_symmetry_equiv_pos_site_id
_symmetry_equiv_pos_as_xyz
  1	'-x, y, -z'
  2	'-x, -y, -z'
  3	'x, -y, z'
  4	'x, y, z'
  5	'-x+.5, y+.5, -z'
  6	'-x+.5, -y+.5, -z'
  7	'x+.5, -y+.5, z'
  8	'x+.5, y+.5, z'
loop_
_atom_type_symbol
_atom_type_oxidation_number
K1+	1
Te2-	-2
U4+	4
loop_
_atom_site_label
_atom_site_type_symbol
_atom_site_symmetry_multiplicity
_atom_site_Wyckoff_symbol
_atom_site_fract_x
_atom_site_fract_y
_atom_site_fract_z
_atom_site_occupancy
_atom_site_attached_hydrogens
U1 U4+ 4 g 0 0.16810(1) 0 1. 0 
Te1 Te2- 4 i 0.20549(4) 0 0.21193(4) 1. 0 
Te2 Te2- 8 j 0.25718(3) 0.31625(2) 0.21615(3) 1. 0 
K1 K1+ 2 b 0 0.5 0 1. 0 
K2 K1+ 2 c 0 0 0.5 1. 0 
K3 K1+ 4 h 0 0.3455(1) 0.5 1. 0 

loop_
_atom_site_aniso_label
_atom_site_aniso_type_symbol
_atom_site_aniso_U_11
_atom_site_aniso_U_22
_atom_site_aniso_U_33
_atom_site_aniso_U_12
_atom_site_aniso_U_13
_atom_site_aniso_U_23
U1 U4+ 0.01311(9) 0.01295(9) 0.0159(1) 0 0.00477(7) 0
Te1 Te2- 0.0173(2) 0.0150(2) 0.0159(2) 0 0.0032(1) 0
Te2 Te2- 0.0170(1) 0.0188(1) 0.0169(1) -.00177(8) 0.00611(9) 0.00196(8)
K1 K1+ 0.0183(7) 0.0183(7) 0.0279(9) 0 0.0087(6) 0
K2 K1+ 0.0316(9) 0.0332(9) 0.0219(9) 0 0.0129(7) 0
K3 K1+ 0.0286(6) 0.0266(6) 0.0216(6) 0 0.0011(5) 0
#End of data_89546-ICSD


