data_42666-ICSD
#?2014 by Fachinformationszentrum Karlsruhe, and the U.S. Secretary of 
#Commerce on behalf of the United States.  All rights reserved.
_database_code_ICSD                42666
_audit_creation_date               2002/04/01
_audit_update_record               2012/02/01
_chemical_name_systematic          'Diindium Dizinc Sulfide - (iii)a'
_chemical_formula_structural       'In2 Zn2 S5'
_chemical_formula_sum              'In2 S5 Zn2'
_publ_section_title
;
Crystal structure of the double-pack polytype Zn In2 S4 (II)a, and 
more careful determination of the structure of the triple-pack 
polytype Zn In2 S4 (III)a
;
loop_
_citation_id
_citation_journal_abbrev
_citation_year
_citation_journal_volume
_citation_page_first
_citation_page_last
_citation_journal_id_ASTM
primary Kristallografiya 1971 16 816 817 KRISAJ
2 'Soviet Physics, Crystallography (= Kristallografiya)'
 1970 15 698 700 SPHCA6
_publ_author_name
;
Donika, F.G.;Radautsan, S.I.;Kiosse, G.A.;Semiletov, S.A.;Donika, 
T.V.;Mustya, I.G.
;
_cell_length_a                     3.85(2)
_cell_length_b                     3.85
_cell_length_c                     46.270(40)
_cell_angle_alpha                  90.
_cell_angle_beta                   90.
_cell_angle_gamma                  120.
_cell_volume                       593.95
_cell_formula_units_Z              3
_symmetry_space_group_name_H-M     'R 3 m H'
_symmetry_Int_Tables_number        160
_refine_ls_R_factor_all            .17
loop_
_symmetry_equiv_pos_site_id
_symmetry_equiv_pos_as_xyz
  1	'-x+y, y, z'
  2	'x, x-y, z'
  3	'-y, -x, z'
  4	'-x+y, -x, z'
  5	'-y, x-y, z'
  6	'x, y, z'
  7	'-x+y+.6666, y+.3333, z+.3333'
  8	'-x+y+.3333, y+.6666, z+.6666'
  9	'x+.6666, x-y+.3333, z+.3333'
 10	'x+.3333, x-y+.6666, z+.6666'
 11	'-y+.6666, -x+.3333, z+.3333'
 12	'-y+.3333, -x+.6666, z+.6666'
 13	'-x+y+.6666, -x+.3333, z+.3333'
 14	'-x+y+.3333, -x+.6666, z+.6666'
 15	'-y+.6666, x-y+.3333, z+.3333'
 16	'-y+.3333, x-y+.6666, z+.6666'
 17	'x+.6666, y+.3333, z+.3333'
 18	'x+.3333, y+.6666, z+.6666'
loop_
_atom_type_symbol
_atom_type_oxidation_number
In3+	3
S2-	-2
Zn2+	2
loop_
_atom_site_label
_atom_site_type_symbol
_atom_site_symmetry_multiplicity
_atom_site_Wyckoff_symbol
_atom_site_fract_x
_atom_site_fract_y
_atom_site_fract_z
_atom_site_occupancy
_atom_site_attached_hydrogens
_atom_site_B_iso_or_equiv
In1 In3+ 3 a 0 0 0.106 1. 0 0.56 
In2 In3+ 3 a 0 0 0.921 1. 0 0.56 
Zn1 Zn2+ 3 a 0 0 0.691 1. 0 0.56 
Zn2 Zn2+ 3 a 0 0 0.521 1. 0 0.56 
S1 S2- 3 a 0 0 0.005 1. 0 0.56 
S2 S2- 3 a 0 0 0.469 1. 0 0.56 
S3 S2- 3 a 0 0 0.607 1. 0 0.56 
S4 S2- 3 a 0 0 0.744 1. 0 0.56 
S5 S2- 3 a 0 0 0.868 1. 0 0.56 

#End of data_42666-ICSD


