data_300153-ICSD
#?2014 by Fachinformationszentrum Karlsruhe, and the U.S. Secretary of 
#Commerce on behalf of the United States.  All rights reserved.
_database_code_ICSD                300153
_audit_creation_date               1991/07/10
_audit_update_record               2014/08/01
_chemical_name_systematic          'Potassium Phyllo-dithioindate'
_chemical_formula_structural       'K (In S2)'
_chemical_formula_sum              'In1 K1 S2'
_publ_section_title
;
Crystal structure of potassium phyllo-dithioindate(III)
;
loop_
_citation_id
_citation_journal_abbrev
_citation_year
_citation_journal_volume
_citation_page_first
_citation_page_last
_citation_journal_id_ASTM
primary 'Zeitschrift fuer Kristallographie (1979-2010)' 1991 195 318 319 ZEKRDZ
_publ_author_name                  'Eisenmann, B.;Hofmann, A.'
_cell_length_a                     11.003(5)
_cell_length_b                     10.995(5)
_cell_length_c                     15.021(6)
_cell_angle_alpha                  90.
_cell_angle_beta                   100.60(6)
_cell_angle_gamma                  90.
_cell_volume                       1786.2
_cell_formula_units_Z              16
_symmetry_space_group_name_H-M     'C 1 2/c 1'
_symmetry_Int_Tables_number        15
_refine_ls_R_factor_all            .055
loop_
_symmetry_equiv_pos_site_id
_symmetry_equiv_pos_as_xyz
  1	'x, -y, z+.5'
  2	'-x, -y, -z'
  3	'-x, y, -z+.5'
  4	'x, y, z'
  5	'x+.5, -y+.5, z+.5'
  6	'-x+.5, -y+.5, -z'
  7	'-x+.5, y+.5, -z+.5'
  8	'x+.5, y+.5, z'
loop_
_atom_type_symbol
_atom_type_oxidation_number
In3+	3
K1+	1
S2-	-2
loop_
_atom_site_label
_atom_site_type_symbol
_atom_site_symmetry_multiplicity
_atom_site_Wyckoff_symbol
_atom_site_fract_x
_atom_site_fract_y
_atom_site_fract_z
_atom_site_occupancy
_atom_site_attached_hydrogens
K1 K1+ 8 f 0.46581(25) 0.31260(25) 0.11604(16) 1. 0 
K2 K1+ 8 f 0.28315(25) 0.06179(26) 0.38346(15) 1. 0 
In1 In3+ 8 f 0.10038(5) 0.18851(5) 0.15523(4) 1. 0 
In2 In3+ 8 f 0.14776(5) 0.43613(5) 0.34478(4) 1. 0 
S1 S2- 4 e 0 0.05128(31) 0.25 1. 0 
S2 S2- 4 e 0 0.57156(32) 0.25 1. 0 
S3 S2- 8 f 0.20168(27) 0.06425(28) 0.05566(15) 1. 0 
S4 S2- 8 f 0.25972(21) 0.31215(20) 0.25059(14) 1. 0 
S5 S2- 8 f 0.04847(31) 0.31289(31) 0.44642(18) 1. 0 

loop_
_atom_site_aniso_label
_atom_site_aniso_type_symbol
_atom_site_aniso_U_11
_atom_site_aniso_U_22
_atom_site_aniso_U_33
_atom_site_aniso_U_12
_atom_site_aniso_U_13
_atom_site_aniso_U_23
K1 K1+ 0.0432(14) 0.0418(13) 0.02123(99) -0.00017(93) 0.00207(92) 
0.0242(11)
K2 K1+ 0.0419(13) 0.0438(14) 0.02064(98) 0.00000(95) 0.00385(90) 
-0.0203(11)
In1 In3+ 0.01440(26) 0.01415(26) 0.01538(27) -0.0003(2) 0.0036(2) 0.0031(2)
In2 In3+ 0.01374(25) 0.01393(26) 0.01424(26) -0.00107(20) 0.00223(19) 
-0.00353(20)
S1 S2- 0.0128(13) 0.0182(14) 0.0381(18) 0 0.0027(12) 0
S2 S2- 0.0061(12) 0.0203(15) 0.0491(21) 0 -0.0048(12) 0
S3 S2- 0.0425(15) 0.0429(15) 0.01094(92) -0.00457(95) -0.00141(92) 
0.0032(13)
S4 S2- 0.0261(10) 0.01491(92) 0.01437(89) -0.00472(68) 0.01099(78) 
-0.00173(75)
S5 S2- 0.0489(17) 0.0523(18) 0.0188(11) -0.00125(11) 0.0050(11) -0.0039(15)
#End of data_300153-ICSD


