data_172780-ICSD
#?2014 by Fachinformationszentrum Karlsruhe, and the U.S. Secretary of 
#Commerce on behalf of the United States.  All rights reserved.
_database_code_ICSD                172780
_audit_creation_date               2007/08/01
_chemical_name_systematic          'Calcium Dialuminium Oxide'
_chemical_formula_structural       'Ca Al2 O4'
_chemical_formula_sum              'Al2 Ca1 O4'
_publ_section_title
;
On the polymorphism of Ca Al2 O4 - structural investigations of two 
high pressure modifications
;
loop_
_citation_id
_citation_journal_abbrev
_citation_year
_citation_journal_volume
_citation_journal_issue
_citation_page_first
_citation_page_last
_citation_journal_id_ASTM
primary 'Solid State Sciences' 2006 8 6 589 597 SSSCFJ
_publ_author_name
;
Lazic, B.;Kahlenberg, V.;Konzett, J.;Kaindl, R.
;
_cell_length_a                     5.556(2)
_cell_length_b                     3.7627(8)
_cell_length_c                     7.056(3)
_cell_angle_alpha                  90
_cell_angle_beta                   101.36(3)
_cell_angle_gamma                  90
_cell_volume                       144.62
_cell_formula_units_Z              2
_symmetry_space_group_name_H-M     'P 1 21/m 1'
_symmetry_Int_Tables_number        11
_refine_ls_R_factor_all            .029
loop_
_symmetry_equiv_pos_site_id
_symmetry_equiv_pos_as_xyz
  1	'x, -y+.5, z'
  2	'-x, -y, -z'
  3	'-x, y+.5, -z'
  4	'x, y, z'
loop_
_atom_type_symbol
_atom_type_oxidation_number
Al3+	3
Ca2+	2
O2-	-2
loop_
_atom_site_label
_atom_site_type_symbol
_atom_site_symmetry_multiplicity
_atom_site_Wyckoff_symbol
_atom_site_fract_x
_atom_site_fract_y
_atom_site_fract_z
_atom_site_occupancy
_atom_site_attached_hydrogens
_atom_site_U_iso_or_equiv
Ca1 Ca2+ 2 e 0.7309(1) 0.25 0.4273(1) 1. 0 0.008(1) 
Al1 Al3+ 2 e 0.8454(3) 0.25 0.8710(1) 1. 0 0.007(1) 
Al2 Al3+ 2 e 0.3434(3) 0.25 0.8882(1) 1. 0 0.006(1) 
O1 O2- 2 e 0.0612(5) 0.25 0.6934(2) 1. 0 0.006(1) 
O2 O2- 2 e 0.5472(5) 0.25 0.6968(2) 1. 0 0.008(1) 
O3 O2- 2 e 0.6377(8) 0.25 0.0746(2) 1. 0 0.006(1) 
O4 O2- 2 e 0.1361(8) 0.25 0.0713(2) 1. 0 0.006(1) 

loop_
_atom_site_aniso_label
_atom_site_aniso_type_symbol
_atom_site_aniso_U_11
_atom_site_aniso_U_22
_atom_site_aniso_U_33
_atom_site_aniso_U_12
_atom_site_aniso_U_13
_atom_site_aniso_U_23
Ca1 Ca2+ 0.009(1) 0.008(1) 0.007(1) 0 0.001(1) 0
Al1 Al3+ 0.008(1) 0.006(1) 0.006(1) 0 0.002(1) 0
Al2 Al3+ 0.007(1) 0.006(1) 0.006(1) 0 0.002(1) 0
O1 O2- 0.004(1) 0.008(1) 0.007(1) 0 0.001(1) 0
O2 O2- 0.008(1) 0.009(1) 0.006(1) 0 0.001(1) 0
O3 O2- 0.006(1) 0.006(1) 0.008(1) 0 0.005(1) 0
O4 O2- 0.007(1) 0.006(1) 0.008(1) 0 0.005(1) 0
#End of data_172780-ICSD


