data_20470-ICSD
#?2014 by Fachinformationszentrum Karlsruhe, and the U.S. Secretary of 
#Commerce on behalf of the United States.  All rights reserved.
_database_code_ICSD                20470
_audit_creation_date               1980/01/01
_audit_update_record               1987/10/12
_chemical_name_systematic          'Magnesium Tungstate'
_chemical_formula_structural       'Mg W O4'
_chemical_formula_sum              'Mg1 O4 W1'
_publ_section_title
;
The crystal structure of the monoclinic form of magnesium tungustate 
Mg W O4
;
loop_
_citation_id
_citation_journal_abbrev
_citation_year
_citation_journal_volume
_citation_page_first
_citation_page_last
_citation_journal_id_ASTM
primary 'Zhurnal Strukturnoi Khimii (Issue-No. from 1981)'
 1969 10 148 149 ZSTKAI
_publ_author_name                  'Kravchenko, V.B.'
_cell_length_a                     4.68
_cell_length_b                     5.66
_cell_length_c                     4.92
_cell_angle_alpha                  90.
_cell_angle_beta                   90.333
_cell_angle_gamma                  90.
_cell_volume                       130.32
_cell_formula_units_Z              2
_symmetry_space_group_name_H-M     'P 1 2/c 1'
_symmetry_Int_Tables_number        13
_refine_ls_R_factor_all            .111
loop_
_symmetry_equiv_pos_site_id
_symmetry_equiv_pos_as_xyz
  1	'x, -y, z+.5'
  2	'-x, -y, -z'
  3	'-x, y, -z+.5'
  4	'x, y, z'
loop_
_atom_type_symbol
_atom_type_oxidation_number
Mg2+	2
O2-	-2
W6+	6
loop_
_atom_site_label
_atom_site_type_symbol
_atom_site_symmetry_multiplicity
_atom_site_Wyckoff_symbol
_atom_site_fract_x
_atom_site_fract_y
_atom_site_fract_z
_atom_site_occupancy
_atom_site_attached_hydrogens
Mg1 Mg2+ 2 f 0.5 0.6592 0.25 1. 0 
W1 W6+ 2 e 0 0.1818 0.25 1. 0 
O1 O2- 4 g 0.221 0.101 0.93 1. 0 
O2 O2- 4 g 0.266 0.384 0.391 1. 0 

#End of data_20470-ICSD


