data_69530-ICSD
#?2014 by Fachinformationszentrum Karlsruhe, and the U.S. Secretary of 
#Commerce on behalf of the United States.  All rights reserved.
_database_code_ICSD                69530
_audit_creation_date               1992/08/20
_chemical_name_systematic          'Dialuminium Tetrayttrium Oxide'
_chemical_formula_structural       'Al2 Y4 O9'
_chemical_formula_sum              'Al2 O9 Y4'
_publ_section_title
;
A comparison of three sets of diffraction data for Al2Y4O9: X-ray 
synchrotron powder data, X-ray single crystal data from Ag Kalpha 
radiation, and neutron single crystal data from 1.01 Angstroem 
neutrons
;
loop_
_citation_id
_citation_journal_abbrev
_citation_year
_citation_journal_volume
_citation_page_first
_citation_page_last
_citation_journal_id_ASTM
primary 'Acta Chemica Scandinavica (43,1989-)' 1991 45 226 230 ACHSE7
_publ_author_name                  'Christensen, A.N.;Hazell, R.G.'
_cell_length_a                     7.375(1)
_cell_length_b                     10.507(2)
_cell_length_c                     11.113(1)
_cell_angle_alpha                  90.
_cell_angle_beta                   108.58(2)
_cell_angle_gamma                  90.
_cell_volume                       816.25
_cell_formula_units_Z              4
_symmetry_space_group_name_H-M     'P 1 21/c 1'
_symmetry_Int_Tables_number        14
_refine_ls_R_factor_all            .122
loop_
_symmetry_equiv_pos_site_id
_symmetry_equiv_pos_as_xyz
  1	'x, -y+.5, z+.5'
  2	'-x, -y, -z'
  3	'-x, y+.5, -z+.5'
  4	'x, y, z'
loop_
_atom_type_symbol
_atom_type_oxidation_number
Al3+	3
O2-	-2
Y3+	3
loop_
_atom_site_label
_atom_site_type_symbol
_atom_site_symmetry_multiplicity
_atom_site_Wyckoff_symbol
_atom_site_fract_x
_atom_site_fract_y
_atom_site_fract_z
_atom_site_occupancy
_atom_site_attached_hydrogens
Y1 Y3+ 4 e 0.5231(5) 0.1095(2) 0.7852(2) 1. 0 
Y2 Y3+ 4 e 0.0233(5) 0.0959(2) 0.8055(2) 1. 0 
Y3 Y3+ 4 e 0.3394(6) 0.1272(2) 0.4369(2) 1. 0 
Y4 Y3+ 4 e 0.8378(5) 0.1214(2) 0.4163(2) 1. 0 
Al1 Al3+ 4 e 0.2156(18) 0.1801(7) 0.1277(7) 1. 0 
Al2 Al3+ 4 e 0.6555(16) 0.1775(8) 0.1127(7) 1. 0 
O1 O2- 4 e 0.7846(39) 0.2353(18) 0.7497(18) 1. 0 
O2 O2- 4 e 0.2313(35) 0.2369(16) 0.7659(16) 1. 0 
O3 O2- 4 e 0.2128(44) 0.0186(19) 0.1588(19) 1. 0 
O4 O2- 4 e 0.0716(38) 0.2349(17) 0.9804(17) 1. 0 
O5 O2- 4 e 0.4294(39) 0.2394(14) 0.1145(17) 1. 0 
O6 O2- 4 e 0.6386(35) 0.2320(15) 0.9618(16) 1. 0 
O7 O2- 4 e 0.6939(46) 0.0168(20) 0.1619(20) 1. 0 
O8 O2- 4 e 0.0802(49) -.0042(18) 0.3907(21) 1. 0 
O9 O2- 4 e 0.5627(48) 0.0052(16) 0.3900(21) 1. 0 

#End of data_69530-ICSD


