data_280324-ICSD
#?2014 by Fachinformationszentrum Karlsruhe, and the U.S. Secretary of 
#Commerce on behalf of the United States.  All rights reserved.
_database_code_ICSD                280324
_audit_creation_date               2002/04/01
_chemical_name_systematic
;
Dicesium Potassium Hexacyanomanganate(III)
;
_chemical_formula_structural       'Cs2 K (Mn (C N)6)'
_chemical_formula_sum              'C6 Cs2 K1 Mn1 N6'
_publ_section_title
;
Cs2 K (Mn (C N)6) at 293, 85 and 10 K
;
loop_
_citation_id
_citation_journal_abbrev
_citation_year
_citation_journal_volume
_citation_page_first
_citation_page_last
_citation_journal_id_ASTM
primary 'Acta Crystallographica, Section C: Crystal Structure Communications'
 2000 56 735 737 ACSCEE
_publ_author_name
;
Figgis, B.N.;Sobolev, A.N.;Kucharski, E.S.;Broughton, V.
;
_cell_length_a                     11.207(2)
_cell_length_b                     8.210(1)
_cell_length_c                     7.696(1)
_cell_angle_alpha                  90.
_cell_angle_beta                   90.25(1)
_cell_angle_gamma                  90.
_cell_volume                       708.1
_cell_formula_units_Z              2
_symmetry_space_group_name_H-M     'P 1 21/n 1'
_symmetry_Int_Tables_number        14
_refine_ls_R_factor_all            .025
loop_
_symmetry_equiv_pos_site_id
_symmetry_equiv_pos_as_xyz
  1	'-x+.5, y+.5, -z+.5'
  2	'-x, -y, -z'
  3	'x+.5, -y+.5, z+.5'
  4	'x, y, z'
loop_
_atom_type_symbol
_atom_type_oxidation_number
C2+	2
Cs1+	1
K1+	1
Mn3+	3
N3-	-3
loop_
_atom_site_label
_atom_site_type_symbol
_atom_site_symmetry_multiplicity
_atom_site_Wyckoff_symbol
_atom_site_fract_x
_atom_site_fract_y
_atom_site_fract_z
_atom_site_occupancy
_atom_site_attached_hydrogens
Cs1 Cs1+ 4 e 0.25072(2) 0.43000(3) -.02177(4) 1. 0 
K1 K1+ 2 d 0 0.5 0.5 1. 0 
Mn1 Mn3+ 2 a 0 0 0 1. 0 
C1 C2+ 4 e 0.0330(3) 0.1298(4) -.2141(4) 1. 0 
N1 N3- 4 e 0.0540(3) 0.2043(4) -.3356(5) 1. 0 
C2 C2+ 4 e 0.0406(3) -.2049(4) -.1269(4) 1. 0 
N2 N3- 4 e 0.0658(3) -.3212(4) -.2003(5) 1. 0 
C3 C2+ 4 e 0.1698(3) 0.0231(4) 0.0728(4) 1. 0 
N3 N3- 4 e 0.2671(3) 0.0409(5) 0.1165(5) 1. 0 

loop_
_atom_site_aniso_label
_atom_site_aniso_type_symbol
_atom_site_aniso_U_11
_atom_site_aniso_U_22
_atom_site_aniso_U_33
_atom_site_aniso_U_12
_atom_site_aniso_U_13
_atom_site_aniso_U_23
Cs1 Cs1+ 0.0550(2) 0.0424(2) 0.0532(2) -.00163(9) 0.00202(12) 0.00519(9)
K1 K1+ 0.0347(5) 0.0287(5) 0.0356(5) -.0005(4) -.0003(4) 0.0009(4)
Mn1 Mn3+ 0.0263(3) 0.0215(3) 0.0272(3) 0.0011(2) 0.0015(2) 0.0009(2)
C1 C2+ 0.0375(16) 0.0304(16) 0.0387(18) 0.0048(13) 0.0037(13) 0.0000(14)
N1 N3- 0.081(2) 0.0482(19) 0.0496(19) 0.0127(17) 0.0189(17) 0.0195(16)
C2 C2+ 0.0388(16) 0.0341(17) 0.0340(16) 0.0006(13) -.0028(13) 0.0021(14)
N2 N3- 0.077(2) 0.0406(18) 0.053(2) 0.0170(16) -.0083(17) -.0168(16)
C3 C2+ 0.0356(18) 0.0345(17) 0.0392(18) 0.0001(13) 0.0010(14) 0.0045(14)
N3 N3- 0.0326(17) 0.067(2) 0.069(2) -.0023(15) -.0045(15) 0.0081(19)
#End of data_280324-ICSD


