data_29500-ICSD
#?2014 by Fachinformationszentrum Karlsruhe, and the U.S. Secretary of 
#Commerce on behalf of the United States.  All rights reserved.
_database_code_ICSD                29500
_audit_creation_date               1988/05/18
_chemical_name_systematic          'Zinc Selenate(IV) - Beta'
_chemical_formula_structural       'Zn Se O3'
_chemical_formula_sum              'O3 Se1 Zn1'
_publ_section_title
;
The crystal structure of beta-zinc selenite
;
loop_
_citation_id
_citation_journal_abbrev
_citation_year
_citation_journal_volume
_citation_page_first
_citation_page_last
_citation_journal_id_ASTM
primary 'Zeitschrift fuer Kristallographie (1979-2010)' 1986 174 291 295 ZEKRDZ
_publ_author_name                  'Bensch, W.;Guenther, J.R.'
_cell_length_a                     7.188(2)
_cell_length_b                     6.225(1)
_cell_length_c                     11.976(4)
_cell_angle_alpha                  90.
_cell_angle_beta                   90.
_cell_angle_gamma                  90.
_cell_volume                       535.87
_cell_formula_units_Z              8
_symmetry_space_group_name_H-M     'P b c a'
_symmetry_Int_Tables_number        61
_refine_ls_R_factor_all            .029
loop_
_symmetry_equiv_pos_site_id
_symmetry_equiv_pos_as_xyz
  1	'x+.5, y, -z+.5'
  2	'x, -y+.5, z+.5'
  3	'-x+.5, y+.5, z'
  4	'-x, -y, -z'
  5	'-x+.5, -y, z+.5'
  6	'-x, y+.5, -z+.5'
  7	'x+.5, -y+.5, -z'
  8	'x, y, z'
loop_
_atom_type_symbol
_atom_type_oxidation_number
O2-	-2
Se4+	4
Zn2+	2
loop_
_atom_site_label
_atom_site_type_symbol
_atom_site_symmetry_multiplicity
_atom_site_Wyckoff_symbol
_atom_site_fract_x
_atom_site_fract_y
_atom_site_fract_z
_atom_site_occupancy
_atom_site_attached_hydrogens
Zn1 Zn2+ 8 c 0.6074(1) 0.3648(1) 0.5957(1) 1. 0 
Se1 Se4+ 8 c 0.5445(1) 0.3882(1) 0.8575(1) 1. 0 
O1 O2- 8 c 0.6518(6) 0.0154(7) 0.5932(4) 1. 0 
O2 O2- 8 c 0.5311(7) 0.3398(7) 0.4345(4) 1. 0 
O3 O2- 8 c 0.4657(5) 0.2980(7) 0.7340(4) 1. 0 

loop_
_atom_site_aniso_label
_atom_site_aniso_type_symbol
_atom_site_aniso_U_11
_atom_site_aniso_U_22
_atom_site_aniso_U_33
_atom_site_aniso_U_12
_atom_site_aniso_U_13
_atom_site_aniso_U_23
Zn1 Zn2+ 0.014(1) 0.009(1) 0.008(1) 0.002(1) -.001(1) 0.001(1)
Se1 Se4+ 0.01(1) 0.006(1) 0.007(1) 0.000(1) -.001(1) 0.000(1)
O1 O2- 0.012(2) 0.011(2) 0.013(2) -.004(2) -.002(2) 0.001(2)
O2 O2- 0.027(2) 0.006(2) 0.009(2) -.004(2) 0.003(2) -.003(2)
O3 O2- 0.018(2) 0.008(2) 0.011(2) 0.000(1) 0.000(2) 0.003(2)
#End of data_29500-ICSD


