data_79215-ICSD
#?2014 by Fachinformationszentrum Karlsruhe, and the U.S. Secretary of 
#Commerce on behalf of the United States.  All rights reserved.
_database_code_ICSD                79215
_audit_creation_date               1996/10/14
_audit_update_record               2010/08/01
_chemical_name_systematic          'Cesium Pentasilver Telluride'
_chemical_formula_structural       'Cs Ag5 Te3'
_chemical_formula_sum              'Ag5 Cs1 Te3'
_publ_section_title
;
Cs Ag5 Te3: a new metal-rich telluride with a unique tunnel structure
;
loop_
_citation_id
_citation_journal_abbrev
_citation_year
_citation_journal_volume
_citation_page_first
_citation_page_last
_citation_journal_id_ASTM
primary 'Journal of Alloys and Compounds' 1995 218 1 4 JALCEU
_publ_author_name
;
Li, J.;Guo, H.-Y.;Zhang, X.;Kanatzidis, M.G.
;
_cell_length_a                     14.672(2)
_cell_length_b                     14.672(2)
_cell_length_c                     4.601(3)
_cell_angle_alpha                  90.
_cell_angle_beta                   90.
_cell_angle_gamma                  90.
_cell_volume                       990.45
_cell_formula_units_Z              4
_symmetry_space_group_name_H-M     'P 42/m n m'
_symmetry_Int_Tables_number        136
_refine_ls_R_factor_all            .04
loop_
_symmetry_equiv_pos_site_id
_symmetry_equiv_pos_as_xyz
  1	'-y+.5, x+.5, -z+.5'
  2	'y+.5, -x+.5, -z+.5'
  3	'y, x, -z'
  4	'-y, -x, -z'
  5	'y+.5, -x+.5, z+.5'
  6	'-y+.5, x+.5, z+.5'
  7	'-y, -x, z'
  8	'y, x, z'
  9	'x+.5, -y+.5, -z+.5'
 10	'-x+.5, y+.5, -z+.5'
 11	'x, y, -z'
 12	'-x, -y, -z'
 13	'-x+.5, y+.5, z+.5'
 14	'x+.5, -y+.5, z+.5'
 15	'-x, -y, z'
 16	'x, y, z'
loop_
_atom_type_symbol
_atom_type_oxidation_number
Ag1+	1
Cs1+	1
Te2-	-2
loop_
_atom_site_label
_atom_site_type_symbol
_atom_site_symmetry_multiplicity
_atom_site_Wyckoff_symbol
_atom_site_fract_x
_atom_site_fract_y
_atom_site_fract_z
_atom_site_occupancy
_atom_site_attached_hydrogens
_atom_site_B_iso_or_equiv
Cs1 Cs1+ 4 f 0.8867(2) 0.1133(2) 0.5 1. 0 2.05(9) 
Te1 Te2- 8 i 0.6721(2) 0.1154(2) 0 1. 0 1.5(1) 
Te2 Te2- 4 f 0.9003(2) 0.9003(2) 0 1. 0 1.3(1) 
Ag1 Ag1+ 8 i 0.5816(3) 0.2142(3) 0.5 1. 0 3.2(2) 
Ag2 Ag1+ 8 i 0.6045(3) 0.0177(2) 0.5 1. 0 2.1(2) 
Ag3 Ag1+ 4 g 0.6762(3) 0.3238(3) 0 1. 0 3.2(1) 

#End of data_79215-ICSD


